%VERSION  VERSION_STAMP = V0001.000  DATE = 10/31/24  10:25:00                  
%FLAG TITLE                                                                     
%FORMAT(20a4)                                                                   
default_name                                                                    
%FLAG POINTERS                                                                  
%FORMAT(10I8)                                                                   
   48491      22   36215   12242     543     344    1120    1029       0       0
   86660   12066   12242     344    1029      68     146     156      39       1
       0       0       0       0       0       0       0       1      25       0
   11991
%FLAG ATOM_NAME                                                                 
%FORMAT(20a4)                                                                   
H1  CH3 H2  H3  C   O   N   H   CA  HA  CB  HB2 HB3 CG  CD1 HD1 NE1 HE1 CE2 CZ2 
HZ2 CH2 HH2 CZ3 HZ3 CE3 HE3 CD2 C   O   N   H   CA  HA  CB  HB  CG1 HG11HG12HG13
CG2 HG21HG22HG23C   O   N   H   CA  HA  CB  HB  CG2 HG21HG22HG23OG1 HG1 C   O   
N   H   CA  HA  CB  HB2 HB3 CG  ND1 HD1 CE1 HE1 NE2 CD2 HD2 C   O   N   H   CA  
HA  CB  HB2 HB3 CG  HG2 HG3 CD  HD2 HD3 NE  HE  CZ  NH1 HH11HH12NH2 HH21HH22C   
O   C   O   CA  C1B CB  CC  CD  CE  CF  CY  N   HB1 HB2 HB3 HB4 HB5 HC1 HC2 HD1 
HD2 HE  HF  HG1 HG2 H   N   H   CA  HA  CB  HB1 HB2 HB3 C   O   N   H   CA  HA2 
HA3 C   O   N   H   CA  HA  CB  HB2 HB3 CG  HG  CD1 HD11HD12HD13CD2 HD21HD22HD23
C   O   C   O   CA  C1B CB  CY  N   HB1 HB2 H1B1H1B2H1B3HC1 HC2 H   N   H   CA  
HA  CB  HB2 HB3 OG  HG  C   O   N   H   CA  HA  CB  HB2 HB3 CG  HG2 HG3 CD  HD2 
HD3 NE  HE  CZ  NH1 HH11HH12NH2 HH21HH22C   O   N   H   CA  HA  CB  HB2 HB3 OG  
HG  C   O   N   H   CA  HA2 HA3 C   O   N   H   CA  HA2 HA3 C   O   N   H   CA  
HA  CB  HB  CG1 HG11HG12HG13CG2 HG21HG22HG23C   O   N   H   CA  HA  CB  HB  CG1 
HG11HG12HG13CG2 HG21HG22HG23C   O   N   H   CA  HA  CB  HB2 HB3 CG  HG2 HG3 CD  
HD2 HD3 CE  HE2 HE3 NZ  HZ1 HZ2 HZ3 C   O   N   H   CA  HA  CB  HB2 HB3 CG  OD1 
ND2 HD21HD22C   O   N   H   CA  HA  CB  HB2 HB3 CG  OD1 ND2 HD21HD22C   O   N   
H   CA  HA  CB  HB2 HB3 CG  CD1 HD1 CE1 HE1 CZ  HZ  CE2 HE2 CD2 HD2 C   O   N   
H   CA  HA  CB  HB  CG1 HG11HG12HG13CG2 HG21HG22HG23C   O   N   CD  HD2 HD3 CG  
HG2 HG3 CB  HB2 HB3 CA  HA  C   O   N   H   CA  HA  CB  HB  CG2 HG21HG22HG23OG1 
HG1 C   O   N   H   CA  HA  CB  HB2 HB3 CG  OD1 OD2 C   O   N   H   CA  HA  CB  
HB  CG1 HG11HG12HG13CG2 HG21HG22HG23C   O   N   H   CA  HA2 HA3 C   O   N   CD  
HD2 HD3 CG  HG2 HG3 CB  HB2 HB3 CA  HA  C   O   N   H   CA  HA  CB  HB2 HB3 CG  
CD1 HD1 CE1 HE1 CZ  HZ  CE2 HE2 CD2 HD2 C   O   N   H   CA  HA  CB  HB1 HB2 HB3 
C   O   N   H   CA  HA  CB  HB2 HB3 CG  CD1 HD1 CE1 HE1 CZ  HZ  CE2 HE2 CD2 HD2 
C   O   N   HN1 HN2 Na+ Na+ Na+ Na+ Na+ Na+ Na+ Na+ Na+ Na+ Na+ Na+ Na+ Na+ Na+ 
Na+ Na+ Na+ Na+ Na+ Cl- Cl- Cl- Cl- Cl- Cl- Cl- Cl- Cl- Cl- Cl- Cl- Cl- Cl- Cl- 
Cl- Cl- Cl- Cl- Cl- Cl- Cl- O   H1  H2  EPW O   H1  H2  EPW O   H1  H2  EPW O   
H1  H2  EPW O   H1  H2  EPW O   H1  H2  EPW O   H1  H2  EPW O   H1  H2  EPW O   
H1  H2  EPW O   H1  H2  EPW O   H1  H2  EPW O   H1  H2  EPW O   H1  H2  EPW O   
H1  H2  EPW O   H1  H2  EPW O   H1  H2  EPW O   H1  H2  EPW O   H1  H2  EPW O   
H1  H2  EPW O   H1  H2  EPW O   H1  H2  EPW O   H1  H2  EPW O   H1  H2  EPW O   
H1  H2  EPW O   H1  H2  EPW O   H1  H2  EPW O   H1  H2  EPW O   H1  H2  EPW O   
H1  H2  EPW O   H1  H2  EPW O   H1  H2  EPW O   H1  H2  EPW O   H1  H2  EPW O   
H1  H2  EPW O   H1  H2  EPW O   H1  H2  EPW O   H1  H2  EPW O   H1  H2  EPW O   
H1  H2  EPW O   H1  H2  EPW O   H1  H2  EPW O   H1  H2  EPW O   H1  H2  EPW O   
H1  H2  EPW O   H1  H2  EPW O   H1  H2  EPW O   H1  H2  EPW O   H1  H2  EPW O   
H1  H2  EPW O   H1  H2  EPW O   H1  H2  EPW O   H1  H2  EPW O   H1  H2  EPW O   
H1  H2  EPW O   H1  H2  EPW O   H1  H2  EPW O   H1  H2  EPW O   H1  H2  EPW O   
H1  H2  EPW O   H1  H2  EPW O   H1  H2  EPW O   H1  H2  EPW O   H1  H2  EPW O   
H1  H2  EPW O   H1  H2  EPW O   H1  H2  EPW O   H1  H2  EPW O   H1  H2  EPW O   
H1  H2  EPW O   H1  H2  EPW O   H1  H2  EPW O   H1  H2  EPW O   H1  H2  EPW O   
H1  H2  EPW O   H1  H2  EPW O   H1  H2  EPW O   H1  H2  EPW O   H1  H2  EPW O   
H1  H2  EPW O   H1  H2  EPW O   H1  H2  EPW O   H1  H2  EPW O   H1  H2  EPW O   
H1  H2  EPW O   H1  H2  EPW O   H1  H2  EPW O   H1  H2  EPW O   H1  H2  EPW O   
H1  H2  EPW O   H1  H2  EPW O   H1  H2  EPW O   H1  H2  EPW O   H1  H2  EPW O   
H1  H2  EPW O   H1  H2  EPW O   H1  H2  EPW O   H1  H2  EPW O   H1  H2  EPW O   
H1  H2  EPW O   H1  H2  EPW O   H1  H2  EPW O   H1  H2  EPW O   H1  H2  EPW O   
H1  H2  EPW O   H1  H2  EPW O   H1  H2  EPW O   H1  H2  EPW O   H1  H2  EPW O   
H1  H2  EPW O   H1  H2  EPW O   H1  H2  EPW O   H1  H2  EPW O   H1  H2  EPW O   
H1  H2  EPW O   H1  H2  EPW O   H1  H2  EPW O   H1  H2  EPW O   H1  H2  EPW O   
H1  H2  EPW O   H1  H2  EPW O   H1  H2  EPW O   H1  H2  EPW O   H1  H2  EPW O   
H1  H2  EPW O   H1  H2  EPW O   H1  H2  EPW O   H1  H2  EPW O   H1  H2  EPW O   
H1  H2  EPW O   H1  H2  EPW O   H1  H2  EPW O   H1  H2  EPW O   H1  H2  EPW O   
H1  H2  EPW O   H1  H2  EPW O   H1  H2  EPW O   H1  H2  EPW O   H1  H2  EPW O   
H1  H2  EPW O   H1  H2  EPW O   H1  H2  EPW O   H1  H2  EPW O   H1  H2  EPW O   
H1  H2  EPW O   H1  H2  EPW O   H1  H2  EPW O   H1  H2  EPW O   H1  H2  EPW O   
H1  H2  EPW O   H1  H2  EPW O   H1  H2  EPW O   H1  H2  EPW O   H1  H2  EPW O   
H1  H2  EPW O   H1  H2  EPW O   H1  H2  EPW O   H1  H2  EPW O   H1  H2  EPW O   
H1  H2  EPW O   H1  H2  EPW O   H1  H2  EPW O   H1  H2  EPW O   H1  H2  EPW O   
H1  H2  EPW O   H1  H2  EPW O   H1  H2  EPW O   H1  H2  EPW O   H1  H2  EPW O   
H1  H2  EPW O   H1  H2  EPW O   H1  H2  EPW O   H1  H2  EPW O   H1  H2  EPW O   
H1  H2  EPW O   H1  H2  EPW O   H1  H2  EPW O   H1  H2  EPW O   H1  H2  EPW O   
H1  H2  EPW O   H1  H2  EPW O   H1  H2  EPW O   H1  H2  EPW O   H1  H2  EPW O   
H1  H2  EPW O   H1  H2  EPW O   H1  H2  EPW O   H1  H2  EPW O   H1  H2  EPW O   
H1  H2  EPW O   H1  H2  EPW O   H1  H2  EPW O   H1  H2  EPW O   H1  H2  EPW O   
H1  H2  EPW O   H1  H2  EPW O   H1  H2  EPW O   H1  H2  EPW O   H1  H2  EPW O   
H1  H2  EPW O   H1  H2  EPW O   H1  H2  EPW O   H1  H2  EPW O   H1  H2  EPW O   
H1  H2  EPW O   H1  H2  EPW O   H1  H2  EPW O   H1  H2  EPW O   H1  H2  EPW O   
H1  H2  EPW O   H1  H2  EPW O   H1  H2  EPW O   H1  H2  EPW O   H1  H2  EPW O   
H1  H2  EPW O   H1  H2  EPW O   H1  H2  EPW O   H1  H2  EPW O   H1  H2  EPW O   
H1  H2  EPW O   H1  H2  EPW O   H1  H2  EPW O   H1  H2  EPW O   H1  H2  EPW O   
H1  H2  EPW O   H1  H2  EPW O   H1  H2  EPW O   H1  H2  EPW O   H1  H2  EPW O   
H1  H2  EPW O   H1  H2  EPW O   H1  H2  EPW O   H1  H2  EPW O   H1  H2  EPW O   
H1  H2  EPW O   H1  H2  EPW O   H1  H2  EPW O   H1  H2  EPW O   H1  H2  EPW O   
H1  H2  EPW O   H1  H2  EPW O   H1  H2  EPW O   H1  H2  EPW O   H1  H2  EPW O   
H1  H2  EPW O   H1  H2  EPW O   H1  H2  EPW O   H1  H2  EPW O   H1  H2  EPW O   
H1  H2  EPW O   H1  H2  EPW O   H1  H2  EPW O   H1  H2  EPW O   H1  H2  EPW O   
H1  H2  EPW O   H1  H2  EPW O   H1  H2  EPW O   H1  H2  EPW O   H1  H2  EPW O   
H1  H2  EPW O   H1  H2  EPW O   H1  H2  EPW O   H1  H2  EPW O   H1  H2  EPW O   
H1  H2  EPW O   H1  H2  EPW O   H1  H2  EPW O   H1  H2  EPW O   H1  H2  EPW O   
H1  H2  EPW O   H1  H2  EPW O   H1  H2  EPW O   H1  H2  EPW O   H1  H2  EPW O   
H1  H2  EPW O   H1  H2  EPW O   H1  H2  EPW O   H1  H2  EPW O   H1  H2  EPW O   
H1  H2  EPW O   H1  H2  EPW O   H1  H2  EPW O   H1  H2  EPW O   H1  H2  EPW O   
H1  H2  EPW O   H1  H2  EPW O   H1  H2  EPW O   H1  H2  EPW O   H1  H2  EPW O   
H1  H2  EPW O   H1  H2  EPW O   H1  H2  EPW O   H1  H2  EPW O   H1  H2  EPW O   
H1  H2  EPW O   H1  H2  EPW O   H1  H2  EPW O   H1  H2  EPW O   H1  H2  EPW O   
H1  H2  EPW O   H1  H2  EPW O   H1  H2  EPW O   H1  H2  EPW O   H1  H2  EPW O   
H1  H2  EPW O   H1  H2  EPW O   H1  H2  EPW O   H1  H2  EPW O   H1  H2  EPW O   
H1  H2  EPW O   H1  H2  EPW O   H1  H2  EPW O   H1  H2  EPW O   H1  H2  EPW O   
H1  H2  EPW O   H1  H2  EPW O   H1  H2  EPW O   H1  H2  EPW O   H1  H2  EPW O   
H1  H2  EPW O   H1  H2  EPW O   H1  H2  EPW O   H1  H2  EPW O   H1  H2  EPW O   
H1  H2  EPW O   H1  H2  EPW O   H1  H2  EPW O   H1  H2  EPW O   H1  H2  EPW O   
H1  H2  EPW O   H1  H2  EPW O   H1  H2  EPW O   H1  H2  EPW O   H1  H2  EPW O   
H1  H2  EPW O   H1  H2  EPW O   H1  H2  EPW O   H1  H2  EPW O   H1  H2  EPW O   
H1  H2  EPW O   H1  H2  EPW O   H1  H2  EPW O   H1  H2  EPW O   H1  H2  EPW O   
H1  H2  EPW O   H1  H2  EPW O   H1  H2  EPW O   H1  H2  EPW O   H1  H2  EPW O   
H1  H2  EPW O   H1  H2  EPW O   H1  H2  EPW O   H1  H2  EPW O   H1  H2  EPW O   
H1  H2  EPW O   H1  H2  EPW O   H1  H2  EPW O   H1  H2  EPW O   H1  H2  EPW O   
H1  H2  EPW O   H1  H2  EPW O   H1  H2  EPW O   H1  H2  EPW O   H1  H2  EPW O   
H1  H2  EPW O   H1  H2  EPW O   H1  H2  EPW O   H1  H2  EPW O   H1  H2  EPW O   
H1  H2  EPW O   H1  H2  EPW O   H1  H2  EPW O   H1  H2  EPW O   H1  H2  EPW O   
H1  H2  EPW O   H1  H2  EPW O   H1  H2  EPW O   H1  H2  EPW O   H1  H2  EPW O   
H1  H2  EPW O   H1  H2  EPW O   H1  H2  EPW O   H1  H2  EPW O   H1  H2  EPW O   
H1  H2  EPW O   H1  H2  EPW O   H1  H2  EPW O   H1  H2  EPW O   H1  H2  EPW O   
H1  H2  EPW O   H1  H2  EPW O   H1  H2  EPW O   H1  H2  EPW O   H1  H2  EPW O   
H1  H2  EPW O   H1  H2  EPW O   H1  H2  EPW O   H1  H2  EPW O   H1  H2  EPW O   
H1  H2  EPW O   H1  H2  EPW O   H1  H2  EPW O   H1  H2  EPW O   H1  H2  EPW O   
H1  H2  EPW O   H1  H2  EPW O   H1  H2  EPW O   H1  H2  EPW O   H1  H2  EPW O   
H1  H2  EPW O   H1  H2  EPW O   H1  H2  EPW O   H1  H2  EPW O   H1  H2  EPW O   
H1  H2  EPW O   H1  H2  EPW O   H1  H2  EPW O   H1  H2  EPW O   H1  H2  EPW O   
H1  H2  EPW O   H1  H2  EPW O   H1  H2  EPW O   H1  H2  EPW O   H1  H2  EPW O   
H1  H2  EPW O   H1  H2  EPW O   H1  H2  EPW O   H1  H2  EPW O   H1  H2  EPW O   
H1  H2  EPW O   H1  H2  EPW O   H1  H2  EPW O   H1  H2  EPW O   H1  H2  EPW O   
H1  H2  EPW O   H1  H2  EPW O   H1  H2  EPW O   H1  H2  EPW O   H1  H2  EPW O   
H1  H2  EPW O   H1  H2  EPW O   H1  H2  EPW O   H1  H2  EPW O   H1  H2  EPW O   
H1  H2  EPW O   H1  H2  EPW O   H1  H2  EPW O   H1  H2  EPW O   H1  H2  EPW O   
H1  H2  EPW O   H1  H2  EPW O   H1  H2  EPW O   H1  H2  EPW O   H1  H2  EPW O   
H1  H2  EPW O   H1  H2  EPW O   H1  H2  EPW O   H1  H2  EPW O   H1  H2  EPW O   
H1  H2  EPW O   H1  H2  EPW O   H1  H2  EPW O   H1  H2  EPW O   H1  H2  EPW O   
H1  H2  EPW O   H1  H2  EPW O   H1  H2  EPW O   H1  H2  EPW O   H1  H2  EPW O   
H1  H2  EPW O   H1  H2  EPW O   H1  H2  EPW O   H1  H2  EPW O   H1  H2  EPW O   
H1  H2  EPW O   H1  H2  EPW O   H1  H2  EPW O   H1  H2  EPW O   H1  H2  EPW O   
H1  H2  EPW O   H1  H2  EPW O   H1  H2  EPW O   H1  H2  EPW O   H1  H2  EPW O   
H1  H2  EPW O   H1  H2  EPW O   H1  H2  EPW O   H1  H2  EPW O   H1  H2  EPW O   
H1  H2  EPW O   H1  H2  EPW O   H1  H2  EPW O   H1  H2  EPW O   H1  H2  EPW O   
H1  H2  EPW O   H1  H2  EPW O   H1  H2  EPW O   H1  H2  EPW O   H1  H2  EPW O   
H1  H2  EPW O   H1  H2  EPW O   H1  H2  EPW O   H1  H2  EPW O   H1  H2  EPW O   
H1  H2  EPW O   H1  H2  EPW O   H1  H2  EPW O   H1  H2  EPW O   H1  H2  EPW O   
H1  H2  EPW O   H1  H2  EPW O   H1  H2  EPW O   H1  H2  EPW O   H1  H2  EPW O   
H1  H2  EPW O   H1  H2  EPW O   H1  H2  EPW O   H1  H2  EPW O   H1  H2  EPW O   
H1  H2  EPW O   H1  H2  EPW O   H1  H2  EPW O   H1  H2  EPW O   H1  H2  EPW O   
H1  H2  EPW O   H1  H2  EPW O   H1  H2  EPW O   H1  H2  EPW O   H1  H2  EPW O   
H1  H2  EPW O   H1  H2  EPW O   H1  H2  EPW O   H1  H2  EPW O   H1  H2  EPW O   
H1  H2  EPW O   H1  H2  EPW O   H1  H2  EPW O   H1  H2  EPW O   H1  H2  EPW O   
H1  H2  EPW O   H1  H2  EPW O   H1  H2  EPW O   H1  H2  EPW O   H1  H2  EPW O   
H1  H2  EPW O   H1  H2  EPW O   H1  H2  EPW O   H1  H2  EPW O   H1  H2  EPW O   
H1  H2  EPW O   H1  H2  EPW O   H1  H2  EPW O   H1  H2  EPW O   H1  H2  EPW O   
H1  H2  EPW O   H1  H2  EPW O   H1  H2  EPW O   H1  H2  EPW O   H1  H2  EPW O   
H1  H2  EPW O   H1  H2  EPW O   H1  H2  EPW O   H1  H2  EPW O   H1  H2  EPW O   
H1  H2  EPW O   H1  H2  EPW O   H1  H2  EPW O   H1  H2  EPW O   H1  H2  EPW O   
H1  H2  EPW O   H1  H2  EPW O   H1  H2  EPW O   H1  H2  EPW O   H1  H2  EPW O   
H1  H2  EPW O   H1  H2  EPW O   H1  H2  EPW O   H1  H2  EPW O   H1  H2  EPW O   
H1  H2  EPW O   H1  H2  EPW O   H1  H2  EPW O   H1  H2  EPW O   H1  H2  EPW O   
H1  H2  EPW O   H1  H2  EPW O   H1  H2  EPW O   H1  H2  EPW O   H1  H2  EPW O   
H1  H2  EPW O   H1  H2  EPW O   H1  H2  EPW O   H1  H2  EPW O   H1  H2  EPW O   
H1  H2  EPW O   H1  H2  EPW O   H1  H2  EPW O   H1  H2  EPW O   H1  H2  EPW O   
H1  H2  EPW O   H1  H2  EPW O   H1  H2  EPW O   H1  H2  EPW O   H1  H2  EPW O   
H1  H2  EPW O   H1  H2  EPW O   H1  H2  EPW O   H1  H2  EPW O   H1  H2  EPW O   
H1  H2  EPW O   H1  H2  EPW O   H1  H2  EPW O   H1  H2  EPW O   H1  H2  EPW O   
H1  H2  EPW O   H1  H2  EPW O   H1  H2  EPW O   H1  H2  EPW O   H1  H2  EPW O   
H1  H2  EPW O   H1  H2  EPW O   H1  H2  EPW O   H1  H2  EPW O   H1  H2  EPW O   
H1  H2  EPW O   H1  H2  EPW O   H1  H2  EPW O   H1  H2  EPW O   H1  H2  EPW O   
H1  H2  EPW O   H1  H2  EPW O   H1  H2  EPW O   H1  H2  EPW O   H1  H2  EPW O   
H1  H2  EPW O   H1  H2  EPW O   H1  H2  EPW O   H1  H2  EPW O   H1  H2  EPW O   
H1  H2  EPW O   H1  H2  EPW O   H1  H2  EPW O   H1  H2  EPW O   H1  H2  EPW O   
H1  H2  EPW O   H1  H2  EPW O   H1  H2  EPW O   H1  H2  EPW O   H1  H2  EPW O   
H1  H2  EPW O   H1  H2  EPW O   H1  H2  EPW O   H1  H2  EPW O   H1  H2  EPW O   
H1  H2  EPW O   H1  H2  EPW O   H1  H2  EPW O   H1  H2  EPW O   H1  H2  EPW O   
H1  H2  EPW O   H1  H2  EPW O   H1  H2  EPW O   H1  H2  EPW O   H1  H2  EPW O   
H1  H2  EPW O   H1  H2  EPW O   H1  H2  EPW O   H1  H2  EPW O   H1  H2  EPW O   
H1  H2  EPW O   H1  H2  EPW O   H1  H2  EPW O   H1  H2  EPW O   H1  H2  EPW O   
H1  H2  EPW O   H1  H2  EPW O   H1  H2  EPW O   H1  H2  EPW O   H1  H2  EPW O   
H1  H2  EPW O   H1  H2  EPW O   H1  H2  EPW O   H1  H2  EPW O   H1  H2  EPW O   
H1  H2  EPW O   H1  H2  EPW O   H1  H2  EPW O   H1  H2  EPW O   H1  H2  EPW O   
H1  H2  EPW O   H1  H2  EPW O   H1  H2  EPW O   H1  H2  EPW O   H1  H2  EPW O   
H1  H2  EPW O   H1  H2  EPW O   H1  H2  EPW O   H1  H2  EPW O   H1  H2  EPW O   
H1  H2  EPW O   H1  H2  EPW O   H1  H2  EPW O   H1  H2  EPW O   H1  H2  EPW O   
H1  H2  EPW O   H1  H2  EPW O   H1  H2  EPW O   H1  H2  EPW O   H1  H2  EPW O   
H1  H2  EPW O   H1  H2  EPW O   H1  H2  EPW O   H1  H2  EPW O   H1  H2  EPW O   
H1  H2  EPW O   H1  H2  EPW O   H1  H2  EPW O   H1  H2  EPW O   H1  H2  EPW O   
H1  H2  EPW O   H1  H2  EPW O   H1  H2  EPW O   H1  H2  EPW O   H1  H2  EPW O   
H1  H2  EPW O   H1  H2  EPW O   H1  H2  EPW O   H1  H2  EPW O   H1  H2  EPW O   
H1  H2  EPW O   H1  H2  EPW O   H1  H2  EPW O   H1  H2  EPW O   H1  H2  EPW O   
H1  H2  EPW O   H1  H2  EPW O   H1  H2  EPW O   H1  H2  EPW O   H1  H2  EPW O   
H1  H2  EPW O   H1  H2  EPW O   H1  H2  EPW O   H1  H2  EPW O   H1  H2  EPW O   
H1  H2  EPW O   H1  H2  EPW O   H1  H2  EPW O   H1  H2  EPW O   H1  H2  EPW O   
H1  H2  EPW O   H1  H2  EPW O   H1  H2  EPW O   H1  H2  EPW O   H1  H2  EPW O   
H1  H2  EPW O   H1  H2  EPW O   H1  H2  EPW O   H1  H2  EPW O   H1  H2  EPW O   
H1  H2  EPW O   H1  H2  EPW O   H1  H2  EPW O   H1  H2  EPW O   H1  H2  EPW O   
H1  H2  EPW O   H1  H2  EPW O   H1  H2  EPW O   H1  H2  EPW O   H1  H2  EPW O   
H1  H2  EPW O   H1  H2  EPW O   H1  H2  EPW O   H1  H2  EPW O   H1  H2  EPW O   
H1  H2  EPW O   H1  H2  EPW O   H1  H2  EPW O   H1  H2  EPW O   H1  H2  EPW O   
H1  H2  EPW O   H1  H2  EPW O   H1  H2  EPW O   H1  H2  EPW O   H1  H2  EPW O   
H1  H2  EPW O   H1  H2  EPW O   H1  H2  EPW O   H1  H2  EPW O   H1  H2  EPW O   
H1  H2  EPW O   H1  H2  EPW O   H1  H2  EPW O   H1  H2  EPW O   H1  H2  EPW O   
H1  H2  EPW O   H1  H2  EPW O   H1  H2  EPW O   H1  H2  EPW O   H1  H2  EPW O   
H1  H2  EPW O   H1  H2  EPW O   H1  H2  EPW O   H1  H2  EPW O   H1  H2  EPW O   
H1  H2  EPW O   H1  H2  EPW O   H1  H2  EPW O   H1  H2  EPW O   H1  H2  EPW O   
H1  H2  EPW O   H1  H2  EPW O   H1  H2  EPW O   H1  H2  EPW O   H1  H2  EPW O   
H1  H2  EPW O   H1  H2  EPW O   H1  H2  EPW O   H1  H2  EPW O   H1  H2  EPW O   
H1  H2  EPW O   H1  H2  EPW O   H1  H2  EPW O   H1  H2  EPW O   H1  H2  EPW O   
H1  H2  EPW O   H1  H2  EPW O   H1  H2  EPW O   H1  H2  EPW O   H1  H2  EPW O   
H1  H2  EPW O   H1  H2  EPW O   H1  H2  EPW O   H1  H2  EPW O   H1  H2  EPW O   
H1  H2  EPW O   H1  H2  EPW O   H1  H2  EPW O   H1  H2  EPW O   H1  H2  EPW O   
H1  H2  EPW O   H1  H2  EPW O   H1  H2  EPW O   H1  H2  EPW O   H1  H2  EPW O   
H1  H2  EPW O   H1  H2  EPW O   H1  H2  EPW O   H1  H2  EPW O   H1  H2  EPW O   
H1  H2  EPW O   H1  H2  EPW O   H1  H2  EPW O   H1  H2  EPW O   H1  H2  EPW O   
H1  H2  EPW O   H1  H2  EPW O   H1  H2  EPW O   H1  H2  EPW O   H1  H2  EPW O   
H1  H2  EPW O   H1  H2  EPW O   H1  H2  EPW O   H1  H2  EPW O   H1  H2  EPW O   
H1  H2  EPW O   H1  H2  EPW O   H1  H2  EPW O   H1  H2  EPW O   H1  H2  EPW O   
H1  H2  EPW O   H1  H2  EPW O   H1  H2  EPW O   H1  H2  EPW O   H1  H2  EPW O   
H1  H2  EPW O   H1  H2  EPW O   H1  H2  EPW O   H1  H2  EPW O   H1  H2  EPW O   
H1  H2  EPW O   H1  H2  EPW O   H1  H2  EPW O   H1  H2  EPW O   H1  H2  EPW O   
H1  H2  EPW O   H1  H2  EPW O   H1  H2  EPW O   H1  H2  EPW O   H1  H2  EPW O   
H1  H2  EPW O   H1  H2  EPW O   H1  H2  EPW O   H1  H2  EPW O   H1  H2  EPW O   
H1  H2  EPW O   H1  H2  EPW O   H1  H2  EPW O   H1  H2  EPW O   H1  H2  EPW O   
H1  H2  EPW O   H1  H2  EPW O   H1  H2  EPW O   H1  H2  EPW O   H1  H2  EPW O   
H1  H2  EPW O   H1  H2  EPW O   H1  H2  EPW O   H1  H2  EPW O   H1  H2  EPW O   
H1  H2  EPW O   H1  H2  EPW O   H1  H2  EPW O   H1  H2  EPW O   H1  H2  EPW O   
H1  H2  EPW O   H1  H2  EPW O   H1  H2  EPW O   H1  H2  EPW O   H1  H2  EPW O   
H1  H2  EPW O   H1  H2  EPW O   H1  H2  EPW O   H1  H2  EPW O   H1  H2  EPW O   
H1  H2  EPW O   H1  H2  EPW O   H1  H2  EPW O   H1  H2  EPW O   H1  H2  EPW O   
H1  H2  EPW O   H1  H2  EPW O   H1  H2  EPW O   H1  H2  EPW O   H1  H2  EPW O   
H1  H2  EPW O   H1  H2  EPW O   H1  H2  EPW O   H1  H2  EPW O   H1  H2  EPW O   
H1  H2  EPW O   H1  H2  EPW O   H1  H2  EPW O   H1  H2  EPW O   H1  H2  EPW O   
H1  H2  EPW O   H1  H2  EPW O   H1  H2  EPW O   H1  H2  EPW O   H1  H2  EPW O   
H1  H2  EPW O   H1  H2  EPW O   H1  H2  EPW O   H1  H2  EPW O   H1  H2  EPW O   
H1  H2  EPW O   H1  H2  EPW O   H1  H2  EPW O   H1  H2  EPW O   H1  H2  EPW O   
H1  H2  EPW O   H1  H2  EPW O   H1  H2  EPW O   H1  H2  EPW O   H1  H2  EPW O   
H1  H2  EPW O   H1  H2  EPW O   H1  H2  EPW O   H1  H2  EPW O   H1  H2  EPW O   
H1  H2  EPW O   H1  H2  EPW O   H1  H2  EPW O   H1  H2  EPW O   H1  H2  EPW O   
H1  H2  EPW O   H1  H2  EPW O   H1  H2  EPW O   H1  H2  EPW O   H1  H2  EPW O   
H1  H2  EPW O   H1  H2  EPW O   H1  H2  EPW O   H1  H2  EPW O   H1  H2  EPW O   
H1  H2  EPW O   H1  H2  EPW O   H1  H2  EPW O   H1  H2  EPW O   H1  H2  EPW O   
H1  H2  EPW O   H1  H2  EPW O   H1  H2  EPW O   H1  H2  EPW O   H1  H2  EPW O   
H1  H2  EPW O   H1  H2  EPW O   H1  H2  EPW O   H1  H2  EPW O   H1  H2  EPW O   
H1  H2  EPW O   H1  H2  EPW O   H1  H2  EPW O   H1  H2  EPW O   H1  H2  EPW O   
H1  H2  EPW O   H1  H2  EPW O   H1  H2  EPW O   H1  H2  EPW O   H1  H2  EPW O   
H1  H2  EPW O   H1  H2  EPW O   H1  H2  EPW O   H1  H2  EPW O   H1  H2  EPW O   
H1  H2  EPW O   H1  H2  EPW O   H1  H2  EPW O   H1  H2  EPW O   H1  H2  EPW O   
H1  H2  EPW O   H1  H2  EPW O   H1  H2  EPW O   H1  H2  EPW O   H1  H2  EPW O   
H1  H2  EPW O   H1  H2  EPW O   H1  H2  EPW O   H1  H2  EPW O   H1  H2  EPW O   
H1  H2  EPW O   H1  H2  EPW O   H1  H2  EPW O   H1  H2  EPW O   H1  H2  EPW O   
H1  H2  EPW O   H1  H2  EPW O   H1  H2  EPW O   H1  H2  EPW O   H1  H2  EPW O   
H1  H2  EPW O   H1  H2  EPW O   H1  H2  EPW O   H1  H2  EPW O   H1  H2  EPW O   
H1  H2  EPW O   H1  H2  EPW O   H1  H2  EPW O   H1  H2  EPW O   H1  H2  EPW O   
H1  H2  EPW O   H1  H2  EPW O   H1  H2  EPW O   H1  H2  EPW O   H1  H2  EPW O   
H1  H2  EPW O   H1  H2  EPW O   H1  H2  EPW O   H1  H2  EPW O   H1  H2  EPW O   
H1  H2  EPW O   H1  H2  EPW O   H1  H2  EPW O   H1  H2  EPW O   H1  H2  EPW O   
H1  H2  EPW O   H1  H2  EPW O   H1  H2  EPW O   H1  H2  EPW O   H1  H2  EPW O   
H1  H2  EPW O   H1  H2  EPW O   H1  H2  EPW O   H1  H2  EPW O   H1  H2  EPW O   
H1  H2  EPW O   H1  H2  EPW O   H1  H2  EPW O   H1  H2  EPW O   H1  H2  EPW O   
H1  H2  EPW O   H1  H2  EPW O   H1  H2  EPW O   H1  H2  EPW O   H1  H2  EPW O   
H1  H2  EPW O   H1  H2  EPW O   H1  H2  EPW O   H1  H2  EPW O   H1  H2  EPW O   
H1  H2  EPW O   H1  H2  EPW O   H1  H2  EPW O   H1  H2  EPW O   H1  H2  EPW O   
H1  H2  EPW O   H1  H2  EPW O   H1  H2  EPW O   H1  H2  EPW O   H1  H2  EPW O   
H1  H2  EPW O   H1  H2  EPW O   H1  H2  EPW O   H1  H2  EPW O   H1  H2  EPW O   
H1  H2  EPW O   H1  H2  EPW O   H1  H2  EPW O   H1  H2  EPW O   H1  H2  EPW O   
H1  H2  EPW O   H1  H2  EPW O   H1  H2  EPW O   H1  H2  EPW O   H1  H2  EPW O   
H1  H2  EPW O   H1  H2  EPW O   H1  H2  EPW O   H1  H2  EPW O   H1  H2  EPW O   
H1  H2  EPW O   H1  H2  EPW O   H1  H2  EPW O   H1  H2  EPW O   H1  H2  EPW O   
H1  H2  EPW O   H1  H2  EPW O   H1  H2  EPW O   H1  H2  EPW O   H1  H2  EPW O   
H1  H2  EPW O   H1  H2  EPW O   H1  H2  EPW O   H1  H2  EPW O   H1  H2  EPW O   
H1  H2  EPW O   H1  H2  EPW O   H1  H2  EPW O   H1  H2  EPW O   H1  H2  EPW O   
H1  H2  EPW O   H1  H2  EPW O   H1  H2  EPW O   H1  H2  EPW O   H1  H2  EPW O   
H1  H2  EPW O   H1  H2  EPW O   H1  H2  EPW O   H1  H2  EPW O   H1  H2  EPW O   
H1  H2  EPW O   H1  H2  EPW O   H1  H2  EPW O   H1  H2  EPW O   H1  H2  EPW O   
H1  H2  EPW O   H1  H2  EPW O   H1  H2  EPW O   H1  H2  EPW O   H1  H2  EPW O   
H1  H2  EPW O   H1  H2  EPW O   H1  H2  EPW O   H1  H2  EPW O   H1  H2  EPW O   
H1  H2  EPW O   H1  H2  EPW O   H1  H2  EPW O   H1  H2  EPW O   H1  H2  EPW O   
H1  H2  EPW O   H1  H2  EPW O   H1  H2  EPW O   H1  H2  EPW O   H1  H2  EPW O   
H1  H2  EPW O   H1  H2  EPW O   H1  H2  EPW O   H1  H2  EPW O   H1  H2  EPW O   
H1  H2  EPW O   H1  H2  EPW O   H1  H2  EPW O   H1  H2  EPW O   H1  H2  EPW O   
H1  H2  EPW O   H1  H2  EPW O   H1  H2  EPW O   H1  H2  EPW O   H1  H2  EPW O   
H1  H2  EPW O   H1  H2  EPW O   H1  H2  EPW O   H1  H2  EPW O   H1  H2  EPW O   
H1  H2  EPW O   H1  H2  EPW O   H1  H2  EPW O   H1  H2  EPW O   H1  H2  EPW O   
H1  H2  EPW O   H1  H2  EPW O   H1  H2  EPW O   H1  H2  EPW O   H1  H2  EPW O   
H1  H2  EPW O   H1  H2  EPW O   H1  H2  EPW O   H1  H2  EPW O   H1  H2  EPW O   
H1  H2  EPW O   H1  H2  EPW O   H1  H2  EPW O   H1  H2  EPW O   H1  H2  EPW O   
H1  H2  EPW O   H1  H2  EPW O   H1  H2  EPW O   H1  H2  EPW O   H1  H2  EPW O   
H1  H2  EPW O   H1  H2  EPW O   H1  H2  EPW O   H1  H2  EPW O   H1  H2  EPW O   
H1  H2  EPW O   H1  H2  EPW O   H1  H2  EPW O   H1  H2  EPW O   H1  H2  EPW O   
H1  H2  EPW O   H1  H2  EPW O   H1  H2  EPW O   H1  H2  EPW O   H1  H2  EPW O   
H1  H2  EPW O   H1  H2  EPW O   H1  H2  EPW O   H1  H2  EPW O   H1  H2  EPW O   
H1  H2  EPW O   H1  H2  EPW O   H1  H2  EPW O   H1  H2  EPW O   H1  H2  EPW O   
H1  H2  EPW O   H1  H2  EPW O   H1  H2  EPW O   H1  H2  EPW O   H1  H2  EPW O   
H1  H2  EPW O   H1  H2  EPW O   H1  H2  EPW O   H1  H2  EPW O   H1  H2  EPW O   
H1  H2  EPW O   H1  H2  EPW O   H1  H2  EPW O   H1  H2  EPW O   H1  H2  EPW O   
H1  H2  EPW O   H1  H2  EPW O   H1  H2  EPW O   H1  H2  EPW O   H1  H2  EPW O   
H1  H2  EPW O   H1  H2  EPW O   H1  H2  EPW O   H1  H2  EPW O   H1  H2  EPW O   
H1  H2  EPW O   H1  H2  EPW O   H1  H2  EPW O   H1  H2  EPW O   H1  H2  EPW O   
H1  H2  EPW O   H1  H2  EPW O   H1  H2  EPW O   H1  H2  EPW O   H1  H2  EPW O   
H1  H2  EPW O   H1  H2  EPW O   H1  H2  EPW O   H1  H2  EPW O   H1  H2  EPW O   
H1  H2  EPW O   H1  H2  EPW O   H1  H2  EPW O   H1  H2  EPW O   H1  H2  EPW O   
H1  H2  EPW O   H1  H2  EPW O   H1  H2  EPW O   H1  H2  EPW O   H1  H2  EPW O   
H1  H2  EPW O   H1  H2  EPW O   H1  H2  EPW O   H1  H2  EPW O   H1  H2  EPW O   
H1  H2  EPW O   H1  H2  EPW O   H1  H2  EPW O   H1  H2  EPW O   H1  H2  EPW O   
H1  H2  EPW O   H1  H2  EPW O   H1  H2  EPW O   H1  H2  EPW O   H1  H2  EPW O   
H1  H2  EPW O   H1  H2  EPW O   H1  H2  EPW O   H1  H2  EPW O   H1  H2  EPW O   
H1  H2  EPW O   H1  H2  EPW O   H1  H2  EPW O   H1  H2  EPW O   H1  H2  EPW O   
H1  H2  EPW O   H1  H2  EPW O   H1  H2  EPW O   H1  H2  EPW O   H1  H2  EPW O   
H1  H2  EPW O   H1  H2  EPW O   H1  H2  EPW O   H1  H2  EPW O   H1  H2  EPW O   
H1  H2  EPW O   H1  H2  EPW O   H1  H2  EPW O   H1  H2  EPW O   H1  H2  EPW O   
H1  H2  EPW O   H1  H2  EPW O   H1  H2  EPW O   H1  H2  EPW O   H1  H2  EPW O   
H1  H2  EPW O   H1  H2  EPW O   H1  H2  EPW O   H1  H2  EPW O   H1  H2  EPW O   
H1  H2  EPW O   H1  H2  EPW O   H1  H2  EPW O   H1  H2  EPW O   H1  H2  EPW O   
H1  H2  EPW O   H1  H2  EPW O   H1  H2  EPW O   H1  H2  EPW O   H1  H2  EPW O   
H1  H2  EPW O   H1  H2  EPW O   H1  H2  EPW O   H1  H2  EPW O   H1  H2  EPW O   
H1  H2  EPW O   H1  H2  EPW O   H1  H2  EPW O   H1  H2  EPW O   H1  H2  EPW O   
H1  H2  EPW O   H1  H2  EPW O   H1  H2  EPW O   H1  H2  EPW O   H1  H2  EPW O   
H1  H2  EPW O   H1  H2  EPW O   H1  H2  EPW O   H1  H2  EPW O   H1  H2  EPW O   
H1  H2  EPW O   H1  H2  EPW O   H1  H2  EPW O   H1  H2  EPW O   H1  H2  EPW O   
H1  H2  EPW O   H1  H2  EPW O   H1  H2  EPW O   H1  H2  EPW O   H1  H2  EPW O   
H1  H2  EPW O   H1  H2  EPW O   H1  H2  EPW O   H1  H2  EPW O   H1  H2  EPW O   
H1  H2  EPW O   H1  H2  EPW O   H1  H2  EPW O   H1  H2  EPW O   H1  H2  EPW O   
H1  H2  EPW O   H1  H2  EPW O   H1  H2  EPW O   H1  H2  EPW O   H1  H2  EPW O   
H1  H2  EPW O   H1  H2  EPW O   H1  H2  EPW O   H1  H2  EPW O   H1  H2  EPW O   
H1  H2  EPW O   H1  H2  EPW O   H1  H2  EPW O   H1  H2  EPW O   H1  H2  EPW O   
H1  H2  EPW O   H1  H2  EPW O   H1  H2  EPW O   H1  H2  EPW O   H1  H2  EPW O   
H1  H2  EPW O   H1  H2  EPW O   H1  H2  EPW O   H1  H2  EPW O   H1  H2  EPW O   
H1  H2  EPW O   H1  H2  EPW O   H1  H2  EPW O   H1  H2  EPW O   H1  H2  EPW O   
H1  H2  EPW O   H1  H2  EPW O   H1  H2  EPW O   H1  H2  EPW O   H1  H2  EPW O   
H1  H2  EPW O   H1  H2  EPW O   H1  H2  EPW O   H1  H2  EPW O   H1  H2  EPW O   
H1  H2  EPW O   H1  H2  EPW O   H1  H2  EPW O   H1  H2  EPW O   H1  H2  EPW O   
H1  H2  EPW O   H1  H2  EPW O   H1  H2  EPW O   H1  H2  EPW O   H1  H2  EPW O   
H1  H2  EPW O   H1  H2  EPW O   H1  H2  EPW O   H1  H2  EPW O   H1  H2  EPW O   
H1  H2  EPW O   H1  H2  EPW O   H1  H2  EPW O   H1  H2  EPW O   H1  H2  EPW O   
H1  H2  EPW O   H1  H2  EPW O   H1  H2  EPW O   H1  H2  EPW O   H1  H2  EPW O   
H1  H2  EPW O   H1  H2  EPW O   H1  H2  EPW O   H1  H2  EPW O   H1  H2  EPW O   
H1  H2  EPW O   H1  H2  EPW O   H1  H2  EPW O   H1  H2  EPW O   H1  H2  EPW O   
H1  H2  EPW O   H1  H2  EPW O   H1  H2  EPW O   H1  H2  EPW O   H1  H2  EPW O   
H1  H2  EPW O   H1  H2  EPW O   H1  H2  EPW O   H1  H2  EPW O   H1  H2  EPW O   
H1  H2  EPW O   H1  H2  EPW O   H1  H2  EPW O   H1  H2  EPW O   H1  H2  EPW O   
H1  H2  EPW O   H1  H2  EPW O   H1  H2  EPW O   H1  H2  EPW O   H1  H2  EPW O   
H1  H2  EPW O   H1  H2  EPW O   H1  H2  EPW O   H1  H2  EPW O   H1  H2  EPW O   
H1  H2  EPW O   H1  H2  EPW O   H1  H2  EPW O   H1  H2  EPW O   H1  H2  EPW O   
H1  H2  EPW O   H1  H2  EPW O   H1  H2  EPW O   H1  H2  EPW O   H1  H2  EPW O   
H1  H2  EPW O   H1  H2  EPW O   H1  H2  EPW O   H1  H2  EPW O   H1  H2  EPW O   
H1  H2  EPW O   H1  H2  EPW O   H1  H2  EPW O   H1  H2  EPW O   H1  H2  EPW O   
H1  H2  EPW O   H1  H2  EPW O   H1  H2  EPW O   H1  H2  EPW O   H1  H2  EPW O   
H1  H2  EPW O   H1  H2  EPW O   H1  H2  EPW O   H1  H2  EPW O   H1  H2  EPW O   
H1  H2  EPW O   H1  H2  EPW O   H1  H2  EPW O   H1  H2  EPW O   H1  H2  EPW O   
H1  H2  EPW O   H1  H2  EPW O   H1  H2  EPW O   H1  H2  EPW O   H1  H2  EPW O   
H1  H2  EPW O   H1  H2  EPW O   H1  H2  EPW O   H1  H2  EPW O   H1  H2  EPW O   
H1  H2  EPW O   H1  H2  EPW O   H1  H2  EPW O   H1  H2  EPW O   H1  H2  EPW O   
H1  H2  EPW O   H1  H2  EPW O   H1  H2  EPW O   H1  H2  EPW O   H1  H2  EPW O   
H1  H2  EPW O   H1  H2  EPW O   H1  H2  EPW O   H1  H2  EPW O   H1  H2  EPW O   
H1  H2  EPW O   H1  H2  EPW O   H1  H2  EPW O   H1  H2  EPW O   H1  H2  EPW O   
H1  H2  EPW O   H1  H2  EPW O   H1  H2  EPW O   H1  H2  EPW O   H1  H2  EPW O   
H1  H2  EPW O   H1  H2  EPW O   H1  H2  EPW O   H1  H2  EPW O   H1  H2  EPW O   
H1  H2  EPW O   H1  H2  EPW O   H1  H2  EPW O   H1  H2  EPW O   H1  H2  EPW O   
H1  H2  EPW O   H1  H2  EPW O   H1  H2  EPW O   H1  H2  EPW O   H1  H2  EPW O   
H1  H2  EPW O   H1  H2  EPW O   H1  H2  EPW O   H1  H2  EPW O   H1  H2  EPW O   
H1  H2  EPW O   H1  H2  EPW O   H1  H2  EPW O   H1  H2  EPW O   H1  H2  EPW O   
H1  H2  EPW O   H1  H2  EPW O   H1  H2  EPW O   H1  H2  EPW O   H1  H2  EPW O   
H1  H2  EPW O   H1  H2  EPW O   H1  H2  EPW O   H1  H2  EPW O   H1  H2  EPW O   
H1  H2  EPW O   H1  H2  EPW O   H1  H2  EPW O   H1  H2  EPW O   H1  H2  EPW O   
H1  H2  EPW O   H1  H2  EPW O   H1  H2  EPW O   H1  H2  EPW O   H1  H2  EPW O   
H1  H2  EPW O   H1  H2  EPW O   H1  H2  EPW O   H1  H2  EPW O   H1  H2  EPW O   
H1  H2  EPW O   H1  H2  EPW O   H1  H2  EPW O   H1  H2  EPW O   H1  H2  EPW O   
H1  H2  EPW O   H1  H2  EPW O   H1  H2  EPW O   H1  H2  EPW O   H1  H2  EPW O   
H1  H2  EPW O   H1  H2  EPW O   H1  H2  EPW O   H1  H2  EPW O   H1  H2  EPW O   
H1  H2  EPW O   H1  H2  EPW O   H1  H2  EPW O   H1  H2  EPW O   H1  H2  EPW O   
H1  H2  EPW O   H1  H2  EPW O   H1  H2  EPW O   H1  H2  EPW O   H1  H2  EPW O   
H1  H2  EPW O   H1  H2  EPW O   H1  H2  EPW O   H1  H2  EPW O   H1  H2  EPW O   
H1  H2  EPW O   H1  H2  EPW O   H1  H2  EPW O   H1  H2  EPW O   H1  H2  EPW O   
H1  H2  EPW O   H1  H2  EPW O   H1  H2  EPW O   H1  H2  EPW O   H1  H2  EPW O   
H1  H2  EPW O   H1  H2  EPW O   H1  H2  EPW O   H1  H2  EPW O   H1  H2  EPW O   
H1  H2  EPW O   H1  H2  EPW O   H1  H2  EPW O   H1  H2  EPW O   H1  H2  EPW O   
H1  H2  EPW O   H1  H2  EPW O   H1  H2  EPW O   H1  H2  EPW O   H1  H2  EPW O   
H1  H2  EPW O   H1  H2  EPW O   H1  H2  EPW O   H1  H2  EPW O   H1  H2  EPW O   
H1  H2  EPW O   H1  H2  EPW O   H1  H2  EPW O   H1  H2  EPW O   H1  H2  EPW O   
H1  H2  EPW O   H1  H2  EPW O   H1  H2  EPW O   H1  H2  EPW O   H1  H2  EPW O   
H1  H2  EPW O   H1  H2  EPW O   H1  H2  EPW O   H1  H2  EPW O   H1  H2  EPW O   
H1  H2  EPW O   H1  H2  EPW O   H1  H2  EPW O   H1  H2  EPW O   H1  H2  EPW O   
H1  H2  EPW O   H1  H2  EPW O   H1  H2  EPW O   H1  H2  EPW O   H1  H2  EPW O   
H1  H2  EPW O   H1  H2  EPW O   H1  H2  EPW O   H1  H2  EPW O   H1  H2  EPW O   
H1  H2  EPW O   H1  H2  EPW O   H1  H2  EPW O   H1  H2  EPW O   H1  H2  EPW O   
H1  H2  EPW O   H1  H2  EPW O   H1  H2  EPW O   H1  H2  EPW O   H1  H2  EPW O   
H1  H2  EPW O   H1  H2  EPW O   H1  H2  EPW O   H1  H2  EPW O   H1  H2  EPW O   
H1  H2  EPW O   H1  H2  EPW O   H1  H2  EPW O   H1  H2  EPW O   H1  H2  EPW O   
H1  H2  EPW O   H1  H2  EPW O   H1  H2  EPW O   H1  H2  EPW O   H1  H2  EPW O   
H1  H2  EPW O   H1  H2  EPW O   H1  H2  EPW O   H1  H2  EPW O   H1  H2  EPW O   
H1  H2  EPW O   H1  H2  EPW O   H1  H2  EPW O   H1  H2  EPW O   H1  H2  EPW O   
H1  H2  EPW O   H1  H2  EPW O   H1  H2  EPW O   H1  H2  EPW O   H1  H2  EPW O   
H1  H2  EPW O   H1  H2  EPW O   H1  H2  EPW O   H1  H2  EPW O   H1  H2  EPW O   
H1  H2  EPW O   H1  H2  EPW O   H1  H2  EPW O   H1  H2  EPW O   H1  H2  EPW O   
H1  H2  EPW O   H1  H2  EPW O   H1  H2  EPW O   H1  H2  EPW O   H1  H2  EPW O   
H1  H2  EPW O   H1  H2  EPW O   H1  H2  EPW O   H1  H2  EPW O   H1  H2  EPW O   
H1  H2  EPW O   H1  H2  EPW O   H1  H2  EPW O   H1  H2  EPW O   H1  H2  EPW O   
H1  H2  EPW O   H1  H2  EPW O   H1  H2  EPW O   H1  H2  EPW O   H1  H2  EPW O   
H1  H2  EPW O   H1  H2  EPW O   H1  H2  EPW O   H1  H2  EPW O   H1  H2  EPW O   
H1  H2  EPW O   H1  H2  EPW O   H1  H2  EPW O   H1  H2  EPW O   H1  H2  EPW O   
H1  H2  EPW O   H1  H2  EPW O   H1  H2  EPW O   H1  H2  EPW O   H1  H2  EPW O   
H1  H2  EPW O   H1  H2  EPW O   H1  H2  EPW O   H1  H2  EPW O   H1  H2  EPW O   
H1  H2  EPW O   H1  H2  EPW O   H1  H2  EPW O   H1  H2  EPW O   H1  H2  EPW O   
H1  H2  EPW O   H1  H2  EPW O   H1  H2  EPW O   H1  H2  EPW O   H1  H2  EPW O   
H1  H2  EPW O   H1  H2  EPW O   H1  H2  EPW O   H1  H2  EPW O   H1  H2  EPW O   
H1  H2  EPW O   H1  H2  EPW O   H1  H2  EPW O   H1  H2  EPW O   H1  H2  EPW O   
H1  H2  EPW O   H1  H2  EPW O   H1  H2  EPW O   H1  H2  EPW O   H1  H2  EPW O   
H1  H2  EPW O   H1  H2  EPW O   H1  H2  EPW O   H1  H2  EPW O   H1  H2  EPW O   
H1  H2  EPW O   H1  H2  EPW O   H1  H2  EPW O   H1  H2  EPW O   H1  H2  EPW O   
H1  H2  EPW O   H1  H2  EPW O   H1  H2  EPW O   H1  H2  EPW O   H1  H2  EPW O   
H1  H2  EPW O   H1  H2  EPW O   H1  H2  EPW O   H1  H2  EPW O   H1  H2  EPW O   
H1  H2  EPW O   H1  H2  EPW O   H1  H2  EPW O   H1  H2  EPW O   H1  H2  EPW O   
H1  H2  EPW O   H1  H2  EPW O   H1  H2  EPW O   H1  H2  EPW O   H1  H2  EPW O   
H1  H2  EPW O   H1  H2  EPW O   H1  H2  EPW O   H1  H2  EPW O   H1  H2  EPW O   
H1  H2  EPW O   H1  H2  EPW O   H1  H2  EPW O   H1  H2  EPW O   H1  H2  EPW O   
H1  H2  EPW O   H1  H2  EPW O   H1  H2  EPW O   H1  H2  EPW O   H1  H2  EPW O   
H1  H2  EPW O   H1  H2  EPW O   H1  H2  EPW O   H1  H2  EPW O   H1  H2  EPW O   
H1  H2  EPW O   H1  H2  EPW O   H1  H2  EPW O   H1  H2  EPW O   H1  H2  EPW O   
H1  H2  EPW O   H1  H2  EPW O   H1  H2  EPW O   H1  H2  EPW O   H1  H2  EPW O   
H1  H2  EPW O   H1  H2  EPW O   H1  H2  EPW O   H1  H2  EPW O   H1  H2  EPW O   
H1  H2  EPW O   H1  H2  EPW O   H1  H2  EPW O   H1  H2  EPW O   H1  H2  EPW O   
H1  H2  EPW O   H1  H2  EPW O   H1  H2  EPW O   H1  H2  EPW O   H1  H2  EPW O   
H1  H2  EPW O   H1  H2  EPW O   H1  H2  EPW O   H1  H2  EPW O   H1  H2  EPW O   
H1  H2  EPW O   H1  H2  EPW O   H1  H2  EPW O   H1  H2  EPW O   H1  H2  EPW O   
H1  H2  EPW O   H1  H2  EPW O   H1  H2  EPW O   H1  H2  EPW O   H1  H2  EPW O   
H1  H2  EPW O   H1  H2  EPW O   H1  H2  EPW O   H1  H2  EPW O   H1  H2  EPW O   
H1  H2  EPW O   H1  H2  EPW O   H1  H2  EPW O   H1  H2  EPW O   H1  H2  EPW O   
H1  H2  EPW O   H1  H2  EPW O   H1  H2  EPW O   H1  H2  EPW O   H1  H2  EPW O   
H1  H2  EPW O   H1  H2  EPW O   H1  H2  EPW O   H1  H2  EPW O   H1  H2  EPW O   
H1  H2  EPW O   H1  H2  EPW O   H1  H2  EPW O   H1  H2  EPW O   H1  H2  EPW O   
H1  H2  EPW O   H1  H2  EPW O   H1  H2  EPW O   H1  H2  EPW O   H1  H2  EPW O   
H1  H2  EPW O   H1  H2  EPW O   H1  H2  EPW O   H1  H2  EPW O   H1  H2  EPW O   
H1  H2  EPW O   H1  H2  EPW O   H1  H2  EPW O   H1  H2  EPW O   H1  H2  EPW O   
H1  H2  EPW O   H1  H2  EPW O   H1  H2  EPW O   H1  H2  EPW O   H1  H2  EPW O   
H1  H2  EPW O   H1  H2  EPW O   H1  H2  EPW O   H1  H2  EPW O   H1  H2  EPW O   
H1  H2  EPW O   H1  H2  EPW O   H1  H2  EPW O   H1  H2  EPW O   H1  H2  EPW O   
H1  H2  EPW O   H1  H2  EPW O   H1  H2  EPW O   H1  H2  EPW O   H1  H2  EPW O   
H1  H2  EPW O   H1  H2  EPW O   H1  H2  EPW O   H1  H2  EPW O   H1  H2  EPW O   
H1  H2  EPW O   H1  H2  EPW O   H1  H2  EPW O   H1  H2  EPW O   H1  H2  EPW O   
H1  H2  EPW O   H1  H2  EPW O   H1  H2  EPW O   H1  H2  EPW O   H1  H2  EPW O   
H1  H2  EPW O   H1  H2  EPW O   H1  H2  EPW O   H1  H2  EPW O   H1  H2  EPW O   
H1  H2  EPW O   H1  H2  EPW O   H1  H2  EPW O   H1  H2  EPW O   H1  H2  EPW O   
H1  H2  EPW O   H1  H2  EPW O   H1  H2  EPW O   H1  H2  EPW O   H1  H2  EPW O   
H1  H2  EPW O   H1  H2  EPW O   H1  H2  EPW O   H1  H2  EPW O   H1  H2  EPW O   
H1  H2  EPW O   H1  H2  EPW O   H1  H2  EPW O   H1  H2  EPW O   H1  H2  EPW O   
H1  H2  EPW O   H1  H2  EPW O   H1  H2  EPW O   H1  H2  EPW O   H1  H2  EPW O   
H1  H2  EPW O   H1  H2  EPW O   H1  H2  EPW O   H1  H2  EPW O   H1  H2  EPW O   
H1  H2  EPW O   H1  H2  EPW O   H1  H2  EPW O   H1  H2  EPW O   H1  H2  EPW O   
H1  H2  EPW O   H1  H2  EPW O   H1  H2  EPW O   H1  H2  EPW O   H1  H2  EPW O   
H1  H2  EPW O   H1  H2  EPW O   H1  H2  EPW O   H1  H2  EPW O   H1  H2  EPW O   
H1  H2  EPW O   H1  H2  EPW O   H1  H2  EPW O   H1  H2  EPW O   H1  H2  EPW O   
H1  H2  EPW O   H1  H2  EPW O   H1  H2  EPW O   H1  H2  EPW O   H1  H2  EPW O   
H1  H2  EPW O   H1  H2  EPW O   H1  H2  EPW O   H1  H2  EPW O   H1  H2  EPW O   
H1  H2  EPW O   H1  H2  EPW O   H1  H2  EPW O   H1  H2  EPW O   H1  H2  EPW O   
H1  H2  EPW O   H1  H2  EPW O   H1  H2  EPW O   H1  H2  EPW O   H1  H2  EPW O   
H1  H2  EPW O   H1  H2  EPW O   H1  H2  EPW O   H1  H2  EPW O   H1  H2  EPW O   
H1  H2  EPW O   H1  H2  EPW O   H1  H2  EPW O   H1  H2  EPW O   H1  H2  EPW O   
H1  H2  EPW O   H1  H2  EPW O   H1  H2  EPW O   H1  H2  EPW O   H1  H2  EPW O   
H1  H2  EPW O   H1  H2  EPW O   H1  H2  EPW O   H1  H2  EPW O   H1  H2  EPW O   
H1  H2  EPW O   H1  H2  EPW O   H1  H2  EPW O   H1  H2  EPW O   H1  H2  EPW O   
H1  H2  EPW O   H1  H2  EPW O   H1  H2  EPW O   H1  H2  EPW O   H1  H2  EPW O   
H1  H2  EPW O   H1  H2  EPW O   H1  H2  EPW O   H1  H2  EPW O   H1  H2  EPW O   
H1  H2  EPW O   H1  H2  EPW O   H1  H2  EPW O   H1  H2  EPW O   H1  H2  EPW O   
H1  H2  EPW O   H1  H2  EPW O   H1  H2  EPW O   H1  H2  EPW O   H1  H2  EPW O   
H1  H2  EPW O   H1  H2  EPW O   H1  H2  EPW O   H1  H2  EPW O   H1  H2  EPW O   
H1  H2  EPW O   H1  H2  EPW O   H1  H2  EPW O   H1  H2  EPW O   H1  H2  EPW O   
H1  H2  EPW O   H1  H2  EPW O   H1  H2  EPW O   H1  H2  EPW O   H1  H2  EPW O   
H1  H2  EPW O   H1  H2  EPW O   H1  H2  EPW O   H1  H2  EPW O   H1  H2  EPW O   
H1  H2  EPW O   H1  H2  EPW O   H1  H2  EPW O   H1  H2  EPW O   H1  H2  EPW O   
H1  H2  EPW O   H1  H2  EPW O   H1  H2  EPW O   H1  H2  EPW O   H1  H2  EPW O   
H1  H2  EPW O   H1  H2  EPW O   H1  H2  EPW O   H1  H2  EPW O   H1  H2  EPW O   
H1  H2  EPW O   H1  H2  EPW O   H1  H2  EPW O   H1  H2  EPW O   H1  H2  EPW O   
H1  H2  EPW O   H1  H2  EPW O   H1  H2  EPW O   H1  H2  EPW O   H1  H2  EPW O   
H1  H2  EPW O   H1  H2  EPW O   H1  H2  EPW O   H1  H2  EPW O   H1  H2  EPW O   
H1  H2  EPW O   H1  H2  EPW O   H1  H2  EPW O   H1  H2  EPW O   H1  H2  EPW O   
H1  H2  EPW O   H1  H2  EPW O   H1  H2  EPW O   H1  H2  EPW O   H1  H2  EPW O   
H1  H2  EPW O   H1  H2  EPW O   H1  H2  EPW O   H1  H2  EPW O   H1  H2  EPW O   
H1  H2  EPW O   H1  H2  EPW O   H1  H2  EPW O   H1  H2  EPW O   H1  H2  EPW O   
H1  H2  EPW O   H1  H2  EPW O   H1  H2  EPW O   H1  H2  EPW O   H1  H2  EPW O   
H1  H2  EPW O   H1  H2  EPW O   H1  H2  EPW O   H1  H2  EPW O   H1  H2  EPW O   
H1  H2  EPW O   H1  H2  EPW O   H1  H2  EPW O   H1  H2  EPW O   H1  H2  EPW O   
H1  H2  EPW O   H1  H2  EPW O   H1  H2  EPW O   H1  H2  EPW O   H1  H2  EPW O   
H1  H2  EPW O   H1  H2  EPW O   H1  H2  EPW O   H1  H2  EPW O   H1  H2  EPW O   
H1  H2  EPW O   H1  H2  EPW O   H1  H2  EPW O   H1  H2  EPW O   H1  H2  EPW O   
H1  H2  EPW O   H1  H2  EPW O   H1  H2  EPW O   H1  H2  EPW O   H1  H2  EPW O   
H1  H2  EPW O   H1  H2  EPW O   H1  H2  EPW O   H1  H2  EPW O   H1  H2  EPW O   
H1  H2  EPW O   H1  H2  EPW O   H1  H2  EPW O   H1  H2  EPW O   H1  H2  EPW O   
H1  H2  EPW O   H1  H2  EPW O   H1  H2  EPW O   H1  H2  EPW O   H1  H2  EPW O   
H1  H2  EPW O   H1  H2  EPW O   H1  H2  EPW O   H1  H2  EPW O   H1  H2  EPW O   
H1  H2  EPW O   H1  H2  EPW O   H1  H2  EPW O   H1  H2  EPW O   H1  H2  EPW O   
H1  H2  EPW O   H1  H2  EPW O   H1  H2  EPW O   H1  H2  EPW O   H1  H2  EPW O   
H1  H2  EPW O   H1  H2  EPW O   H1  H2  EPW O   H1  H2  EPW O   H1  H2  EPW O   
H1  H2  EPW O   H1  H2  EPW O   H1  H2  EPW O   H1  H2  EPW O   H1  H2  EPW O   
H1  H2  EPW O   H1  H2  EPW O   H1  H2  EPW O   H1  H2  EPW O   H1  H2  EPW O   
H1  H2  EPW O   H1  H2  EPW O   H1  H2  EPW O   H1  H2  EPW O   H1  H2  EPW O   
H1  H2  EPW O   H1  H2  EPW O   H1  H2  EPW O   H1  H2  EPW O   H1  H2  EPW O   
H1  H2  EPW O   H1  H2  EPW O   H1  H2  EPW O   H1  H2  EPW O   H1  H2  EPW O   
H1  H2  EPW O   H1  H2  EPW O   H1  H2  EPW O   H1  H2  EPW O   H1  H2  EPW O   
H1  H2  EPW O   H1  H2  EPW O   H1  H2  EPW O   H1  H2  EPW O   H1  H2  EPW O   
H1  H2  EPW O   H1  H2  EPW O   H1  H2  EPW O   H1  H2  EPW O   H1  H2  EPW O   
H1  H2  EPW O   H1  H2  EPW O   H1  H2  EPW O   H1  H2  EPW O   H1  H2  EPW O   
H1  H2  EPW O   H1  H2  EPW O   H1  H2  EPW O   H1  H2  EPW O   H1  H2  EPW O   
H1  H2  EPW O   H1  H2  EPW O   H1  H2  EPW O   H1  H2  EPW O   H1  H2  EPW O   
H1  H2  EPW O   H1  H2  EPW O   H1  H2  EPW O   H1  H2  EPW O   H1  H2  EPW O   
H1  H2  EPW O   H1  H2  EPW O   H1  H2  EPW O   H1  H2  EPW O   H1  H2  EPW O   
H1  H2  EPW O   H1  H2  EPW O   H1  H2  EPW O   H1  H2  EPW O   H1  H2  EPW O   
H1  H2  EPW O   H1  H2  EPW O   H1  H2  EPW O   H1  H2  EPW O   H1  H2  EPW O   
H1  H2  EPW O   H1  H2  EPW O   H1  H2  EPW O   H1  H2  EPW O   H1  H2  EPW O   
H1  H2  EPW O   H1  H2  EPW O   H1  H2  EPW O   H1  H2  EPW O   H1  H2  EPW O   
H1  H2  EPW O   H1  H2  EPW O   H1  H2  EPW O   H1  H2  EPW O   H1  H2  EPW O   
H1  H2  EPW O   H1  H2  EPW O   H1  H2  EPW O   H1  H2  EPW O   H1  H2  EPW O   
H1  H2  EPW O   H1  H2  EPW O   H1  H2  EPW O   H1  H2  EPW O   H1  H2  EPW O   
H1  H2  EPW O   H1  H2  EPW O   H1  H2  EPW O   H1  H2  EPW O   H1  H2  EPW O   
H1  H2  EPW O   H1  H2  EPW O   H1  H2  EPW O   H1  H2  EPW O   H1  H2  EPW O   
H1  H2  EPW O   H1  H2  EPW O   H1  H2  EPW O   H1  H2  EPW O   H1  H2  EPW O   
H1  H2  EPW O   H1  H2  EPW O   H1  H2  EPW O   H1  H2  EPW O   H1  H2  EPW O   
H1  H2  EPW O   H1  H2  EPW O   H1  H2  EPW O   H1  H2  EPW O   H1  H2  EPW O   
H1  H2  EPW O   H1  H2  EPW O   H1  H2  EPW O   H1  H2  EPW O   H1  H2  EPW O   
H1  H2  EPW O   H1  H2  EPW O   H1  H2  EPW O   H1  H2  EPW O   H1  H2  EPW O   
H1  H2  EPW O   H1  H2  EPW O   H1  H2  EPW O   H1  H2  EPW O   H1  H2  EPW O   
H1  H2  EPW O   H1  H2  EPW O   H1  H2  EPW O   H1  H2  EPW O   H1  H2  EPW O   
H1  H2  EPW O   H1  H2  EPW O   H1  H2  EPW O   H1  H2  EPW O   H1  H2  EPW O   
H1  H2  EPW O   H1  H2  EPW O   H1  H2  EPW O   H1  H2  EPW O   H1  H2  EPW O   
H1  H2  EPW O   H1  H2  EPW O   H1  H2  EPW O   H1  H2  EPW O   H1  H2  EPW O   
H1  H2  EPW O   H1  H2  EPW O   H1  H2  EPW O   H1  H2  EPW O   H1  H2  EPW O   
H1  H2  EPW O   H1  H2  EPW O   H1  H2  EPW O   H1  H2  EPW O   H1  H2  EPW O   
H1  H2  EPW O   H1  H2  EPW O   H1  H2  EPW O   H1  H2  EPW O   H1  H2  EPW O   
H1  H2  EPW O   H1  H2  EPW O   H1  H2  EPW O   H1  H2  EPW O   H1  H2  EPW O   
H1  H2  EPW O   H1  H2  EPW O   H1  H2  EPW O   H1  H2  EPW O   H1  H2  EPW O   
H1  H2  EPW O   H1  H2  EPW O   H1  H2  EPW O   H1  H2  EPW O   H1  H2  EPW O   
H1  H2  EPW O   H1  H2  EPW O   H1  H2  EPW O   H1  H2  EPW O   H1  H2  EPW O   
H1  H2  EPW O   H1  H2  EPW O   H1  H2  EPW O   H1  H2  EPW O   H1  H2  EPW O   
H1  H2  EPW O   H1  H2  EPW O   H1  H2  EPW O   H1  H2  EPW O   H1  H2  EPW O   
H1  H2  EPW O   H1  H2  EPW O   H1  H2  EPW O   H1  H2  EPW O   H1  H2  EPW O   
H1  H2  EPW O   H1  H2  EPW O   H1  H2  EPW O   H1  H2  EPW O   H1  H2  EPW O   
H1  H2  EPW O   H1  H2  EPW O   H1  H2  EPW O   H1  H2  EPW O   H1  H2  EPW O   
H1  H2  EPW O   H1  H2  EPW O   H1  H2  EPW O   H1  H2  EPW O   H1  H2  EPW O   
H1  H2  EPW O   H1  H2  EPW O   H1  H2  EPW O   H1  H2  EPW O   H1  H2  EPW O   
H1  H2  EPW O   H1  H2  EPW O   H1  H2  EPW O   H1  H2  EPW O   H1  H2  EPW O   
H1  H2  EPW O   H1  H2  EPW O   H1  H2  EPW O   H1  H2  EPW O   H1  H2  EPW O   
H1  H2  EPW O   H1  H2  EPW O   H1  H2  EPW O   H1  H2  EPW O   H1  H2  EPW O   
H1  H2  EPW O   H1  H2  EPW O   H1  H2  EPW O   H1  H2  EPW O   H1  H2  EPW O   
H1  H2  EPW O   H1  H2  EPW O   H1  H2  EPW O   H1  H2  EPW O   H1  H2  EPW O   
H1  H2  EPW O   H1  H2  EPW O   H1  H2  EPW O   H1  H2  EPW O   H1  H2  EPW O   
H1  H2  EPW O   H1  H2  EPW O   H1  H2  EPW O   H1  H2  EPW O   H1  H2  EPW O   
H1  H2  EPW O   H1  H2  EPW O   H1  H2  EPW O   H1  H2  EPW O   H1  H2  EPW O   
H1  H2  EPW O   H1  H2  EPW O   H1  H2  EPW O   H1  H2  EPW O   H1  H2  EPW O   
H1  H2  EPW O   H1  H2  EPW O   H1  H2  EPW O   H1  H2  EPW O   H1  H2  EPW O   
H1  H2  EPW O   H1  H2  EPW O   H1  H2  EPW O   H1  H2  EPW O   H1  H2  EPW O   
H1  H2  EPW O   H1  H2  EPW O   H1  H2  EPW O   H1  H2  EPW O   H1  H2  EPW O   
H1  H2  EPW O   H1  H2  EPW O   H1  H2  EPW O   H1  H2  EPW O   H1  H2  EPW O   
H1  H2  EPW O   H1  H2  EPW O   H1  H2  EPW O   H1  H2  EPW O   H1  H2  EPW O   
H1  H2  EPW O   H1  H2  EPW O   H1  H2  EPW O   H1  H2  EPW O   H1  H2  EPW O   
H1  H2  EPW O   H1  H2  EPW O   H1  H2  EPW O   H1  H2  EPW O   H1  H2  EPW O   
H1  H2  EPW O   H1  H2  EPW O   H1  H2  EPW O   H1  H2  EPW O   H1  H2  EPW O   
H1  H2  EPW O   H1  H2  EPW O   H1  H2  EPW O   H1  H2  EPW O   H1  H2  EPW O   
H1  H2  EPW O   H1  H2  EPW O   H1  H2  EPW O   H1  H2  EPW O   H1  H2  EPW O   
H1  H2  EPW O   H1  H2  EPW O   H1  H2  EPW O   H1  H2  EPW O   H1  H2  EPW O   
H1  H2  EPW O   H1  H2  EPW O   H1  H2  EPW O   H1  H2  EPW O   H1  H2  EPW O   
H1  H2  EPW O   H1  H2  EPW O   H1  H2  EPW O   H1  H2  EPW O   H1  H2  EPW O   
H1  H2  EPW O   H1  H2  EPW O   H1  H2  EPW O   H1  H2  EPW O   H1  H2  EPW O   
H1  H2  EPW O   H1  H2  EPW O   H1  H2  EPW O   H1  H2  EPW O   H1  H2  EPW O   
H1  H2  EPW O   H1  H2  EPW O   H1  H2  EPW O   H1  H2  EPW O   H1  H2  EPW O   
H1  H2  EPW O   H1  H2  EPW O   H1  H2  EPW O   H1  H2  EPW O   H1  H2  EPW O   
H1  H2  EPW O   H1  H2  EPW O   H1  H2  EPW O   H1  H2  EPW O   H1  H2  EPW O   
H1  H2  EPW O   H1  H2  EPW O   H1  H2  EPW O   H1  H2  EPW O   H1  H2  EPW O   
H1  H2  EPW O   H1  H2  EPW O   H1  H2  EPW O   H1  H2  EPW O   H1  H2  EPW O   
H1  H2  EPW O   H1  H2  EPW O   H1  H2  EPW O   H1  H2  EPW O   H1  H2  EPW O   
H1  H2  EPW O   H1  H2  EPW O   H1  H2  EPW O   H1  H2  EPW O   H1  H2  EPW O   
H1  H2  EPW O   H1  H2  EPW O   H1  H2  EPW O   H1  H2  EPW O   H1  H2  EPW O   
H1  H2  EPW O   H1  H2  EPW O   H1  H2  EPW O   H1  H2  EPW O   H1  H2  EPW O   
H1  H2  EPW O   H1  H2  EPW O   H1  H2  EPW O   H1  H2  EPW O   H1  H2  EPW O   
H1  H2  EPW O   H1  H2  EPW O   H1  H2  EPW O   H1  H2  EPW O   H1  H2  EPW O   
H1  H2  EPW O   H1  H2  EPW O   H1  H2  EPW O   H1  H2  EPW O   H1  H2  EPW O   
H1  H2  EPW O   H1  H2  EPW O   H1  H2  EPW O   H1  H2  EPW O   H1  H2  EPW O   
H1  H2  EPW O   H1  H2  EPW O   H1  H2  EPW O   H1  H2  EPW O   H1  H2  EPW O   
H1  H2  EPW O   H1  H2  EPW O   H1  H2  EPW O   H1  H2  EPW O   H1  H2  EPW O   
H1  H2  EPW O   H1  H2  EPW O   H1  H2  EPW O   H1  H2  EPW O   H1  H2  EPW O   
H1  H2  EPW O   H1  H2  EPW O   H1  H2  EPW O   H1  H2  EPW O   H1  H2  EPW O   
H1  H2  EPW O   H1  H2  EPW O   H1  H2  EPW O   H1  H2  EPW O   H1  H2  EPW O   
H1  H2  EPW O   H1  H2  EPW O   H1  H2  EPW O   H1  H2  EPW O   H1  H2  EPW O   
H1  H2  EPW O   H1  H2  EPW O   H1  H2  EPW O   H1  H2  EPW O   H1  H2  EPW O   
H1  H2  EPW O   H1  H2  EPW O   H1  H2  EPW O   H1  H2  EPW O   H1  H2  EPW O   
H1  H2  EPW O   H1  H2  EPW O   H1  H2  EPW O   H1  H2  EPW O   H1  H2  EPW O   
H1  H2  EPW O   H1  H2  EPW O   H1  H2  EPW O   H1  H2  EPW O   H1  H2  EPW O   
H1  H2  EPW O   H1  H2  EPW O   H1  H2  EPW O   H1  H2  EPW O   H1  H2  EPW O   
H1  H2  EPW O   H1  H2  EPW O   H1  H2  EPW O   H1  H2  EPW O   H1  H2  EPW O   
H1  H2  EPW O   H1  H2  EPW O   H1  H2  EPW O   H1  H2  EPW O   H1  H2  EPW O   
H1  H2  EPW O   H1  H2  EPW O   H1  H2  EPW O   H1  H2  EPW O   H1  H2  EPW O   
H1  H2  EPW O   H1  H2  EPW O   H1  H2  EPW O   H1  H2  EPW O   H1  H2  EPW O   
H1  H2  EPW O   H1  H2  EPW O   H1  H2  EPW O   H1  H2  EPW O   H1  H2  EPW O   
H1  H2  EPW O   H1  H2  EPW O   H1  H2  EPW O   H1  H2  EPW O   H1  H2  EPW O   
H1  H2  EPW O   H1  H2  EPW O   H1  H2  EPW O   H1  H2  EPW O   H1  H2  EPW O   
H1  H2  EPW O   H1  H2  EPW O   H1  H2  EPW O   H1  H2  EPW O   H1  H2  EPW O   
H1  H2  EPW O   H1  H2  EPW O   H1  H2  EPW O   H1  H2  EPW O   H1  H2  EPW O   
H1  H2  EPW O   H1  H2  EPW O   H1  H2  EPW O   H1  H2  EPW O   H1  H2  EPW O   
H1  H2  EPW O   H1  H2  EPW O   H1  H2  EPW O   H1  H2  EPW O   H1  H2  EPW O   
H1  H2  EPW O   H1  H2  EPW O   H1  H2  EPW O   H1  H2  EPW O   H1  H2  EPW O   
H1  H2  EPW O   H1  H2  EPW O   H1  H2  EPW O   H1  H2  EPW O   H1  H2  EPW O   
H1  H2  EPW O   H1  H2  EPW O   H1  H2  EPW O   H1  H2  EPW O   H1  H2  EPW O   
H1  H2  EPW O   H1  H2  EPW O   H1  H2  EPW O   H1  H2  EPW O   H1  H2  EPW O   
H1  H2  EPW O   H1  H2  EPW O   H1  H2  EPW O   H1  H2  EPW O   H1  H2  EPW O   
H1  H2  EPW O   H1  H2  EPW O   H1  H2  EPW O   H1  H2  EPW O   H1  H2  EPW O   
H1  H2  EPW O   H1  H2  EPW O   H1  H2  EPW O   H1  H2  EPW O   H1  H2  EPW O   
H1  H2  EPW O   H1  H2  EPW O   H1  H2  EPW O   H1  H2  EPW O   H1  H2  EPW O   
H1  H2  EPW O   H1  H2  EPW O   H1  H2  EPW O   H1  H2  EPW O   H1  H2  EPW O   
H1  H2  EPW O   H1  H2  EPW O   H1  H2  EPW O   H1  H2  EPW O   H1  H2  EPW O   
H1  H2  EPW O   H1  H2  EPW O   H1  H2  EPW O   H1  H2  EPW O   H1  H2  EPW O   
H1  H2  EPW O   H1  H2  EPW O   H1  H2  EPW O   H1  H2  EPW O   H1  H2  EPW O   
H1  H2  EPW O   H1  H2  EPW O   H1  H2  EPW O   H1  H2  EPW O   H1  H2  EPW O   
H1  H2  EPW O   H1  H2  EPW O   H1  H2  EPW O   H1  H2  EPW O   H1  H2  EPW O   
H1  H2  EPW O   H1  H2  EPW O   H1  H2  EPW O   H1  H2  EPW O   H1  H2  EPW O   
H1  H2  EPW O   H1  H2  EPW O   H1  H2  EPW O   H1  H2  EPW O   H1  H2  EPW O   
H1  H2  EPW O   H1  H2  EPW O   H1  H2  EPW O   H1  H2  EPW O   H1  H2  EPW O   
H1  H2  EPW O   H1  H2  EPW O   H1  H2  EPW O   H1  H2  EPW O   H1  H2  EPW O   
H1  H2  EPW O   H1  H2  EPW O   H1  H2  EPW O   H1  H2  EPW O   H1  H2  EPW O   
H1  H2  EPW O   H1  H2  EPW O   H1  H2  EPW O   H1  H2  EPW O   H1  H2  EPW O   
H1  H2  EPW O   H1  H2  EPW O   H1  H2  EPW O   H1  H2  EPW O   H1  H2  EPW O   
H1  H2  EPW O   H1  H2  EPW O   H1  H2  EPW O   H1  H2  EPW O   H1  H2  EPW O   
H1  H2  EPW O   H1  H2  EPW O   H1  H2  EPW O   H1  H2  EPW O   H1  H2  EPW O   
H1  H2  EPW O   H1  H2  EPW O   H1  H2  EPW O   H1  H2  EPW O   H1  H2  EPW O   
H1  H2  EPW O   H1  H2  EPW O   H1  H2  EPW O   H1  H2  EPW O   H1  H2  EPW O   
H1  H2  EPW O   H1  H2  EPW O   H1  H2  EPW O   H1  H2  EPW O   H1  H2  EPW O   
H1  H2  EPW O   H1  H2  EPW O   H1  H2  EPW O   H1  H2  EPW O   H1  H2  EPW O   
H1  H2  EPW O   H1  H2  EPW O   H1  H2  EPW O   H1  H2  EPW O   H1  H2  EPW O   
H1  H2  EPW O   H1  H2  EPW O   H1  H2  EPW O   H1  H2  EPW O   H1  H2  EPW O   
H1  H2  EPW O   H1  H2  EPW O   H1  H2  EPW O   H1  H2  EPW O   H1  H2  EPW O   
H1  H2  EPW O   H1  H2  EPW O   H1  H2  EPW O   H1  H2  EPW O   H1  H2  EPW O   
H1  H2  EPW O   H1  H2  EPW O   H1  H2  EPW O   H1  H2  EPW O   H1  H2  EPW O   
H1  H2  EPW O   H1  H2  EPW O   H1  H2  EPW O   H1  H2  EPW O   H1  H2  EPW O   
H1  H2  EPW O   H1  H2  EPW O   H1  H2  EPW O   H1  H2  EPW O   H1  H2  EPW O   
H1  H2  EPW O   H1  H2  EPW O   H1  H2  EPW O   H1  H2  EPW O   H1  H2  EPW O   
H1  H2  EPW O   H1  H2  EPW O   H1  H2  EPW O   H1  H2  EPW O   H1  H2  EPW O   
H1  H2  EPW O   H1  H2  EPW O   H1  H2  EPW O   H1  H2  EPW O   H1  H2  EPW O   
H1  H2  EPW O   H1  H2  EPW O   H1  H2  EPW O   H1  H2  EPW O   H1  H2  EPW O   
H1  H2  EPW O   H1  H2  EPW O   H1  H2  EPW O   H1  H2  EPW O   H1  H2  EPW O   
H1  H2  EPW O   H1  H2  EPW O   H1  H2  EPW O   H1  H2  EPW O   H1  H2  EPW O   
H1  H2  EPW O   H1  H2  EPW O   H1  H2  EPW O   H1  H2  EPW O   H1  H2  EPW O   
H1  H2  EPW O   H1  H2  EPW O   H1  H2  EPW O   H1  H2  EPW O   H1  H2  EPW O   
H1  H2  EPW O   H1  H2  EPW O   H1  H2  EPW O   H1  H2  EPW O   H1  H2  EPW O   
H1  H2  EPW O   H1  H2  EPW O   H1  H2  EPW O   H1  H2  EPW O   H1  H2  EPW O   
H1  H2  EPW O   H1  H2  EPW O   H1  H2  EPW O   H1  H2  EPW O   H1  H2  EPW O   
H1  H2  EPW O   H1  H2  EPW O   H1  H2  EPW O   H1  H2  EPW O   H1  H2  EPW O   
H1  H2  EPW O   H1  H2  EPW O   H1  H2  EPW O   H1  H2  EPW O   H1  H2  EPW O   
H1  H2  EPW O   H1  H2  EPW O   H1  H2  EPW O   H1  H2  EPW O   H1  H2  EPW O   
H1  H2  EPW O   H1  H2  EPW O   H1  H2  EPW O   H1  H2  EPW O   H1  H2  EPW O   
H1  H2  EPW O   H1  H2  EPW O   H1  H2  EPW O   H1  H2  EPW O   H1  H2  EPW O   
H1  H2  EPW O   H1  H2  EPW O   H1  H2  EPW O   H1  H2  EPW O   H1  H2  EPW O   
H1  H2  EPW O   H1  H2  EPW O   H1  H2  EPW O   H1  H2  EPW O   H1  H2  EPW O   
H1  H2  EPW O   H1  H2  EPW O   H1  H2  EPW O   H1  H2  EPW O   H1  H2  EPW O   
H1  H2  EPW O   H1  H2  EPW O   H1  H2  EPW O   H1  H2  EPW O   H1  H2  EPW O   
H1  H2  EPW O   H1  H2  EPW O   H1  H2  EPW O   H1  H2  EPW O   H1  H2  EPW O   
H1  H2  EPW O   H1  H2  EPW O   H1  H2  EPW O   H1  H2  EPW O   H1  H2  EPW O   
H1  H2  EPW O   H1  H2  EPW O   H1  H2  EPW O   H1  H2  EPW O   H1  H2  EPW O   
H1  H2  EPW O   H1  H2  EPW O   H1  H2  EPW O   H1  H2  EPW O   H1  H2  EPW O   
H1  H2  EPW O   H1  H2  EPW O   H1  H2  EPW O   H1  H2  EPW O   H1  H2  EPW O   
H1  H2  EPW O   H1  H2  EPW O   H1  H2  EPW O   H1  H2  EPW O   H1  H2  EPW O   
H1  H2  EPW O   H1  H2  EPW O   H1  H2  EPW O   H1  H2  EPW O   H1  H2  EPW O   
H1  H2  EPW O   H1  H2  EPW O   H1  H2  EPW O   H1  H2  EPW O   H1  H2  EPW O   
H1  H2  EPW O   H1  H2  EPW O   H1  H2  EPW O   H1  H2  EPW O   H1  H2  EPW O   
H1  H2  EPW O   H1  H2  EPW O   H1  H2  EPW O   H1  H2  EPW O   H1  H2  EPW O   
H1  H2  EPW O   H1  H2  EPW O   H1  H2  EPW O   H1  H2  EPW O   H1  H2  EPW O   
H1  H2  EPW O   H1  H2  EPW O   H1  H2  EPW O   H1  H2  EPW O   H1  H2  EPW O   
H1  H2  EPW O   H1  H2  EPW O   H1  H2  EPW O   H1  H2  EPW O   H1  H2  EPW O   
H1  H2  EPW O   H1  H2  EPW O   H1  H2  EPW O   H1  H2  EPW O   H1  H2  EPW O   
H1  H2  EPW O   H1  H2  EPW O   H1  H2  EPW O   H1  H2  EPW O   H1  H2  EPW O   
H1  H2  EPW O   H1  H2  EPW O   H1  H2  EPW O   H1  H2  EPW O   H1  H2  EPW O   
H1  H2  EPW O   H1  H2  EPW O   H1  H2  EPW O   H1  H2  EPW O   H1  H2  EPW O   
H1  H2  EPW O   H1  H2  EPW O   H1  H2  EPW O   H1  H2  EPW O   H1  H2  EPW O   
H1  H2  EPW O   H1  H2  EPW O   H1  H2  EPW O   H1  H2  EPW O   H1  H2  EPW O   
H1  H2  EPW O   H1  H2  EPW O   H1  H2  EPW O   H1  H2  EPW O   H1  H2  EPW O   
H1  H2  EPW O   H1  H2  EPW O   H1  H2  EPW O   H1  H2  EPW O   H1  H2  EPW O   
H1  H2  EPW O   H1  H2  EPW O   H1  H2  EPW O   H1  H2  EPW O   H1  H2  EPW O   
H1  H2  EPW O   H1  H2  EPW O   H1  H2  EPW O   H1  H2  EPW O   H1  H2  EPW O   
H1  H2  EPW O   H1  H2  EPW O   H1  H2  EPW O   H1  H2  EPW O   H1  H2  EPW O   
H1  H2  EPW O   H1  H2  EPW O   H1  H2  EPW O   H1  H2  EPW O   H1  H2  EPW O   
H1  H2  EPW O   H1  H2  EPW O   H1  H2  EPW O   H1  H2  EPW O   H1  H2  EPW O   
H1  H2  EPW O   H1  H2  EPW O   H1  H2  EPW O   H1  H2  EPW O   H1  H2  EPW O   
H1  H2  EPW O   H1  H2  EPW O   H1  H2  EPW O   H1  H2  EPW O   H1  H2  EPW O   
H1  H2  EPW O   H1  H2  EPW O   H1  H2  EPW O   H1  H2  EPW O   H1  H2  EPW O   
H1  H2  EPW O   H1  H2  EPW O   H1  H2  EPW O   H1  H2  EPW O   H1  H2  EPW O   
H1  H2  EPW O   H1  H2  EPW O   H1  H2  EPW O   H1  H2  EPW O   H1  H2  EPW O   
H1  H2  EPW O   H1  H2  EPW O   H1  H2  EPW O   H1  H2  EPW O   H1  H2  EPW O   
H1  H2  EPW O   H1  H2  EPW O   H1  H2  EPW O   H1  H2  EPW O   H1  H2  EPW O   
H1  H2  EPW O   H1  H2  EPW O   H1  H2  EPW O   H1  H2  EPW O   H1  H2  EPW O   
H1  H2  EPW O   H1  H2  EPW O   H1  H2  EPW O   H1  H2  EPW O   H1  H2  EPW O   
H1  H2  EPW O   H1  H2  EPW O   H1  H2  EPW O   H1  H2  EPW O   H1  H2  EPW O   
H1  H2  EPW O   H1  H2  EPW O   H1  H2  EPW O   H1  H2  EPW O   H1  H2  EPW O   
H1  H2  EPW O   H1  H2  EPW O   H1  H2  EPW O   H1  H2  EPW O   H1  H2  EPW O   
H1  H2  EPW O   H1  H2  EPW O   H1  H2  EPW O   H1  H2  EPW O   H1  H2  EPW O   
H1  H2  EPW O   H1  H2  EPW O   H1  H2  EPW O   H1  H2  EPW O   H1  H2  EPW O   
H1  H2  EPW O   H1  H2  EPW O   H1  H2  EPW O   H1  H2  EPW O   H1  H2  EPW O   
H1  H2  EPW O   H1  H2  EPW O   H1  H2  EPW O   H1  H2  EPW O   H1  H2  EPW O   
H1  H2  EPW O   H1  H2  EPW O   H1  H2  EPW O   H1  H2  EPW O   H1  H2  EPW O   
H1  H2  EPW O   H1  H2  EPW O   H1  H2  EPW O   H1  H2  EPW O   H1  H2  EPW O   
H1  H2  EPW O   H1  H2  EPW O   H1  H2  EPW O   H1  H2  EPW O   H1  H2  EPW O   
H1  H2  EPW O   H1  H2  EPW O   H1  H2  EPW O   H1  H2  EPW O   H1  H2  EPW O   
H1  H2  EPW O   H1  H2  EPW O   H1  H2  EPW O   H1  H2  EPW O   H1  H2  EPW O   
H1  H2  EPW O   H1  H2  EPW O   H1  H2  EPW O   H1  H2  EPW O   H1  H2  EPW O   
H1  H2  EPW O   H1  H2  EPW O   H1  H2  EPW O   H1  H2  EPW O   H1  H2  EPW O   
H1  H2  EPW O   H1  H2  EPW O   H1  H2  EPW O   H1  H2  EPW O   H1  H2  EPW O   
H1  H2  EPW O   H1  H2  EPW O   H1  H2  EPW O   H1  H2  EPW O   H1  H2  EPW O   
H1  H2  EPW O   H1  H2  EPW O   H1  H2  EPW O   H1  H2  EPW O   H1  H2  EPW O   
H1  H2  EPW O   H1  H2  EPW O   H1  H2  EPW O   H1  H2  EPW O   H1  H2  EPW O   
H1  H2  EPW O   H1  H2  EPW O   H1  H2  EPW O   H1  H2  EPW O   H1  H2  EPW O   
H1  H2  EPW O   H1  H2  EPW O   H1  H2  EPW O   H1  H2  EPW O   H1  H2  EPW O   
H1  H2  EPW O   H1  H2  EPW O   H1  H2  EPW O   H1  H2  EPW O   H1  H2  EPW O   
H1  H2  EPW O   H1  H2  EPW O   H1  H2  EPW O   H1  H2  EPW O   H1  H2  EPW O   
H1  H2  EPW O   H1  H2  EPW O   H1  H2  EPW O   H1  H2  EPW O   H1  H2  EPW O   
H1  H2  EPW O   H1  H2  EPW O   H1  H2  EPW O   H1  H2  EPW O   H1  H2  EPW O   
H1  H2  EPW O   H1  H2  EPW O   H1  H2  EPW O   H1  H2  EPW O   H1  H2  EPW O   
H1  H2  EPW O   H1  H2  EPW O   H1  H2  EPW O   H1  H2  EPW O   H1  H2  EPW O   
H1  H2  EPW O   H1  H2  EPW O   H1  H2  EPW O   H1  H2  EPW O   H1  H2  EPW O   
H1  H2  EPW O   H1  H2  EPW O   H1  H2  EPW O   H1  H2  EPW O   H1  H2  EPW O   
H1  H2  EPW O   H1  H2  EPW O   H1  H2  EPW O   H1  H2  EPW O   H1  H2  EPW O   
H1  H2  EPW O   H1  H2  EPW O   H1  H2  EPW O   H1  H2  EPW O   H1  H2  EPW O   
H1  H2  EPW O   H1  H2  EPW O   H1  H2  EPW O   H1  H2  EPW O   H1  H2  EPW O   
H1  H2  EPW O   H1  H2  EPW O   H1  H2  EPW O   H1  H2  EPW O   H1  H2  EPW O   
H1  H2  EPW O   H1  H2  EPW O   H1  H2  EPW O   H1  H2  EPW O   H1  H2  EPW O   
H1  H2  EPW O   H1  H2  EPW O   H1  H2  EPW O   H1  H2  EPW O   H1  H2  EPW O   
H1  H2  EPW O   H1  H2  EPW O   H1  H2  EPW O   H1  H2  EPW O   H1  H2  EPW O   
H1  H2  EPW O   H1  H2  EPW O   H1  H2  EPW O   H1  H2  EPW O   H1  H2  EPW O   
H1  H2  EPW O   H1  H2  EPW O   H1  H2  EPW O   H1  H2  EPW O   H1  H2  EPW O   
H1  H2  EPW O   H1  H2  EPW O   H1  H2  EPW O   H1  H2  EPW O   H1  H2  EPW O   
H1  H2  EPW O   H1  H2  EPW O   H1  H2  EPW O   H1  H2  EPW O   H1  H2  EPW O   
H1  H2  EPW O   H1  H2  EPW O   H1  H2  EPW O   H1  H2  EPW O   H1  H2  EPW O   
H1  H2  EPW O   H1  H2  EPW O   H1  H2  EPW O   H1  H2  EPW O   H1  H2  EPW O   
H1  H2  EPW O   H1  H2  EPW O   H1  H2  EPW O   H1  H2  EPW O   H1  H2  EPW O   
H1  H2  EPW O   H1  H2  EPW O   H1  H2  EPW O   H1  H2  EPW O   H1  H2  EPW O   
H1  H2  EPW O   H1  H2  EPW O   H1  H2  EPW O   H1  H2  EPW O   H1  H2  EPW O   
H1  H2  EPW O   H1  H2  EPW O   H1  H2  EPW O   H1  H2  EPW O   H1  H2  EPW O   
H1  H2  EPW O   H1  H2  EPW O   H1  H2  EPW O   H1  H2  EPW O   H1  H2  EPW O   
H1  H2  EPW O   H1  H2  EPW O   H1  H2  EPW O   H1  H2  EPW O   H1  H2  EPW O   
H1  H2  EPW O   H1  H2  EPW O   H1  H2  EPW O   H1  H2  EPW O   H1  H2  EPW O   
H1  H2  EPW O   H1  H2  EPW O   H1  H2  EPW O   H1  H2  EPW O   H1  H2  EPW O   
H1  H2  EPW O   H1  H2  EPW O   H1  H2  EPW O   H1  H2  EPW O   H1  H2  EPW O   
H1  H2  EPW O   H1  H2  EPW O   H1  H2  EPW O   H1  H2  EPW O   H1  H2  EPW O   
H1  H2  EPW O   H1  H2  EPW O   H1  H2  EPW O   H1  H2  EPW O   H1  H2  EPW O   
H1  H2  EPW O   H1  H2  EPW O   H1  H2  EPW O   H1  H2  EPW O   H1  H2  EPW O   
H1  H2  EPW O   H1  H2  EPW O   H1  H2  EPW O   H1  H2  EPW O   H1  H2  EPW O   
H1  H2  EPW O   H1  H2  EPW O   H1  H2  EPW O   H1  H2  EPW O   H1  H2  EPW O   
H1  H2  EPW O   H1  H2  EPW O   H1  H2  EPW O   H1  H2  EPW O   H1  H2  EPW O   
H1  H2  EPW O   H1  H2  EPW O   H1  H2  EPW O   H1  H2  EPW O   H1  H2  EPW O   
H1  H2  EPW O   H1  H2  EPW O   H1  H2  EPW O   H1  H2  EPW O   H1  H2  EPW O   
H1  H2  EPW O   H1  H2  EPW O   H1  H2  EPW O   H1  H2  EPW O   H1  H2  EPW O   
H1  H2  EPW O   H1  H2  EPW O   H1  H2  EPW O   H1  H2  EPW O   H1  H2  EPW O   
H1  H2  EPW O   H1  H2  EPW O   H1  H2  EPW O   H1  H2  EPW O   H1  H2  EPW O   
H1  H2  EPW O   H1  H2  EPW O   H1  H2  EPW O   H1  H2  EPW O   H1  H2  EPW O   
H1  H2  EPW O   H1  H2  EPW O   H1  H2  EPW O   H1  H2  EPW O   H1  H2  EPW O   
H1  H2  EPW O   H1  H2  EPW O   H1  H2  EPW O   H1  H2  EPW O   H1  H2  EPW O   
H1  H2  EPW O   H1  H2  EPW O   H1  H2  EPW O   H1  H2  EPW O   H1  H2  EPW O   
H1  H2  EPW O   H1  H2  EPW O   H1  H2  EPW O   H1  H2  EPW O   H1  H2  EPW O   
H1  H2  EPW O   H1  H2  EPW O   H1  H2  EPW O   H1  H2  EPW O   H1  H2  EPW O   
H1  H2  EPW O   H1  H2  EPW O   H1  H2  EPW O   H1  H2  EPW O   H1  H2  EPW O   
H1  H2  EPW O   H1  H2  EPW O   H1  H2  EPW O   H1  H2  EPW O   H1  H2  EPW O   
H1  H2  EPW O   H1  H2  EPW O   H1  H2  EPW O   H1  H2  EPW O   H1  H2  EPW O   
H1  H2  EPW O   H1  H2  EPW O   H1  H2  EPW O   H1  H2  EPW O   H1  H2  EPW O   
H1  H2  EPW O   H1  H2  EPW O   H1  H2  EPW O   H1  H2  EPW O   H1  H2  EPW O   
H1  H2  EPW O   H1  H2  EPW O   H1  H2  EPW O   H1  H2  EPW O   H1  H2  EPW O   
H1  H2  EPW O   H1  H2  EPW O   H1  H2  EPW O   H1  H2  EPW O   H1  H2  EPW O   
H1  H2  EPW O   H1  H2  EPW O   H1  H2  EPW O   H1  H2  EPW O   H1  H2  EPW O   
H1  H2  EPW O   H1  H2  EPW O   H1  H2  EPW O   H1  H2  EPW O   H1  H2  EPW O   
H1  H2  EPW O   H1  H2  EPW O   H1  H2  EPW O   H1  H2  EPW O   H1  H2  EPW O   
H1  H2  EPW O   H1  H2  EPW O   H1  H2  EPW O   H1  H2  EPW O   H1  H2  EPW O   
H1  H2  EPW O   H1  H2  EPW O   H1  H2  EPW O   H1  H2  EPW O   H1  H2  EPW O   
H1  H2  EPW O   H1  H2  EPW O   H1  H2  EPW O   H1  H2  EPW O   H1  H2  EPW O   
H1  H2  EPW O   H1  H2  EPW O   H1  H2  EPW O   H1  H2  EPW O   H1  H2  EPW O   
H1  H2  EPW O   H1  H2  EPW O   H1  H2  EPW O   H1  H2  EPW O   H1  H2  EPW O   
H1  H2  EPW O   H1  H2  EPW O   H1  H2  EPW O   H1  H2  EPW O   H1  H2  EPW O   
H1  H2  EPW O   H1  H2  EPW O   H1  H2  EPW O   H1  H2  EPW O   H1  H2  EPW O   
H1  H2  EPW O   H1  H2  EPW O   H1  H2  EPW O   H1  H2  EPW O   H1  H2  EPW O   
H1  H2  EPW O   H1  H2  EPW O   H1  H2  EPW O   H1  H2  EPW O   H1  H2  EPW O   
H1  H2  EPW O   H1  H2  EPW O   H1  H2  EPW O   H1  H2  EPW O   H1  H2  EPW O   
H1  H2  EPW O   H1  H2  EPW O   H1  H2  EPW O   H1  H2  EPW O   H1  H2  EPW O   
H1  H2  EPW O   H1  H2  EPW O   H1  H2  EPW O   H1  H2  EPW O   H1  H2  EPW O   
H1  H2  EPW O   H1  H2  EPW O   H1  H2  EPW O   H1  H2  EPW O   H1  H2  EPW O   
H1  H2  EPW O   H1  H2  EPW O   H1  H2  EPW O   H1  H2  EPW O   H1  H2  EPW O   
H1  H2  EPW O   H1  H2  EPW O   H1  H2  EPW O   H1  H2  EPW O   H1  H2  EPW O   
H1  H2  EPW O   H1  H2  EPW O   H1  H2  EPW O   H1  H2  EPW O   H1  H2  EPW O   
H1  H2  EPW O   H1  H2  EPW O   H1  H2  EPW O   H1  H2  EPW O   H1  H2  EPW O   
H1  H2  EPW O   H1  H2  EPW O   H1  H2  EPW O   H1  H2  EPW O   H1  H2  EPW O   
H1  H2  EPW O   H1  H2  EPW O   H1  H2  EPW O   H1  H2  EPW O   H1  H2  EPW O   
H1  H2  EPW O   H1  H2  EPW O   H1  H2  EPW O   H1  H2  EPW O   H1  H2  EPW O   
H1  H2  EPW O   H1  H2  EPW O   H1  H2  EPW O   H1  H2  EPW O   H1  H2  EPW O   
H1  H2  EPW O   H1  H2  EPW O   H1  H2  EPW O   H1  H2  EPW O   H1  H2  EPW O   
H1  H2  EPW O   H1  H2  EPW O   H1  H2  EPW O   H1  H2  EPW O   H1  H2  EPW O   
H1  H2  EPW O   H1  H2  EPW O   H1  H2  EPW O   H1  H2  EPW O   H1  H2  EPW O   
H1  H2  EPW O   H1  H2  EPW O   H1  H2  EPW O   H1  H2  EPW O   H1  H2  EPW O   
H1  H2  EPW O   H1  H2  EPW O   H1  H2  EPW O   H1  H2  EPW O   H1  H2  EPW O   
H1  H2  EPW O   H1  H2  EPW O   H1  H2  EPW O   H1  H2  EPW O   H1  H2  EPW O   
H1  H2  EPW O   H1  H2  EPW O   H1  H2  EPW O   H1  H2  EPW O   H1  H2  EPW O   
H1  H2  EPW O   H1  H2  EPW O   H1  H2  EPW O   H1  H2  EPW O   H1  H2  EPW O   
H1  H2  EPW O   H1  H2  EPW O   H1  H2  EPW O   H1  H2  EPW O   H1  H2  EPW O   
H1  H2  EPW O   H1  H2  EPW O   H1  H2  EPW O   H1  H2  EPW O   H1  H2  EPW O   
H1  H2  EPW O   H1  H2  EPW O   H1  H2  EPW O   H1  H2  EPW O   H1  H2  EPW O   
H1  H2  EPW O   H1  H2  EPW O   H1  H2  EPW O   H1  H2  EPW O   H1  H2  EPW O   
H1  H2  EPW O   H1  H2  EPW O   H1  H2  EPW O   H1  H2  EPW O   H1  H2  EPW O   
H1  H2  EPW O   H1  H2  EPW O   H1  H2  EPW O   H1  H2  EPW O   H1  H2  EPW O   
H1  H2  EPW O   H1  H2  EPW O   H1  H2  EPW O   H1  H2  EPW O   H1  H2  EPW O   
H1  H2  EPW O   H1  H2  EPW O   H1  H2  EPW O   H1  H2  EPW O   H1  H2  EPW O   
H1  H2  EPW O   H1  H2  EPW O   H1  H2  EPW O   H1  H2  EPW O   H1  H2  EPW O   
H1  H2  EPW O   H1  H2  EPW O   H1  H2  EPW O   H1  H2  EPW O   H1  H2  EPW O   
H1  H2  EPW O   H1  H2  EPW O   H1  H2  EPW O   H1  H2  EPW O   H1  H2  EPW O   
H1  H2  EPW O   H1  H2  EPW O   H1  H2  EPW O   H1  H2  EPW O   H1  H2  EPW O   
H1  H2  EPW O   H1  H2  EPW O   H1  H2  EPW O   H1  H2  EPW O   H1  H2  EPW O   
H1  H2  EPW O   H1  H2  EPW O   H1  H2  EPW O   H1  H2  EPW O   H1  H2  EPW O   
H1  H2  EPW O   H1  H2  EPW O   H1  H2  EPW O   H1  H2  EPW O   H1  H2  EPW O   
H1  H2  EPW O   H1  H2  EPW O   H1  H2  EPW O   H1  H2  EPW O   H1  H2  EPW O   
H1  H2  EPW O   H1  H2  EPW O   H1  H2  EPW O   H1  H2  EPW O   H1  H2  EPW O   
H1  H2  EPW O   H1  H2  EPW O   H1  H2  EPW O   H1  H2  EPW O   H1  H2  EPW O   
H1  H2  EPW O   H1  H2  EPW O   H1  H2  EPW O   H1  H2  EPW O   H1  H2  EPW O   
H1  H2  EPW O   H1  H2  EPW O   H1  H2  EPW O   H1  H2  EPW O   H1  H2  EPW O   
H1  H2  EPW O   H1  H2  EPW O   H1  H2  EPW O   H1  H2  EPW O   H1  H2  EPW O   
H1  H2  EPW O   H1  H2  EPW O   H1  H2  EPW O   H1  H2  EPW O   H1  H2  EPW O   
H1  H2  EPW O   H1  H2  EPW O   H1  H2  EPW O   H1  H2  EPW O   H1  H2  EPW O   
H1  H2  EPW O   H1  H2  EPW O   H1  H2  EPW O   H1  H2  EPW O   H1  H2  EPW O   
H1  H2  EPW O   H1  H2  EPW O   H1  H2  EPW O   H1  H2  EPW O   H1  H2  EPW O   
H1  H2  EPW O   H1  H2  EPW O   H1  H2  EPW O   H1  H2  EPW O   H1  H2  EPW O   
H1  H2  EPW O   H1  H2  EPW O   H1  H2  EPW O   H1  H2  EPW O   H1  H2  EPW O   
H1  H2  EPW O   H1  H2  EPW O   H1  H2  EPW O   H1  H2  EPW O   H1  H2  EPW O   
H1  H2  EPW O   H1  H2  EPW O   H1  H2  EPW O   H1  H2  EPW O   H1  H2  EPW O   
H1  H2  EPW O   H1  H2  EPW O   H1  H2  EPW O   H1  H2  EPW O   H1  H2  EPW O   
H1  H2  EPW O   H1  H2  EPW O   H1  H2  EPW O   H1  H2  EPW O   H1  H2  EPW O   
H1  H2  EPW O   H1  H2  EPW O   H1  H2  EPW O   H1  H2  EPW O   H1  H2  EPW O   
H1  H2  EPW O   H1  H2  EPW O   H1  H2  EPW O   H1  H2  EPW O   H1  H2  EPW O   
H1  H2  EPW O   H1  H2  EPW O   H1  H2  EPW O   H1  H2  EPW O   H1  H2  EPW O   
H1  H2  EPW O   H1  H2  EPW O   H1  H2  EPW O   H1  H2  EPW O   H1  H2  EPW O   
H1  H2  EPW O   H1  H2  EPW O   H1  H2  EPW O   H1  H2  EPW O   H1  H2  EPW O   
H1  H2  EPW O   H1  H2  EPW O   H1  H2  EPW O   H1  H2  EPW O   H1  H2  EPW O   
H1  H2  EPW O   H1  H2  EPW O   H1  H2  EPW O   H1  H2  EPW O   H1  H2  EPW O   
H1  H2  EPW O   H1  H2  EPW O   H1  H2  EPW O   H1  H2  EPW O   H1  H2  EPW O   
H1  H2  EPW O   H1  H2  EPW O   H1  H2  EPW O   H1  H2  EPW O   H1  H2  EPW O   
H1  H2  EPW O   H1  H2  EPW O   H1  H2  EPW O   H1  H2  EPW O   H1  H2  EPW O   
H1  H2  EPW O   H1  H2  EPW O   H1  H2  EPW O   H1  H2  EPW O   H1  H2  EPW O   
H1  H2  EPW O   H1  H2  EPW O   H1  H2  EPW O   H1  H2  EPW O   H1  H2  EPW O   
H1  H2  EPW O   H1  H2  EPW O   H1  H2  EPW O   H1  H2  EPW O   H1  H2  EPW O   
H1  H2  EPW O   H1  H2  EPW O   H1  H2  EPW O   H1  H2  EPW O   H1  H2  EPW O   
H1  H2  EPW O   H1  H2  EPW O   H1  H2  EPW O   H1  H2  EPW O   H1  H2  EPW O   
H1  H2  EPW O   H1  H2  EPW O   H1  H2  EPW O   H1  H2  EPW O   H1  H2  EPW O   
H1  H2  EPW O   H1  H2  EPW O   H1  H2  EPW O   H1  H2  EPW O   H1  H2  EPW O   
H1  H2  EPW O   H1  H2  EPW O   H1  H2  EPW O   H1  H2  EPW O   H1  H2  EPW O   
H1  H2  EPW O   H1  H2  EPW O   H1  H2  EPW O   H1  H2  EPW O   H1  H2  EPW O   
H1  H2  EPW O   H1  H2  EPW O   H1  H2  EPW O   H1  H2  EPW O   H1  H2  EPW O   
H1  H2  EPW O   H1  H2  EPW O   H1  H2  EPW O   H1  H2  EPW O   H1  H2  EPW O   
H1  H2  EPW O   H1  H2  EPW O   H1  H2  EPW O   H1  H2  EPW O   H1  H2  EPW O   
H1  H2  EPW O   H1  H2  EPW O   H1  H2  EPW O   H1  H2  EPW O   H1  H2  EPW O   
H1  H2  EPW O   H1  H2  EPW O   H1  H2  EPW O   H1  H2  EPW O   H1  H2  EPW O   
H1  H2  EPW O   H1  H2  EPW O   H1  H2  EPW O   H1  H2  EPW O   H1  H2  EPW O   
H1  H2  EPW O   H1  H2  EPW O   H1  H2  EPW O   H1  H2  EPW O   H1  H2  EPW O   
H1  H2  EPW O   H1  H2  EPW O   H1  H2  EPW O   H1  H2  EPW O   H1  H2  EPW O   
H1  H2  EPW O   H1  H2  EPW O   H1  H2  EPW O   H1  H2  EPW O   H1  H2  EPW O   
H1  H2  EPW O   H1  H2  EPW O   H1  H2  EPW O   H1  H2  EPW O   H1  H2  EPW O   
H1  H2  EPW O   H1  H2  EPW O   H1  H2  EPW O   H1  H2  EPW O   H1  H2  EPW O   
H1  H2  EPW O   H1  H2  EPW O   H1  H2  EPW O   H1  H2  EPW O   H1  H2  EPW O   
H1  H2  EPW O   H1  H2  EPW O   H1  H2  EPW O   H1  H2  EPW O   H1  H2  EPW O   
H1  H2  EPW O   H1  H2  EPW O   H1  H2  EPW O   H1  H2  EPW O   H1  H2  EPW O   
H1  H2  EPW O   H1  H2  EPW O   H1  H2  EPW O   H1  H2  EPW O   H1  H2  EPW O   
H1  H2  EPW O   H1  H2  EPW O   H1  H2  EPW O   H1  H2  EPW O   H1  H2  EPW O   
H1  H2  EPW O   H1  H2  EPW O   H1  H2  EPW O   H1  H2  EPW O   H1  H2  EPW O   
H1  H2  EPW O   H1  H2  EPW O   H1  H2  EPW O   H1  H2  EPW O   H1  H2  EPW O   
H1  H2  EPW O   H1  H2  EPW O   H1  H2  EPW O   H1  H2  EPW O   H1  H2  EPW O   
H1  H2  EPW O   H1  H2  EPW O   H1  H2  EPW O   H1  H2  EPW O   H1  H2  EPW O   
H1  H2  EPW O   H1  H2  EPW O   H1  H2  EPW O   H1  H2  EPW O   H1  H2  EPW O   
H1  H2  EPW O   H1  H2  EPW O   H1  H2  EPW O   H1  H2  EPW O   H1  H2  EPW O   
H1  H2  EPW O   H1  H2  EPW O   H1  H2  EPW O   H1  H2  EPW O   H1  H2  EPW O   
H1  H2  EPW O   H1  H2  EPW O   H1  H2  EPW O   H1  H2  EPW O   H1  H2  EPW O   
H1  H2  EPW O   H1  H2  EPW O   H1  H2  EPW O   H1  H2  EPW O   H1  H2  EPW O   
H1  H2  EPW O   H1  H2  EPW O   H1  H2  EPW O   H1  H2  EPW O   H1  H2  EPW O   
H1  H2  EPW O   H1  H2  EPW O   H1  H2  EPW O   H1  H2  EPW O   H1  H2  EPW O   
H1  H2  EPW O   H1  H2  EPW O   H1  H2  EPW O   H1  H2  EPW O   H1  H2  EPW O   
H1  H2  EPW O   H1  H2  EPW O   H1  H2  EPW O   H1  H2  EPW O   H1  H2  EPW O   
H1  H2  EPW O   H1  H2  EPW O   H1  H2  EPW O   H1  H2  EPW O   H1  H2  EPW O   
H1  H2  EPW O   H1  H2  EPW O   H1  H2  EPW O   H1  H2  EPW O   H1  H2  EPW O   
H1  H2  EPW O   H1  H2  EPW O   H1  H2  EPW O   H1  H2  EPW O   H1  H2  EPW O   
H1  H2  EPW O   H1  H2  EPW O   H1  H2  EPW O   H1  H2  EPW O   H1  H2  EPW O   
H1  H2  EPW O   H1  H2  EPW O   H1  H2  EPW O   H1  H2  EPW O   H1  H2  EPW O   
H1  H2  EPW O   H1  H2  EPW O   H1  H2  EPW O   H1  H2  EPW O   H1  H2  EPW O   
H1  H2  EPW O   H1  H2  EPW O   H1  H2  EPW O   H1  H2  EPW O   H1  H2  EPW O   
H1  H2  EPW O   H1  H2  EPW O   H1  H2  EPW O   H1  H2  EPW O   H1  H2  EPW O   
H1  H2  EPW O   H1  H2  EPW O   H1  H2  EPW O   H1  H2  EPW O   H1  H2  EPW O   
H1  H2  EPW O   H1  H2  EPW O   H1  H2  EPW O   H1  H2  EPW O   H1  H2  EPW O   
H1  H2  EPW O   H1  H2  EPW O   H1  H2  EPW O   H1  H2  EPW O   H1  H2  EPW O   
H1  H2  EPW O   H1  H2  EPW O   H1  H2  EPW O   H1  H2  EPW O   H1  H2  EPW O   
H1  H2  EPW O   H1  H2  EPW O   H1  H2  EPW O   H1  H2  EPW O   H1  H2  EPW O   
H1  H2  EPW O   H1  H2  EPW O   H1  H2  EPW O   H1  H2  EPW O   H1  H2  EPW O   
H1  H2  EPW O   H1  H2  EPW O   H1  H2  EPW O   H1  H2  EPW O   H1  H2  EPW O   
H1  H2  EPW O   H1  H2  EPW O   H1  H2  EPW O   H1  H2  EPW O   H1  H2  EPW O   
H1  H2  EPW O   H1  H2  EPW O   H1  H2  EPW O   H1  H2  EPW O   H1  H2  EPW O   
H1  H2  EPW O   H1  H2  EPW O   H1  H2  EPW O   H1  H2  EPW O   H1  H2  EPW O   
H1  H2  EPW O   H1  H2  EPW O   H1  H2  EPW O   H1  H2  EPW O   H1  H2  EPW O   
H1  H2  EPW O   H1  H2  EPW O   H1  H2  EPW O   H1  H2  EPW O   H1  H2  EPW O   
H1  H2  EPW O   H1  H2  EPW O   H1  H2  EPW O   H1  H2  EPW O   H1  H2  EPW O   
H1  H2  EPW O   H1  H2  EPW O   H1  H2  EPW O   H1  H2  EPW O   H1  H2  EPW O   
H1  H2  EPW O   H1  H2  EPW O   H1  H2  EPW O   H1  H2  EPW O   H1  H2  EPW O   
H1  H2  EPW O   H1  H2  EPW O   H1  H2  EPW O   H1  H2  EPW O   H1  H2  EPW O   
H1  H2  EPW O   H1  H2  EPW O   H1  H2  EPW O   H1  H2  EPW O   H1  H2  EPW O   
H1  H2  EPW O   H1  H2  EPW O   H1  H2  EPW O   H1  H2  EPW O   H1  H2  EPW O   
H1  H2  EPW O   H1  H2  EPW O   H1  H2  EPW O   H1  H2  EPW O   H1  H2  EPW O   
H1  H2  EPW O   H1  H2  EPW O   H1  H2  EPW O   H1  H2  EPW O   H1  H2  EPW O   
H1  H2  EPW O   H1  H2  EPW O   H1  H2  EPW O   H1  H2  EPW O   H1  H2  EPW O   
H1  H2  EPW O   H1  H2  EPW O   H1  H2  EPW O   H1  H2  EPW O   H1  H2  EPW O   
H1  H2  EPW O   H1  H2  EPW O   H1  H2  EPW O   H1  H2  EPW O   H1  H2  EPW O   
H1  H2  EPW O   H1  H2  EPW O   H1  H2  EPW O   H1  H2  EPW O   H1  H2  EPW O   
H1  H2  EPW O   H1  H2  EPW O   H1  H2  EPW O   H1  H2  EPW O   H1  H2  EPW O   
H1  H2  EPW O   H1  H2  EPW O   H1  H2  EPW O   H1  H2  EPW O   H1  H2  EPW O   
H1  H2  EPW O   H1  H2  EPW O   H1  H2  EPW O   H1  H2  EPW O   H1  H2  EPW O   
H1  H2  EPW O   H1  H2  EPW O   H1  H2  EPW O   H1  H2  EPW O   H1  H2  EPW O   
H1  H2  EPW O   H1  H2  EPW O   H1  H2  EPW O   H1  H2  EPW O   H1  H2  EPW O   
H1  H2  EPW O   H1  H2  EPW O   H1  H2  EPW O   H1  H2  EPW O   H1  H2  EPW O   
H1  H2  EPW O   H1  H2  EPW O   H1  H2  EPW O   H1  H2  EPW O   H1  H2  EPW O   
H1  H2  EPW O   H1  H2  EPW O   H1  H2  EPW O   H1  H2  EPW O   H1  H2  EPW O   
H1  H2  EPW O   H1  H2  EPW O   H1  H2  EPW O   H1  H2  EPW O   H1  H2  EPW O   
H1  H2  EPW O   H1  H2  EPW O   H1  H2  EPW O   H1  H2  EPW O   H1  H2  EPW O   
H1  H2  EPW O   H1  H2  EPW O   H1  H2  EPW O   H1  H2  EPW O   H1  H2  EPW O   
H1  H2  EPW O   H1  H2  EPW O   H1  H2  EPW O   H1  H2  EPW O   H1  H2  EPW O   
H1  H2  EPW O   H1  H2  EPW O   H1  H2  EPW O   H1  H2  EPW O   H1  H2  EPW O   
H1  H2  EPW O   H1  H2  EPW O   H1  H2  EPW O   H1  H2  EPW O   H1  H2  EPW O   
H1  H2  EPW O   H1  H2  EPW O   H1  H2  EPW O   H1  H2  EPW O   H1  H2  EPW O   
H1  H2  EPW O   H1  H2  EPW O   H1  H2  EPW O   H1  H2  EPW O   H1  H2  EPW O   
H1  H2  EPW O   H1  H2  EPW O   H1  H2  EPW O   H1  H2  EPW O   H1  H2  EPW O   
H1  H2  EPW O   H1  H2  EPW O   H1  H2  EPW O   H1  H2  EPW O   H1  H2  EPW O   
H1  H2  EPW O   H1  H2  EPW O   H1  H2  EPW O   H1  H2  EPW O   H1  H2  EPW O   
H1  H2  EPW O   H1  H2  EPW O   H1  H2  EPW O   H1  H2  EPW O   H1  H2  EPW O   
H1  H2  EPW O   H1  H2  EPW O   H1  H2  EPW O   H1  H2  EPW O   H1  H2  EPW O   
H1  H2  EPW O   H1  H2  EPW O   H1  H2  EPW O   H1  H2  EPW O   H1  H2  EPW O   
H1  H2  EPW O   H1  H2  EPW O   H1  H2  EPW O   H1  H2  EPW O   H1  H2  EPW O   
H1  H2  EPW O   H1  H2  EPW O   H1  H2  EPW O   H1  H2  EPW O   H1  H2  EPW O   
H1  H2  EPW O   H1  H2  EPW O   H1  H2  EPW O   H1  H2  EPW O   H1  H2  EPW O   
H1  H2  EPW O   H1  H2  EPW O   H1  H2  EPW O   H1  H2  EPW O   H1  H2  EPW O   
H1  H2  EPW O   H1  H2  EPW O   H1  H2  EPW O   H1  H2  EPW O   H1  H2  EPW O   
H1  H2  EPW O   H1  H2  EPW O   H1  H2  EPW O   H1  H2  EPW O   H1  H2  EPW O   
H1  H2  EPW O   H1  H2  EPW O   H1  H2  EPW O   H1  H2  EPW O   H1  H2  EPW O   
H1  H2  EPW O   H1  H2  EPW O   H1  H2  EPW O   H1  H2  EPW O   H1  H2  EPW O   
H1  H2  EPW O   H1  H2  EPW O   H1  H2  EPW O   H1  H2  EPW O   H1  H2  EPW O   
H1  H2  EPW O   H1  H2  EPW O   H1  H2  EPW O   H1  H2  EPW O   H1  H2  EPW O   
H1  H2  EPW O   H1  H2  EPW O   H1  H2  EPW O   H1  H2  EPW O   H1  H2  EPW O   
H1  H2  EPW O   H1  H2  EPW O   H1  H2  EPW O   H1  H2  EPW O   H1  H2  EPW O   
H1  H2  EPW O   H1  H2  EPW O   H1  H2  EPW O   H1  H2  EPW O   H1  H2  EPW O   
H1  H2  EPW O   H1  H2  EPW O   H1  H2  EPW O   H1  H2  EPW O   H1  H2  EPW O   
H1  H2  EPW O   H1  H2  EPW O   H1  H2  EPW O   H1  H2  EPW O   H1  H2  EPW O   
H1  H2  EPW O   H1  H2  EPW O   H1  H2  EPW O   H1  H2  EPW O   H1  H2  EPW O   
H1  H2  EPW O   H1  H2  EPW O   H1  H2  EPW O   H1  H2  EPW O   H1  H2  EPW O   
H1  H2  EPW O   H1  H2  EPW O   H1  H2  EPW O   H1  H2  EPW O   H1  H2  EPW O   
H1  H2  EPW O   H1  H2  EPW O   H1  H2  EPW O   H1  H2  EPW O   H1  H2  EPW O   
H1  H2  EPW O   H1  H2  EPW O   H1  H2  EPW O   H1  H2  EPW O   H1  H2  EPW O   
H1  H2  EPW O   H1  H2  EPW O   H1  H2  EPW O   H1  H2  EPW O   H1  H2  EPW O   
H1  H2  EPW O   H1  H2  EPW O   H1  H2  EPW O   H1  H2  EPW O   H1  H2  EPW O   
H1  H2  EPW O   H1  H2  EPW O   H1  H2  EPW O   H1  H2  EPW O   H1  H2  EPW O   
H1  H2  EPW O   H1  H2  EPW O   H1  H2  EPW O   H1  H2  EPW O   H1  H2  EPW O   
H1  H2  EPW O   H1  H2  EPW O   H1  H2  EPW O   H1  H2  EPW O   H1  H2  EPW O   
H1  H2  EPW O   H1  H2  EPW O   H1  H2  EPW O   H1  H2  EPW O   H1  H2  EPW O   
H1  H2  EPW O   H1  H2  EPW O   H1  H2  EPW O   H1  H2  EPW O   H1  H2  EPW O   
H1  H2  EPW O   H1  H2  EPW O   H1  H2  EPW O   H1  H2  EPW O   H1  H2  EPW O   
H1  H2  EPW O   H1  H2  EPW O   H1  H2  EPW O   H1  H2  EPW O   H1  H2  EPW O   
H1  H2  EPW O   H1  H2  EPW O   H1  H2  EPW O   H1  H2  EPW O   H1  H2  EPW O   
H1  H2  EPW O   H1  H2  EPW O   H1  H2  EPW O   H1  H2  EPW O   H1  H2  EPW O   
H1  H2  EPW O   H1  H2  EPW O   H1  H2  EPW O   H1  H2  EPW O   H1  H2  EPW O   
H1  H2  EPW O   H1  H2  EPW O   H1  H2  EPW O   H1  H2  EPW O   H1  H2  EPW O   
H1  H2  EPW O   H1  H2  EPW O   H1  H2  EPW O   H1  H2  EPW O   H1  H2  EPW O   
H1  H2  EPW O   H1  H2  EPW O   H1  H2  EPW O   H1  H2  EPW O   H1  H2  EPW O   
H1  H2  EPW O   H1  H2  EPW O   H1  H2  EPW O   H1  H2  EPW O   H1  H2  EPW O   
H1  H2  EPW O   H1  H2  EPW O   H1  H2  EPW O   H1  H2  EPW O   H1  H2  EPW O   
H1  H2  EPW O   H1  H2  EPW O   H1  H2  EPW O   H1  H2  EPW O   H1  H2  EPW O   
H1  H2  EPW O   H1  H2  EPW O   H1  H2  EPW O   H1  H2  EPW O   H1  H2  EPW O   
H1  H2  EPW O   H1  H2  EPW O   H1  H2  EPW O   H1  H2  EPW O   H1  H2  EPW O   
H1  H2  EPW O   H1  H2  EPW O   H1  H2  EPW O   H1  H2  EPW O   H1  H2  EPW O   
H1  H2  EPW O   H1  H2  EPW O   H1  H2  EPW O   H1  H2  EPW O   H1  H2  EPW O   
H1  H2  EPW O   H1  H2  EPW O   H1  H2  EPW O   H1  H2  EPW O   H1  H2  EPW O   
H1  H2  EPW O   H1  H2  EPW O   H1  H2  EPW O   H1  H2  EPW O   H1  H2  EPW O   
H1  H2  EPW O   H1  H2  EPW O   H1  H2  EPW O   H1  H2  EPW O   H1  H2  EPW O   
H1  H2  EPW O   H1  H2  EPW O   H1  H2  EPW O   H1  H2  EPW O   H1  H2  EPW O   
H1  H2  EPW O   H1  H2  EPW O   H1  H2  EPW O   H1  H2  EPW O   H1  H2  EPW O   
H1  H2  EPW O   H1  H2  EPW O   H1  H2  EPW O   H1  H2  EPW O   H1  H2  EPW O   
H1  H2  EPW O   H1  H2  EPW O   H1  H2  EPW O   H1  H2  EPW O   H1  H2  EPW O   
H1  H2  EPW O   H1  H2  EPW O   H1  H2  EPW O   H1  H2  EPW O   H1  H2  EPW O   
H1  H2  EPW O   H1  H2  EPW O   H1  H2  EPW O   H1  H2  EPW O   H1  H2  EPW O   
H1  H2  EPW O   H1  H2  EPW O   H1  H2  EPW O   H1  H2  EPW O   H1  H2  EPW O   
H1  H2  EPW O   H1  H2  EPW O   H1  H2  EPW O   H1  H2  EPW O   H1  H2  EPW O   
H1  H2  EPW O   H1  H2  EPW O   H1  H2  EPW O   H1  H2  EPW O   H1  H2  EPW O   
H1  H2  EPW O   H1  H2  EPW O   H1  H2  EPW O   H1  H2  EPW O   H1  H2  EPW O   
H1  H2  EPW O   H1  H2  EPW O   H1  H2  EPW O   H1  H2  EPW O   H1  H2  EPW O   
H1  H2  EPW O   H1  H2  EPW O   H1  H2  EPW O   H1  H2  EPW O   H1  H2  EPW O   
H1  H2  EPW O   H1  H2  EPW O   H1  H2  EPW O   H1  H2  EPW O   H1  H2  EPW O   
H1  H2  EPW O   H1  H2  EPW O   H1  H2  EPW O   H1  H2  EPW O   H1  H2  EPW O   
H1  H2  EPW O   H1  H2  EPW O   H1  H2  EPW O   H1  H2  EPW O   H1  H2  EPW O   
H1  H2  EPW O   H1  H2  EPW O   H1  H2  EPW O   H1  H2  EPW O   H1  H2  EPW O   
H1  H2  EPW O   H1  H2  EPW O   H1  H2  EPW O   H1  H2  EPW O   H1  H2  EPW O   
H1  H2  EPW O   H1  H2  EPW O   H1  H2  EPW O   H1  H2  EPW O   H1  H2  EPW O   
H1  H2  EPW O   H1  H2  EPW O   H1  H2  EPW O   H1  H2  EPW O   H1  H2  EPW O   
H1  H2  EPW O   H1  H2  EPW O   H1  H2  EPW O   H1  H2  EPW O   H1  H2  EPW O   
H1  H2  EPW O   H1  H2  EPW O   H1  H2  EPW O   H1  H2  EPW O   H1  H2  EPW O   
H1  H2  EPW O   H1  H2  EPW O   H1  H2  EPW O   H1  H2  EPW O   H1  H2  EPW O   
H1  H2  EPW O   H1  H2  EPW O   H1  H2  EPW O   H1  H2  EPW O   H1  H2  EPW O   
H1  H2  EPW O   H1  H2  EPW O   H1  H2  EPW O   H1  H2  EPW O   H1  H2  EPW O   
H1  H2  EPW O   H1  H2  EPW O   H1  H2  EPW O   H1  H2  EPW O   H1  H2  EPW O   
H1  H2  EPW O   H1  H2  EPW O   H1  H2  EPW O   H1  H2  EPW O   H1  H2  EPW O   
H1  H2  EPW O   H1  H2  EPW O   H1  H2  EPW O   H1  H2  EPW O   H1  H2  EPW O   
H1  H2  EPW O   H1  H2  EPW O   H1  H2  EPW O   H1  H2  EPW O   H1  H2  EPW O   
H1  H2  EPW O   H1  H2  EPW O   H1  H2  EPW O   H1  H2  EPW O   H1  H2  EPW O   
H1  H2  EPW O   H1  H2  EPW O   H1  H2  EPW O   H1  H2  EPW O   H1  H2  EPW O   
H1  H2  EPW O   H1  H2  EPW O   H1  H2  EPW O   H1  H2  EPW O   H1  H2  EPW O   
H1  H2  EPW O   H1  H2  EPW O   H1  H2  EPW O   H1  H2  EPW O   H1  H2  EPW O   
H1  H2  EPW O   H1  H2  EPW O   H1  H2  EPW O   H1  H2  EPW O   H1  H2  EPW O   
H1  H2  EPW O   H1  H2  EPW O   H1  H2  EPW O   H1  H2  EPW O   H1  H2  EPW O   
H1  H2  EPW O   H1  H2  EPW O   H1  H2  EPW O   H1  H2  EPW O   H1  H2  EPW O   
H1  H2  EPW O   H1  H2  EPW O   H1  H2  EPW O   H1  H2  EPW O   H1  H2  EPW O   
H1  H2  EPW O   H1  H2  EPW O   H1  H2  EPW O   H1  H2  EPW O   H1  H2  EPW O   
H1  H2  EPW O   H1  H2  EPW O   H1  H2  EPW O   H1  H2  EPW O   H1  H2  EPW O   
H1  H2  EPW O   H1  H2  EPW O   H1  H2  EPW O   H1  H2  EPW O   H1  H2  EPW O   
H1  H2  EPW O   H1  H2  EPW O   H1  H2  EPW O   H1  H2  EPW O   H1  H2  EPW O   
H1  H2  EPW O   H1  H2  EPW O   H1  H2  EPW O   H1  H2  EPW O   H1  H2  EPW O   
H1  H2  EPW O   H1  H2  EPW O   H1  H2  EPW O   H1  H2  EPW O   H1  H2  EPW O   
H1  H2  EPW O   H1  H2  EPW O   H1  H2  EPW O   H1  H2  EPW O   H1  H2  EPW O   
H1  H2  EPW O   H1  H2  EPW O   H1  H2  EPW O   H1  H2  EPW O   H1  H2  EPW O   
H1  H2  EPW O   H1  H2  EPW O   H1  H2  EPW O   H1  H2  EPW O   H1  H2  EPW O   
H1  H2  EPW O   H1  H2  EPW O   H1  H2  EPW O   H1  H2  EPW O   H1  H2  EPW O   
H1  H2  EPW O   H1  H2  EPW O   H1  H2  EPW O   H1  H2  EPW O   H1  H2  EPW O   
H1  H2  EPW O   H1  H2  EPW O   H1  H2  EPW O   H1  H2  EPW O   H1  H2  EPW O   
H1  H2  EPW O   H1  H2  EPW O   H1  H2  EPW O   H1  H2  EPW O   H1  H2  EPW O   
H1  H2  EPW O   H1  H2  EPW O   H1  H2  EPW O   H1  H2  EPW O   H1  H2  EPW O   
H1  H2  EPW O   H1  H2  EPW O   H1  H2  EPW O   H1  H2  EPW O   H1  H2  EPW O   
H1  H2  EPW O   H1  H2  EPW O   H1  H2  EPW O   H1  H2  EPW O   H1  H2  EPW O   
H1  H2  EPW O   H1  H2  EPW O   H1  H2  EPW O   H1  H2  EPW O   H1  H2  EPW O   
H1  H2  EPW O   H1  H2  EPW O   H1  H2  EPW O   H1  H2  EPW O   H1  H2  EPW O   
H1  H2  EPW O   H1  H2  EPW O   H1  H2  EPW O   H1  H2  EPW O   H1  H2  EPW O   
H1  H2  EPW O   H1  H2  EPW O   H1  H2  EPW O   H1  H2  EPW O   H1  H2  EPW O   
H1  H2  EPW O   H1  H2  EPW O   H1  H2  EPW O   H1  H2  EPW O   H1  H2  EPW O   
H1  H2  EPW O   H1  H2  EPW O   H1  H2  EPW O   H1  H2  EPW O   H1  H2  EPW O   
H1  H2  EPW O   H1  H2  EPW O   H1  H2  EPW O   H1  H2  EPW O   H1  H2  EPW O   
H1  H2  EPW O   H1  H2  EPW O   H1  H2  EPW O   H1  H2  EPW O   H1  H2  EPW O   
H1  H2  EPW O   H1  H2  EPW O   H1  H2  EPW O   H1  H2  EPW O   H1  H2  EPW O   
H1  H2  EPW O   H1  H2  EPW O   H1  H2  EPW O   H1  H2  EPW O   H1  H2  EPW O   
H1  H2  EPW O   H1  H2  EPW O   H1  H2  EPW O   H1  H2  EPW O   H1  H2  EPW O   
H1  H2  EPW O   H1  H2  EPW O   H1  H2  EPW O   H1  H2  EPW O   H1  H2  EPW O   
H1  H2  EPW O   H1  H2  EPW O   H1  H2  EPW O   H1  H2  EPW O   H1  H2  EPW O   
H1  H2  EPW O   H1  H2  EPW O   H1  H2  EPW O   H1  H2  EPW O   H1  H2  EPW O   
H1  H2  EPW O   H1  H2  EPW O   H1  H2  EPW O   H1  H2  EPW O   H1  H2  EPW O   
H1  H2  EPW O   H1  H2  EPW O   H1  H2  EPW O   H1  H2  EPW O   H1  H2  EPW O   
H1  H2  EPW O   H1  H2  EPW O   H1  H2  EPW O   H1  H2  EPW O   H1  H2  EPW O   
H1  H2  EPW O   H1  H2  EPW O   H1  H2  EPW O   H1  H2  EPW O   H1  H2  EPW O   
H1  H2  EPW O   H1  H2  EPW O   H1  H2  EPW O   H1  H2  EPW O   H1  H2  EPW O   
H1  H2  EPW O   H1  H2  EPW O   H1  H2  EPW O   H1  H2  EPW O   H1  H2  EPW O   
H1  H2  EPW O   H1  H2  EPW O   H1  H2  EPW O   H1  H2  EPW O   H1  H2  EPW O   
H1  H2  EPW O   H1  H2  EPW O   H1  H2  EPW O   H1  H2  EPW O   H1  H2  EPW O   
H1  H2  EPW O   H1  H2  EPW O   H1  H2  EPW O   H1  H2  EPW O   H1  H2  EPW O   
H1  H2  EPW O   H1  H2  EPW O   H1  H2  EPW O   H1  H2  EPW O   H1  H2  EPW O   
H1  H2  EPW O   H1  H2  EPW O   H1  H2  EPW O   H1  H2  EPW O   H1  H2  EPW O   
H1  H2  EPW O   H1  H2  EPW O   H1  H2  EPW O   H1  H2  EPW O   H1  H2  EPW O   
H1  H2  EPW O   H1  H2  EPW O   H1  H2  EPW O   H1  H2  EPW O   H1  H2  EPW O   
H1  H2  EPW O   H1  H2  EPW O   H1  H2  EPW O   H1  H2  EPW O   H1  H2  EPW O   
H1  H2  EPW O   H1  H2  EPW O   H1  H2  EPW O   H1  H2  EPW O   H1  H2  EPW O   
H1  H2  EPW O   H1  H2  EPW O   H1  H2  EPW O   H1  H2  EPW O   H1  H2  EPW O   
H1  H2  EPW O   H1  H2  EPW O   H1  H2  EPW O   H1  H2  EPW O   H1  H2  EPW O   
H1  H2  EPW O   H1  H2  EPW O   H1  H2  EPW O   H1  H2  EPW O   H1  H2  EPW O   
H1  H2  EPW O   H1  H2  EPW O   H1  H2  EPW O   H1  H2  EPW O   H1  H2  EPW O   
H1  H2  EPW O   H1  H2  EPW O   H1  H2  EPW O   H1  H2  EPW O   H1  H2  EPW O   
H1  H2  EPW O   H1  H2  EPW O   H1  H2  EPW O   H1  H2  EPW O   H1  H2  EPW O   
H1  H2  EPW O   H1  H2  EPW O   H1  H2  EPW O   H1  H2  EPW O   H1  H2  EPW O   
H1  H2  EPW O   H1  H2  EPW O   H1  H2  EPW O   H1  H2  EPW O   H1  H2  EPW O   
H1  H2  EPW O   H1  H2  EPW O   H1  H2  EPW O   H1  H2  EPW O   H1  H2  EPW O   
H1  H2  EPW O   H1  H2  EPW O   H1  H2  EPW O   H1  H2  EPW O   H1  H2  EPW O   
H1  H2  EPW O   H1  H2  EPW O   H1  H2  EPW O   H1  H2  EPW O   H1  H2  EPW O   
H1  H2  EPW O   H1  H2  EPW O   H1  H2  EPW O   H1  H2  EPW O   H1  H2  EPW O   
H1  H2  EPW O   H1  H2  EPW O   H1  H2  EPW O   H1  H2  EPW O   H1  H2  EPW O   
H1  H2  EPW O   H1  H2  EPW O   H1  H2  EPW O   H1  H2  EPW O   H1  H2  EPW O   
H1  H2  EPW O   H1  H2  EPW O   H1  H2  EPW O   H1  H2  EPW O   H1  H2  EPW O   
H1  H2  EPW O   H1  H2  EPW O   H1  H2  EPW O   H1  H2  EPW O   H1  H2  EPW O   
H1  H2  EPW O   H1  H2  EPW O   H1  H2  EPW O   H1  H2  EPW O   H1  H2  EPW O   
H1  H2  EPW O   H1  H2  EPW O   H1  H2  EPW O   H1  H2  EPW O   H1  H2  EPW O   
H1  H2  EPW O   H1  H2  EPW O   H1  H2  EPW O   H1  H2  EPW O   H1  H2  EPW O   
H1  H2  EPW O   H1  H2  EPW O   H1  H2  EPW O   H1  H2  EPW O   H1  H2  EPW O   
H1  H2  EPW O   H1  H2  EPW O   H1  H2  EPW O   H1  H2  EPW O   H1  H2  EPW O   
H1  H2  EPW O   H1  H2  EPW O   H1  H2  EPW O   H1  H2  EPW O   H1  H2  EPW O   
H1  H2  EPW O   H1  H2  EPW O   H1  H2  EPW O   H1  H2  EPW O   H1  H2  EPW O   
H1  H2  EPW O   H1  H2  EPW O   H1  H2  EPW O   H1  H2  EPW O   H1  H2  EPW O   
H1  H2  EPW O   H1  H2  EPW O   H1  H2  EPW O   H1  H2  EPW O   H1  H2  EPW O   
H1  H2  EPW O   H1  H2  EPW O   H1  H2  EPW O   H1  H2  EPW O   H1  H2  EPW O   
H1  H2  EPW O   H1  H2  EPW O   H1  H2  EPW O   H1  H2  EPW O   H1  H2  EPW O   
H1  H2  EPW O   H1  H2  EPW O   H1  H2  EPW O   H1  H2  EPW O   H1  H2  EPW O   
H1  H2  EPW O   H1  H2  EPW O   H1  H2  EPW O   H1  H2  EPW O   H1  H2  EPW O   
H1  H2  EPW O   H1  H2  EPW O   H1  H2  EPW O   H1  H2  EPW O   H1  H2  EPW O   
H1  H2  EPW O   H1  H2  EPW O   H1  H2  EPW O   H1  H2  EPW O   H1  H2  EPW O   
H1  H2  EPW O   H1  H2  EPW O   H1  H2  EPW O   H1  H2  EPW O   H1  H2  EPW O   
H1  H2  EPW O   H1  H2  EPW O   H1  H2  EPW O   H1  H2  EPW O   H1  H2  EPW O   
H1  H2  EPW O   H1  H2  EPW O   H1  H2  EPW O   H1  H2  EPW O   H1  H2  EPW O   
H1  H2  EPW O   H1  H2  EPW O   H1  H2  EPW O   H1  H2  EPW O   H1  H2  EPW O   
H1  H2  EPW O   H1  H2  EPW O   H1  H2  EPW O   H1  H2  EPW O   H1  H2  EPW O   
H1  H2  EPW O   H1  H2  EPW O   H1  H2  EPW O   H1  H2  EPW O   H1  H2  EPW O   
H1  H2  EPW O   H1  H2  EPW O   H1  H2  EPW O   H1  H2  EPW O   H1  H2  EPW O   
H1  H2  EPW O   H1  H2  EPW O   H1  H2  EPW O   H1  H2  EPW O   H1  H2  EPW O   
H1  H2  EPW O   H1  H2  EPW O   H1  H2  EPW O   H1  H2  EPW O   H1  H2  EPW O   
H1  H2  EPW O   H1  H2  EPW O   H1  H2  EPW O   H1  H2  EPW O   H1  H2  EPW O   
H1  H2  EPW O   H1  H2  EPW O   H1  H2  EPW O   H1  H2  EPW O   H1  H2  EPW O   
H1  H2  EPW O   H1  H2  EPW O   H1  H2  EPW O   H1  H2  EPW O   H1  H2  EPW O   
H1  H2  EPW O   H1  H2  EPW O   H1  H2  EPW O   H1  H2  EPW O   H1  H2  EPW O   
H1  H2  EPW O   H1  H2  EPW O   H1  H2  EPW O   H1  H2  EPW O   H1  H2  EPW O   
H1  H2  EPW O   H1  H2  EPW O   H1  H2  EPW O   H1  H2  EPW O   H1  H2  EPW O   
H1  H2  EPW O   H1  H2  EPW O   H1  H2  EPW O   H1  H2  EPW O   H1  H2  EPW O   
H1  H2  EPW O   H1  H2  EPW O   H1  H2  EPW O   H1  H2  EPW O   H1  H2  EPW O   
H1  H2  EPW O   H1  H2  EPW O   H1  H2  EPW O   H1  H2  EPW O   H1  H2  EPW O   
H1  H2  EPW O   H1  H2  EPW O   H1  H2  EPW O   H1  H2  EPW O   H1  H2  EPW O   
H1  H2  EPW O   H1  H2  EPW O   H1  H2  EPW O   H1  H2  EPW O   H1  H2  EPW O   
H1  H2  EPW O   H1  H2  EPW O   H1  H2  EPW O   H1  H2  EPW O   H1  H2  EPW O   
H1  H2  EPW O   H1  H2  EPW O   H1  H2  EPW O   H1  H2  EPW O   H1  H2  EPW O   
H1  H2  EPW O   H1  H2  EPW O   H1  H2  EPW O   H1  H2  EPW O   H1  H2  EPW O   
H1  H2  EPW O   H1  H2  EPW O   H1  H2  EPW O   H1  H2  EPW O   H1  H2  EPW O   
H1  H2  EPW O   H1  H2  EPW O   H1  H2  EPW O   H1  H2  EPW O   H1  H2  EPW O   
H1  H2  EPW O   H1  H2  EPW O   H1  H2  EPW O   H1  H2  EPW O   H1  H2  EPW O   
H1  H2  EPW O   H1  H2  EPW O   H1  H2  EPW O   H1  H2  EPW O   H1  H2  EPW O   
H1  H2  EPW O   H1  H2  EPW O   H1  H2  EPW O   H1  H2  EPW O   H1  H2  EPW O   
H1  H2  EPW O   H1  H2  EPW O   H1  H2  EPW O   H1  H2  EPW O   H1  H2  EPW O   
H1  H2  EPW O   H1  H2  EPW O   H1  H2  EPW O   H1  H2  EPW O   H1  H2  EPW O   
H1  H2  EPW O   H1  H2  EPW O   H1  H2  EPW O   H1  H2  EPW O   H1  H2  EPW O   
H1  H2  EPW O   H1  H2  EPW O   H1  H2  EPW O   H1  H2  EPW O   H1  H2  EPW O   
H1  H2  EPW O   H1  H2  EPW O   H1  H2  EPW O   H1  H2  EPW O   H1  H2  EPW O   
H1  H2  EPW O   H1  H2  EPW O   H1  H2  EPW O   H1  H2  EPW O   H1  H2  EPW O   
H1  H2  EPW O   H1  H2  EPW O   H1  H2  EPW O   H1  H2  EPW O   H1  H2  EPW O   
H1  H2  EPW O   H1  H2  EPW O   H1  H2  EPW O   H1  H2  EPW O   H1  H2  EPW O   
H1  H2  EPW O   H1  H2  EPW O   H1  H2  EPW O   H1  H2  EPW O   H1  H2  EPW O   
H1  H2  EPW O   H1  H2  EPW O   H1  H2  EPW O   H1  H2  EPW O   H1  H2  EPW O   
H1  H2  EPW O   H1  H2  EPW O   H1  H2  EPW O   H1  H2  EPW O   H1  H2  EPW O   
H1  H2  EPW O   H1  H2  EPW O   H1  H2  EPW O   H1  H2  EPW O   H1  H2  EPW O   
H1  H2  EPW O   H1  H2  EPW O   H1  H2  EPW O   H1  H2  EPW O   H1  H2  EPW O   
H1  H2  EPW O   H1  H2  EPW O   H1  H2  EPW O   H1  H2  EPW O   H1  H2  EPW O   
H1  H2  EPW O   H1  H2  EPW O   H1  H2  EPW O   H1  H2  EPW O   H1  H2  EPW O   
H1  H2  EPW O   H1  H2  EPW O   H1  H2  EPW O   H1  H2  EPW O   H1  H2  EPW O   
H1  H2  EPW O   H1  H2  EPW O   H1  H2  EPW O   H1  H2  EPW O   H1  H2  EPW O   
H1  H2  EPW O   H1  H2  EPW O   H1  H2  EPW O   H1  H2  EPW O   H1  H2  EPW O   
H1  H2  EPW O   H1  H2  EPW O   H1  H2  EPW O   H1  H2  EPW O   H1  H2  EPW O   
H1  H2  EPW O   H1  H2  EPW O   H1  H2  EPW O   H1  H2  EPW O   H1  H2  EPW O   
H1  H2  EPW O   H1  H2  EPW O   H1  H2  EPW O   H1  H2  EPW O   H1  H2  EPW O   
H1  H2  EPW O   H1  H2  EPW O   H1  H2  EPW O   H1  H2  EPW O   H1  H2  EPW O   
H1  H2  EPW O   H1  H2  EPW O   H1  H2  EPW O   H1  H2  EPW O   H1  H2  EPW O   
H1  H2  EPW O   H1  H2  EPW O   H1  H2  EPW O   H1  H2  EPW O   H1  H2  EPW O   
H1  H2  EPW O   H1  H2  EPW O   H1  H2  EPW O   H1  H2  EPW O   H1  H2  EPW O   
H1  H2  EPW O   H1  H2  EPW O   H1  H2  EPW O   H1  H2  EPW O   H1  H2  EPW O   
H1  H2  EPW O   H1  H2  EPW O   H1  H2  EPW O   H1  H2  EPW O   H1  H2  EPW O   
H1  H2  EPW O   H1  H2  EPW O   H1  H2  EPW O   H1  H2  EPW O   H1  H2  EPW O   
H1  H2  EPW O   H1  H2  EPW O   H1  H2  EPW O   H1  H2  EPW O   H1  H2  EPW O   
H1  H2  EPW O   H1  H2  EPW O   H1  H2  EPW O   H1  H2  EPW O   H1  H2  EPW O   
H1  H2  EPW O   H1  H2  EPW O   H1  H2  EPW O   H1  H2  EPW O   H1  H2  EPW O   
H1  H2  EPW O   H1  H2  EPW O   H1  H2  EPW O   H1  H2  EPW O   H1  H2  EPW O   
H1  H2  EPW O   H1  H2  EPW O   H1  H2  EPW O   H1  H2  EPW O   H1  H2  EPW O   
H1  H2  EPW O   H1  H2  EPW O   H1  H2  EPW O   H1  H2  EPW O   H1  H2  EPW O   
H1  H2  EPW O   H1  H2  EPW O   H1  H2  EPW O   H1  H2  EPW O   H1  H2  EPW O   
H1  H2  EPW O   H1  H2  EPW O   H1  H2  EPW O   H1  H2  EPW O   H1  H2  EPW O   
H1  H2  EPW O   H1  H2  EPW O   H1  H2  EPW O   H1  H2  EPW O   H1  H2  EPW O   
H1  H2  EPW O   H1  H2  EPW O   H1  H2  EPW O   H1  H2  EPW O   H1  H2  EPW O   
H1  H2  EPW O   H1  H2  EPW O   H1  H2  EPW O   H1  H2  EPW O   H1  H2  EPW O   
H1  H2  EPW O   H1  H2  EPW O   H1  H2  EPW O   H1  H2  EPW O   H1  H2  EPW O   
H1  H2  EPW O   H1  H2  EPW O   H1  H2  EPW O   H1  H2  EPW O   H1  H2  EPW O   
H1  H2  EPW O   H1  H2  EPW O   H1  H2  EPW O   H1  H2  EPW O   H1  H2  EPW O   
H1  H2  EPW O   H1  H2  EPW O   H1  H2  EPW O   H1  H2  EPW O   H1  H2  EPW O   
H1  H2  EPW O   H1  H2  EPW O   H1  H2  EPW O   H1  H2  EPW O   H1  H2  EPW O   
H1  H2  EPW O   H1  H2  EPW O   H1  H2  EPW O   H1  H2  EPW O   H1  H2  EPW O   
H1  H2  EPW O   H1  H2  EPW O   H1  H2  EPW O   H1  H2  EPW O   H1  H2  EPW O   
H1  H2  EPW O   H1  H2  EPW O   H1  H2  EPW O   H1  H2  EPW O   H1  H2  EPW O   
H1  H2  EPW O   H1  H2  EPW O   H1  H2  EPW O   H1  H2  EPW O   H1  H2  EPW O   
H1  H2  EPW O   H1  H2  EPW O   H1  H2  EPW O   H1  H2  EPW O   H1  H2  EPW O   
H1  H2  EPW O   H1  H2  EPW O   H1  H2  EPW O   H1  H2  EPW O   H1  H2  EPW O   
H1  H2  EPW O   H1  H2  EPW O   H1  H2  EPW O   H1  H2  EPW O   H1  H2  EPW O   
H1  H2  EPW O   H1  H2  EPW O   H1  H2  EPW O   H1  H2  EPW O   H1  H2  EPW O   
H1  H2  EPW O   H1  H2  EPW O   H1  H2  EPW O   H1  H2  EPW O   H1  H2  EPW O   
H1  H2  EPW O   H1  H2  EPW O   H1  H2  EPW O   H1  H2  EPW O   H1  H2  EPW O   
H1  H2  EPW O   H1  H2  EPW O   H1  H2  EPW O   H1  H2  EPW O   H1  H2  EPW O   
H1  H2  EPW O   H1  H2  EPW O   H1  H2  EPW O   H1  H2  EPW O   H1  H2  EPW O   
H1  H2  EPW O   H1  H2  EPW O   H1  H2  EPW O   H1  H2  EPW O   H1  H2  EPW O   
H1  H2  EPW O   H1  H2  EPW O   H1  H2  EPW O   H1  H2  EPW O   H1  H2  EPW O   
H1  H2  EPW O   H1  H2  EPW O   H1  H2  EPW O   H1  H2  EPW O   H1  H2  EPW O   
H1  H2  EPW O   H1  H2  EPW O   H1  H2  EPW O   H1  H2  EPW O   H1  H2  EPW O   
H1  H2  EPW O   H1  H2  EPW O   H1  H2  EPW O   H1  H2  EPW O   H1  H2  EPW O   
H1  H2  EPW O   H1  H2  EPW O   H1  H2  EPW O   H1  H2  EPW O   H1  H2  EPW O   
H1  H2  EPW O   H1  H2  EPW O   H1  H2  EPW O   H1  H2  EPW O   H1  H2  EPW O   
H1  H2  EPW O   H1  H2  EPW O   H1  H2  EPW O   H1  H2  EPW O   H1  H2  EPW O   
H1  H2  EPW O   H1  H2  EPW O   H1  H2  EPW O   H1  H2  EPW O   H1  H2  EPW O   
H1  H2  EPW O   H1  H2  EPW O   H1  H2  EPW O   H1  H2  EPW O   H1  H2  EPW O   
H1  H2  EPW O   H1  H2  EPW O   H1  H2  EPW O   H1  H2  EPW O   H1  H2  EPW O   
H1  H2  EPW O   H1  H2  EPW O   H1  H2  EPW O   H1  H2  EPW O   H1  H2  EPW O   
H1  H2  EPW O   H1  H2  EPW O   H1  H2  EPW O   H1  H2  EPW O   H1  H2  EPW O   
H1  H2  EPW O   H1  H2  EPW O   H1  H2  EPW O   H1  H2  EPW O   H1  H2  EPW O   
H1  H2  EPW O   H1  H2  EPW O   H1  H2  EPW O   H1  H2  EPW O   H1  H2  EPW O   
H1  H2  EPW O   H1  H2  EPW O   H1  H2  EPW O   H1  H2  EPW O   H1  H2  EPW O   
H1  H2  EPW O   H1  H2  EPW O   H1  H2  EPW O   H1  H2  EPW O   H1  H2  EPW O   
H1  H2  EPW O   H1  H2  EPW O   H1  H2  EPW O   H1  H2  EPW O   H1  H2  EPW O   
H1  H2  EPW O   H1  H2  EPW O   H1  H2  EPW O   H1  H2  EPW O   H1  H2  EPW O   
H1  H2  EPW O   H1  H2  EPW O   H1  H2  EPW O   H1  H2  EPW O   H1  H2  EPW O   
H1  H2  EPW O   H1  H2  EPW O   H1  H2  EPW O   H1  H2  EPW O   H1  H2  EPW O   
H1  H2  EPW O   H1  H2  EPW O   H1  H2  EPW O   H1  H2  EPW O   H1  H2  EPW O   
H1  H2  EPW O   H1  H2  EPW O   H1  H2  EPW O   H1  H2  EPW O   H1  H2  EPW O   
H1  H2  EPW O   H1  H2  EPW O   H1  H2  EPW O   H1  H2  EPW O   H1  H2  EPW O   
H1  H2  EPW O   H1  H2  EPW O   H1  H2  EPW O   H1  H2  EPW O   H1  H2  EPW O   
H1  H2  EPW O   H1  H2  EPW O   H1  H2  EPW O   H1  H2  EPW O   H1  H2  EPW O   
H1  H2  EPW O   H1  H2  EPW O   H1  H2  EPW O   H1  H2  EPW O   H1  H2  EPW O   
H1  H2  EPW O   H1  H2  EPW O   H1  H2  EPW O   H1  H2  EPW O   H1  H2  EPW O   
H1  H2  EPW O   H1  H2  EPW O   H1  H2  EPW O   H1  H2  EPW O   H1  H2  EPW O   
H1  H2  EPW O   H1  H2  EPW O   H1  H2  EPW O   H1  H2  EPW O   H1  H2  EPW O   
H1  H2  EPW O   H1  H2  EPW O   H1  H2  EPW O   H1  H2  EPW O   H1  H2  EPW O   
H1  H2  EPW O   H1  H2  EPW O   H1  H2  EPW O   H1  H2  EPW O   H1  H2  EPW O   
H1  H2  EPW O   H1  H2  EPW O   H1  H2  EPW O   H1  H2  EPW O   H1  H2  EPW O   
H1  H2  EPW O   H1  H2  EPW O   H1  H2  EPW O   H1  H2  EPW O   H1  H2  EPW O   
H1  H2  EPW O   H1  H2  EPW O   H1  H2  EPW O   H1  H2  EPW O   H1  H2  EPW O   
H1  H2  EPW O   H1  H2  EPW O   H1  H2  EPW O   H1  H2  EPW O   H1  H2  EPW O   
H1  H2  EPW O   H1  H2  EPW O   H1  H2  EPW O   H1  H2  EPW O   H1  H2  EPW O   
H1  H2  EPW O   H1  H2  EPW O   H1  H2  EPW O   H1  H2  EPW O   H1  H2  EPW O   
H1  H2  EPW O   H1  H2  EPW O   H1  H2  EPW O   H1  H2  EPW O   H1  H2  EPW O   
H1  H2  EPW O   H1  H2  EPW O   H1  H2  EPW O   H1  H2  EPW O   H1  H2  EPW O   
H1  H2  EPW O   H1  H2  EPW O   H1  H2  EPW O   H1  H2  EPW O   H1  H2  EPW O   
H1  H2  EPW O   H1  H2  EPW O   H1  H2  EPW O   H1  H2  EPW O   H1  H2  EPW O   
H1  H2  EPW O   H1  H2  EPW O   H1  H2  EPW O   H1  H2  EPW O   H1  H2  EPW O   
H1  H2  EPW O   H1  H2  EPW O   H1  H2  EPW O   H1  H2  EPW O   H1  H2  EPW O   
H1  H2  EPW O   H1  H2  EPW O   H1  H2  EPW O   H1  H2  EPW O   H1  H2  EPW O   
H1  H2  EPW O   H1  H2  EPW O   H1  H2  EPW O   H1  H2  EPW O   H1  H2  EPW O   
H1  H2  EPW O   H1  H2  EPW O   H1  H2  EPW O   H1  H2  EPW O   H1  H2  EPW O   
H1  H2  EPW O   H1  H2  EPW O   H1  H2  EPW O   H1  H2  EPW O   H1  H2  EPW O   
H1  H2  EPW O   H1  H2  EPW O   H1  H2  EPW O   H1  H2  EPW O   H1  H2  EPW O   
H1  H2  EPW O   H1  H2  EPW O   H1  H2  EPW O   H1  H2  EPW O   H1  H2  EPW O   
H1  H2  EPW O   H1  H2  EPW O   H1  H2  EPW O   H1  H2  EPW O   H1  H2  EPW O   
H1  H2  EPW O   H1  H2  EPW O   H1  H2  EPW O   H1  H2  EPW O   H1  H2  EPW O   
H1  H2  EPW O   H1  H2  EPW O   H1  H2  EPW O   H1  H2  EPW O   H1  H2  EPW O   
H1  H2  EPW O   H1  H2  EPW O   H1  H2  EPW O   H1  H2  EPW O   H1  H2  EPW O   
H1  H2  EPW O   H1  H2  EPW O   H1  H2  EPW O   H1  H2  EPW O   H1  H2  EPW O   
H1  H2  EPW O   H1  H2  EPW O   H1  H2  EPW O   H1  H2  EPW O   H1  H2  EPW O   
H1  H2  EPW O   H1  H2  EPW O   H1  H2  EPW O   H1  H2  EPW O   H1  H2  EPW O   
H1  H2  EPW O   H1  H2  EPW O   H1  H2  EPW O   H1  H2  EPW O   H1  H2  EPW O   
H1  H2  EPW O   H1  H2  EPW O   H1  H2  EPW O   H1  H2  EPW O   H1  H2  EPW O   
H1  H2  EPW O   H1  H2  EPW O   H1  H2  EPW O   H1  H2  EPW O   H1  H2  EPW O   
H1  H2  EPW O   H1  H2  EPW O   H1  H2  EPW O   H1  H2  EPW O   H1  H2  EPW O   
H1  H2  EPW O   H1  H2  EPW O   H1  H2  EPW O   H1  H2  EPW O   H1  H2  EPW O   
H1  H2  EPW O   H1  H2  EPW O   H1  H2  EPW O   H1  H2  EPW O   H1  H2  EPW O   
H1  H2  EPW O   H1  H2  EPW O   H1  H2  EPW O   H1  H2  EPW O   H1  H2  EPW O   
H1  H2  EPW O   H1  H2  EPW O   H1  H2  EPW O   H1  H2  EPW O   H1  H2  EPW O   
H1  H2  EPW O   H1  H2  EPW O   H1  H2  EPW O   H1  H2  EPW O   H1  H2  EPW O   
H1  H2  EPW O   H1  H2  EPW O   H1  H2  EPW O   H1  H2  EPW O   H1  H2  EPW O   
H1  H2  EPW O   H1  H2  EPW O   H1  H2  EPW O   H1  H2  EPW O   H1  H2  EPW O   
H1  H2  EPW O   H1  H2  EPW O   H1  H2  EPW O   H1  H2  EPW O   H1  H2  EPW O   
H1  H2  EPW O   H1  H2  EPW O   H1  H2  EPW O   H1  H2  EPW O   H1  H2  EPW O   
H1  H2  EPW O   H1  H2  EPW O   H1  H2  EPW O   H1  H2  EPW O   H1  H2  EPW O   
H1  H2  EPW O   H1  H2  EPW O   H1  H2  EPW O   H1  H2  EPW O   H1  H2  EPW O   
H1  H2  EPW O   H1  H2  EPW O   H1  H2  EPW O   H1  H2  EPW O   H1  H2  EPW O   
H1  H2  EPW O   H1  H2  EPW O   H1  H2  EPW O   H1  H2  EPW O   H1  H2  EPW O   
H1  H2  EPW O   H1  H2  EPW O   H1  H2  EPW O   H1  H2  EPW O   H1  H2  EPW O   
H1  H2  EPW O   H1  H2  EPW O   H1  H2  EPW O   H1  H2  EPW O   H1  H2  EPW O   
H1  H2  EPW O   H1  H2  EPW O   H1  H2  EPW O   H1  H2  EPW O   H1  H2  EPW O   
H1  H2  EPW O   H1  H2  EPW O   H1  H2  EPW O   H1  H2  EPW O   H1  H2  EPW O   
H1  H2  EPW O   H1  H2  EPW O   H1  H2  EPW O   H1  H2  EPW O   H1  H2  EPW O   
H1  H2  EPW O   H1  H2  EPW O   H1  H2  EPW O   H1  H2  EPW O   H1  H2  EPW O   
H1  H2  EPW O   H1  H2  EPW O   H1  H2  EPW O   H1  H2  EPW O   H1  H2  EPW O   
H1  H2  EPW O   H1  H2  EPW O   H1  H2  EPW O   H1  H2  EPW O   H1  H2  EPW O   
H1  H2  EPW O   H1  H2  EPW O   H1  H2  EPW O   H1  H2  EPW O   H1  H2  EPW O   
H1  H2  EPW O   H1  H2  EPW O   H1  H2  EPW O   H1  H2  EPW O   H1  H2  EPW O   
H1  H2  EPW O   H1  H2  EPW O   H1  H2  EPW O   H1  H2  EPW O   H1  H2  EPW O   
H1  H2  EPW O   H1  H2  EPW O   H1  H2  EPW O   H1  H2  EPW O   H1  H2  EPW O   
H1  H2  EPW O   H1  H2  EPW O   H1  H2  EPW O   H1  H2  EPW O   H1  H2  EPW O   
H1  H2  EPW O   H1  H2  EPW O   H1  H2  EPW O   H1  H2  EPW O   H1  H2  EPW O   
H1  H2  EPW O   H1  H2  EPW O   H1  H2  EPW O   H1  H2  EPW O   H1  H2  EPW O   
H1  H2  EPW O   H1  H2  EPW O   H1  H2  EPW O   H1  H2  EPW O   H1  H2  EPW O   
H1  H2  EPW O   H1  H2  EPW O   H1  H2  EPW O   H1  H2  EPW O   H1  H2  EPW O   
H1  H2  EPW O   H1  H2  EPW O   H1  H2  EPW O   H1  H2  EPW O   H1  H2  EPW O   
H1  H2  EPW O   H1  H2  EPW O   H1  H2  EPW O   H1  H2  EPW O   H1  H2  EPW O   
H1  H2  EPW O   H1  H2  EPW O   H1  H2  EPW O   H1  H2  EPW O   H1  H2  EPW O   
H1  H2  EPW O   H1  H2  EPW O   H1  H2  EPW O   H1  H2  EPW O   H1  H2  EPW O   
H1  H2  EPW O   H1  H2  EPW O   H1  H2  EPW O   H1  H2  EPW O   H1  H2  EPW O   
H1  H2  EPW O   H1  H2  EPW O   H1  H2  EPW O   H1  H2  EPW O   H1  H2  EPW O   
H1  H2  EPW O   H1  H2  EPW O   H1  H2  EPW O   H1  H2  EPW O   H1  H2  EPW O   
H1  H2  EPW O   H1  H2  EPW O   H1  H2  EPW O   H1  H2  EPW O   H1  H2  EPW O   
H1  H2  EPW O   H1  H2  EPW O   H1  H2  EPW O   H1  H2  EPW O   H1  H2  EPW O   
H1  H2  EPW O   H1  H2  EPW O   H1  H2  EPW O   H1  H2  EPW O   H1  H2  EPW O   
H1  H2  EPW O   H1  H2  EPW O   H1  H2  EPW O   H1  H2  EPW O   H1  H2  EPW O   
H1  H2  EPW O   H1  H2  EPW O   H1  H2  EPW O   H1  H2  EPW O   H1  H2  EPW O   
H1  H2  EPW O   H1  H2  EPW O   H1  H2  EPW O   H1  H2  EPW O   H1  H2  EPW O   
H1  H2  EPW O   H1  H2  EPW O   H1  H2  EPW O   H1  H2  EPW O   H1  H2  EPW O   
H1  H2  EPW O   H1  H2  EPW O   H1  H2  EPW O   H1  H2  EPW O   H1  H2  EPW O   
H1  H2  EPW O   H1  H2  EPW O   H1  H2  EPW O   H1  H2  EPW O   H1  H2  EPW O   
H1  H2  EPW O   H1  H2  EPW O   H1  H2  EPW O   H1  H2  EPW O   H1  H2  EPW O   
H1  H2  EPW O   H1  H2  EPW O   H1  H2  EPW O   H1  H2  EPW O   H1  H2  EPW O   
H1  H2  EPW O   H1  H2  EPW O   H1  H2  EPW O   H1  H2  EPW O   H1  H2  EPW O   
H1  H2  EPW O   H1  H2  EPW O   H1  H2  EPW O   H1  H2  EPW O   H1  H2  EPW O   
H1  H2  EPW O   H1  H2  EPW O   H1  H2  EPW O   H1  H2  EPW O   H1  H2  EPW O   
H1  H2  EPW O   H1  H2  EPW O   H1  H2  EPW O   H1  H2  EPW O   H1  H2  EPW O   
H1  H2  EPW O   H1  H2  EPW O   H1  H2  EPW O   H1  H2  EPW O   H1  H2  EPW O   
H1  H2  EPW O   H1  H2  EPW O   H1  H2  EPW O   H1  H2  EPW O   H1  H2  EPW O   
H1  H2  EPW O   H1  H2  EPW O   H1  H2  EPW O   H1  H2  EPW O   H1  H2  EPW O   
H1  H2  EPW O   H1  H2  EPW O   H1  H2  EPW O   H1  H2  EPW O   H1  H2  EPW O   
H1  H2  EPW O   H1  H2  EPW O   H1  H2  EPW O   H1  H2  EPW O   H1  H2  EPW O   
H1  H2  EPW O   H1  H2  EPW O   H1  H2  EPW O   H1  H2  EPW O   H1  H2  EPW O   
H1  H2  EPW O   H1  H2  EPW O   H1  H2  EPW O   H1  H2  EPW O   H1  H2  EPW O   
H1  H2  EPW O   H1  H2  EPW O   H1  H2  EPW O   H1  H2  EPW O   H1  H2  EPW O   
H1  H2  EPW O   H1  H2  EPW O   H1  H2  EPW O   H1  H2  EPW O   H1  H2  EPW O   
H1  H2  EPW O   H1  H2  EPW O   H1  H2  EPW O   H1  H2  EPW O   H1  H2  EPW O   
H1  H2  EPW O   H1  H2  EPW O   H1  H2  EPW O   H1  H2  EPW O   H1  H2  EPW O   
H1  H2  EPW O   H1  H2  EPW O   H1  H2  EPW O   H1  H2  EPW O   H1  H2  EPW O   
H1  H2  EPW O   H1  H2  EPW O   H1  H2  EPW O   H1  H2  EPW O   H1  H2  EPW O   
H1  H2  EPW O   H1  H2  EPW O   H1  H2  EPW O   H1  H2  EPW O   H1  H2  EPW O   
H1  H2  EPW O   H1  H2  EPW O   H1  H2  EPW O   H1  H2  EPW O   H1  H2  EPW O   
H1  H2  EPW O   H1  H2  EPW O   H1  H2  EPW O   H1  H2  EPW O   H1  H2  EPW O   
H1  H2  EPW O   H1  H2  EPW O   H1  H2  EPW O   H1  H2  EPW O   H1  H2  EPW O   
H1  H2  EPW O   H1  H2  EPW O   H1  H2  EPW O   H1  H2  EPW O   H1  H2  EPW O   
H1  H2  EPW O   H1  H2  EPW O   H1  H2  EPW O   H1  H2  EPW O   H1  H2  EPW O   
H1  H2  EPW O   H1  H2  EPW O   H1  H2  EPW O   H1  H2  EPW O   H1  H2  EPW O   
H1  H2  EPW O   H1  H2  EPW O   H1  H2  EPW O   H1  H2  EPW O   H1  H2  EPW O   
H1  H2  EPW O   H1  H2  EPW O   H1  H2  EPW O   H1  H2  EPW O   H1  H2  EPW O   
H1  H2  EPW O   H1  H2  EPW O   H1  H2  EPW O   H1  H2  EPW O   H1  H2  EPW O   
H1  H2  EPW O   H1  H2  EPW O   H1  H2  EPW O   H1  H2  EPW O   H1  H2  EPW O   
H1  H2  EPW O   H1  H2  EPW O   H1  H2  EPW O   H1  H2  EPW O   H1  H2  EPW O   
H1  H2  EPW O   H1  H2  EPW O   H1  H2  EPW O   H1  H2  EPW O   H1  H2  EPW O   
H1  H2  EPW O   H1  H2  EPW O   H1  H2  EPW O   H1  H2  EPW O   H1  H2  EPW O   
H1  H2  EPW O   H1  H2  EPW O   H1  H2  EPW O   H1  H2  EPW O   H1  H2  EPW O   
H1  H2  EPW O   H1  H2  EPW O   H1  H2  EPW O   H1  H2  EPW O   H1  H2  EPW O   
H1  H2  EPW O   H1  H2  EPW O   H1  H2  EPW O   H1  H2  EPW O   H1  H2  EPW O   
H1  H2  EPW O   H1  H2  EPW O   H1  H2  EPW O   H1  H2  EPW O   H1  H2  EPW O   
H1  H2  EPW O   H1  H2  EPW O   H1  H2  EPW O   H1  H2  EPW O   H1  H2  EPW O   
H1  H2  EPW O   H1  H2  EPW O   H1  H2  EPW O   H1  H2  EPW O   H1  H2  EPW O   
H1  H2  EPW O   H1  H2  EPW O   H1  H2  EPW O   H1  H2  EPW O   H1  H2  EPW O   
H1  H2  EPW O   H1  H2  EPW O   H1  H2  EPW O   H1  H2  EPW O   H1  H2  EPW O   
H1  H2  EPW O   H1  H2  EPW O   H1  H2  EPW O   H1  H2  EPW O   H1  H2  EPW O   
H1  H2  EPW O   H1  H2  EPW O   H1  H2  EPW O   H1  H2  EPW O   H1  H2  EPW O   
H1  H2  EPW O   H1  H2  EPW O   H1  H2  EPW O   H1  H2  EPW O   H1  H2  EPW O   
H1  H2  EPW O   H1  H2  EPW O   H1  H2  EPW O   H1  H2  EPW O   H1  H2  EPW O   
H1  H2  EPW O   H1  H2  EPW O   H1  H2  EPW O   H1  H2  EPW O   H1  H2  EPW O   
H1  H2  EPW O   H1  H2  EPW O   H1  H2  EPW O   H1  H2  EPW O   H1  H2  EPW O   
H1  H2  EPW O   H1  H2  EPW O   H1  H2  EPW O   H1  H2  EPW O   H1  H2  EPW O   
H1  H2  EPW O   H1  H2  EPW O   H1  H2  EPW O   H1  H2  EPW O   H1  H2  EPW O   
H1  H2  EPW O   H1  H2  EPW O   H1  H2  EPW O   H1  H2  EPW O   H1  H2  EPW O   
H1  H2  EPW O   H1  H2  EPW O   H1  H2  EPW O   H1  H2  EPW O   H1  H2  EPW O   
H1  H2  EPW O   H1  H2  EPW O   H1  H2  EPW O   H1  H2  EPW O   H1  H2  EPW O   
H1  H2  EPW O   H1  H2  EPW O   H1  H2  EPW O   H1  H2  EPW O   H1  H2  EPW O   
H1  H2  EPW O   H1  H2  EPW O   H1  H2  EPW O   H1  H2  EPW O   H1  H2  EPW O   
H1  H2  EPW O   H1  H2  EPW O   H1  H2  EPW O   H1  H2  EPW O   H1  H2  EPW O   
H1  H2  EPW O   H1  H2  EPW O   H1  H2  EPW O   H1  H2  EPW O   H1  H2  EPW O   
H1  H2  EPW O   H1  H2  EPW O   H1  H2  EPW O   H1  H2  EPW O   H1  H2  EPW O   
H1  H2  EPW O   H1  H2  EPW O   H1  H2  EPW O   H1  H2  EPW O   H1  H2  EPW O   
H1  H2  EPW O   H1  H2  EPW O   H1  H2  EPW O   H1  H2  EPW O   H1  H2  EPW O   
H1  H2  EPW O   H1  H2  EPW O   H1  H2  EPW O   H1  H2  EPW O   H1  H2  EPW O   
H1  H2  EPW O   H1  H2  EPW O   H1  H2  EPW O   H1  H2  EPW O   H1  H2  EPW O   
H1  H2  EPW O   H1  H2  EPW O   H1  H2  EPW O   H1  H2  EPW O   H1  H2  EPW O   
H1  H2  EPW O   H1  H2  EPW O   H1  H2  EPW O   H1  H2  EPW O   H1  H2  EPW O   
H1  H2  EPW O   H1  H2  EPW O   H1  H2  EPW O   H1  H2  EPW O   H1  H2  EPW O   
H1  H2  EPW O   H1  H2  EPW O   H1  H2  EPW O   H1  H2  EPW O   H1  H2  EPW O   
H1  H2  EPW O   H1  H2  EPW O   H1  H2  EPW O   H1  H2  EPW O   H1  H2  EPW O   
H1  H2  EPW O   H1  H2  EPW O   H1  H2  EPW O   H1  H2  EPW O   H1  H2  EPW O   
H1  H2  EPW O   H1  H2  EPW O   H1  H2  EPW O   H1  H2  EPW O   H1  H2  EPW O   
H1  H2  EPW O   H1  H2  EPW O   H1  H2  EPW O   H1  H2  EPW O   H1  H2  EPW O   
H1  H2  EPW O   H1  H2  EPW O   H1  H2  EPW O   H1  H2  EPW O   H1  H2  EPW O   
H1  H2  EPW O   H1  H2  EPW O   H1  H2  EPW O   H1  H2  EPW O   H1  H2  EPW O   
H1  H2  EPW O   H1  H2  EPW O   H1  H2  EPW O   H1  H2  EPW O   H1  H2  EPW O   
H1  H2  EPW O   H1  H2  EPW O   H1  H2  EPW O   H1  H2  EPW O   H1  H2  EPW O   
H1  H2  EPW O   H1  H2  EPW O   H1  H2  EPW O   H1  H2  EPW O   H1  H2  EPW O   
H1  H2  EPW O   H1  H2  EPW O   H1  H2  EPW O   H1  H2  EPW O   H1  H2  EPW O   
H1  H2  EPW O   H1  H2  EPW O   H1  H2  EPW O   H1  H2  EPW O   H1  H2  EPW O   
H1  H2  EPW O   H1  H2  EPW O   H1  H2  EPW O   H1  H2  EPW O   H1  H2  EPW O   
H1  H2  EPW O   H1  H2  EPW O   H1  H2  EPW O   H1  H2  EPW O   H1  H2  EPW O   
H1  H2  EPW O   H1  H2  EPW O   H1  H2  EPW O   H1  H2  EPW O   H1  H2  EPW O   
H1  H2  EPW O   H1  H2  EPW O   H1  H2  EPW O   H1  H2  EPW O   H1  H2  EPW O   
H1  H2  EPW O   H1  H2  EPW O   H1  H2  EPW O   H1  H2  EPW O   H1  H2  EPW O   
H1  H2  EPW O   H1  H2  EPW O   H1  H2  EPW O   H1  H2  EPW O   H1  H2  EPW O   
H1  H2  EPW O   H1  H2  EPW O   H1  H2  EPW O   H1  H2  EPW O   H1  H2  EPW O   
H1  H2  EPW O   H1  H2  EPW O   H1  H2  EPW O   H1  H2  EPW O   H1  H2  EPW O   
H1  H2  EPW O   H1  H2  EPW O   H1  H2  EPW O   H1  H2  EPW O   H1  H2  EPW O   
H1  H2  EPW O   H1  H2  EPW O   H1  H2  EPW O   H1  H2  EPW O   H1  H2  EPW O   
H1  H2  EPW O   H1  H2  EPW O   H1  H2  EPW O   H1  H2  EPW O   H1  H2  EPW O   
H1  H2  EPW O   H1  H2  EPW O   H1  H2  EPW O   H1  H2  EPW O   H1  H2  EPW O   
H1  H2  EPW O   H1  H2  EPW O   H1  H2  EPW O   H1  H2  EPW O   H1  H2  EPW O   
H1  H2  EPW O   H1  H2  EPW O   H1  H2  EPW O   H1  H2  EPW O   H1  H2  EPW O   
H1  H2  EPW O   H1  H2  EPW O   H1  H2  EPW O   H1  H2  EPW O   H1  H2  EPW O   
H1  H2  EPW O   H1  H2  EPW O   H1  H2  EPW O   H1  H2  EPW O   H1  H2  EPW O   
H1  H2  EPW O   H1  H2  EPW O   H1  H2  EPW O   H1  H2  EPW O   H1  H2  EPW O   
H1  H2  EPW O   H1  H2  EPW O   H1  H2  EPW O   H1  H2  EPW O   H1  H2  EPW O   
H1  H2  EPW O   H1  H2  EPW O   H1  H2  EPW O   H1  H2  EPW O   H1  H2  EPW O   
H1  H2  EPW O   H1  H2  EPW O   H1  H2  EPW O   H1  H2  EPW O   H1  H2  EPW O   
H1  H2  EPW O   H1  H2  EPW O   H1  H2  EPW O   H1  H2  EPW O   H1  H2  EPW O   
H1  H2  EPW O   H1  H2  EPW O   H1  H2  EPW O   H1  H2  EPW O   H1  H2  EPW O   
H1  H2  EPW O   H1  H2  EPW O   H1  H2  EPW O   H1  H2  EPW O   H1  H2  EPW O   
H1  H2  EPW O   H1  H2  EPW O   H1  H2  EPW O   H1  H2  EPW O   H1  H2  EPW O   
H1  H2  EPW O   H1  H2  EPW O   H1  H2  EPW O   H1  H2  EPW O   H1  H2  EPW O   
H1  H2  EPW O   H1  H2  EPW O   H1  H2  EPW O   H1  H2  EPW O   H1  H2  EPW O   
H1  H2  EPW O   H1  H2  EPW O   H1  H2  EPW O   H1  H2  EPW O   H1  H2  EPW O   
H1  H2  EPW O   H1  H2  EPW O   H1  H2  EPW O   H1  H2  EPW O   H1  H2  EPW O   
H1  H2  EPW O   H1  H2  EPW O   H1  H2  EPW O   H1  H2  EPW O   H1  H2  EPW O   
H1  H2  EPW O   H1  H2  EPW O   H1  H2  EPW O   H1  H2  EPW O   H1  H2  EPW O   
H1  H2  EPW O   H1  H2  EPW O   H1  H2  EPW O   H1  H2  EPW O   H1  H2  EPW O   
H1  H2  EPW O   H1  H2  EPW O   H1  H2  EPW O   H1  H2  EPW O   H1  H2  EPW O   
H1  H2  EPW O   H1  H2  EPW O   H1  H2  EPW O   H1  H2  EPW O   H1  H2  EPW O   
H1  H2  EPW O   H1  H2  EPW O   H1  H2  EPW O   H1  H2  EPW O   H1  H2  EPW O   
H1  H2  EPW O   H1  H2  EPW O   H1  H2  EPW O   H1  H2  EPW O   H1  H2  EPW O   
H1  H2  EPW O   H1  H2  EPW O   H1  H2  EPW O   H1  H2  EPW O   H1  H2  EPW O   
H1  H2  EPW O   H1  H2  EPW O   H1  H2  EPW O   H1  H2  EPW O   H1  H2  EPW O   
H1  H2  EPW O   H1  H2  EPW O   H1  H2  EPW O   H1  H2  EPW O   H1  H2  EPW O   
H1  H2  EPW O   H1  H2  EPW O   H1  H2  EPW O   H1  H2  EPW O   H1  H2  EPW O   
H1  H2  EPW O   H1  H2  EPW O   H1  H2  EPW O   H1  H2  EPW O   H1  H2  EPW O   
H1  H2  EPW O   H1  H2  EPW O   H1  H2  EPW O   H1  H2  EPW O   H1  H2  EPW O   
H1  H2  EPW O   H1  H2  EPW O   H1  H2  EPW O   H1  H2  EPW O   H1  H2  EPW O   
H1  H2  EPW O   H1  H2  EPW O   H1  H2  EPW O   H1  H2  EPW O   H1  H2  EPW O   
H1  H2  EPW O   H1  H2  EPW O   H1  H2  EPW O   H1  H2  EPW O   H1  H2  EPW O   
H1  H2  EPW O   H1  H2  EPW O   H1  H2  EPW O   H1  H2  EPW O   H1  H2  EPW O   
H1  H2  EPW O   H1  H2  EPW O   H1  H2  EPW O   H1  H2  EPW O   H1  H2  EPW O   
H1  H2  EPW O   H1  H2  EPW O   H1  H2  EPW O   H1  H2  EPW O   H1  H2  EPW O   
H1  H2  EPW O   H1  H2  EPW O   H1  H2  EPW O   H1  H2  EPW O   H1  H2  EPW O   
H1  H2  EPW O   H1  H2  EPW O   H1  H2  EPW O   H1  H2  EPW O   H1  H2  EPW O   
H1  H2  EPW O   H1  H2  EPW O   H1  H2  EPW O   H1  H2  EPW O   H1  H2  EPW O   
H1  H2  EPW O   H1  H2  EPW O   H1  H2  EPW O   H1  H2  EPW O   H1  H2  EPW O   
H1  H2  EPW O   H1  H2  EPW O   H1  H2  EPW O   H1  H2  EPW O   H1  H2  EPW O   
H1  H2  EPW O   H1  H2  EPW O   H1  H2  EPW O   H1  H2  EPW O   H1  H2  EPW O   
H1  H2  EPW O   H1  H2  EPW O   H1  H2  EPW O   H1  H2  EPW O   H1  H2  EPW O   
H1  H2  EPW O   H1  H2  EPW O   H1  H2  EPW O   H1  H2  EPW O   H1  H2  EPW O   
H1  H2  EPW O   H1  H2  EPW O   H1  H2  EPW O   H1  H2  EPW O   H1  H2  EPW O   
H1  H2  EPW O   H1  H2  EPW O   H1  H2  EPW O   H1  H2  EPW O   H1  H2  EPW O   
H1  H2  EPW O   H1  H2  EPW O   H1  H2  EPW O   H1  H2  EPW O   H1  H2  EPW O   
H1  H2  EPW O   H1  H2  EPW O   H1  H2  EPW O   H1  H2  EPW O   H1  H2  EPW O   
H1  H2  EPW O   H1  H2  EPW O   H1  H2  EPW O   H1  H2  EPW O   H1  H2  EPW O   
H1  H2  EPW O   H1  H2  EPW O   H1  H2  EPW O   H1  H2  EPW O   H1  H2  EPW O   
H1  H2  EPW O   H1  H2  EPW O   H1  H2  EPW O   H1  H2  EPW O   H1  H2  EPW O   
H1  H2  EPW O   H1  H2  EPW O   H1  H2  EPW O   H1  H2  EPW O   H1  H2  EPW O   
H1  H2  EPW O   H1  H2  EPW O   H1  H2  EPW O   H1  H2  EPW O   H1  H2  EPW O   
H1  H2  EPW O   H1  H2  EPW O   H1  H2  EPW O   H1  H2  EPW O   H1  H2  EPW O   
H1  H2  EPW O   H1  H2  EPW O   H1  H2  EPW O   H1  H2  EPW O   H1  H2  EPW O   
H1  H2  EPW O   H1  H2  EPW O   H1  H2  EPW O   H1  H2  EPW O   H1  H2  EPW O   
H1  H2  EPW O   H1  H2  EPW O   H1  H2  EPW O   H1  H2  EPW O   H1  H2  EPW O   
H1  H2  EPW O   H1  H2  EPW O   H1  H2  EPW O   H1  H2  EPW O   H1  H2  EPW O   
H1  H2  EPW O   H1  H2  EPW O   H1  H2  EPW O   H1  H2  EPW O   H1  H2  EPW O   
H1  H2  EPW O   H1  H2  EPW O   H1  H2  EPW O   H1  H2  EPW O   H1  H2  EPW O   
H1  H2  EPW O   H1  H2  EPW O   H1  H2  EPW O   H1  H2  EPW O   H1  H2  EPW O   
H1  H2  EPW O   H1  H2  EPW O   H1  H2  EPW O   H1  H2  EPW O   H1  H2  EPW O   
H1  H2  EPW O   H1  H2  EPW O   H1  H2  EPW O   H1  H2  EPW O   H1  H2  EPW O   
H1  H2  EPW O   H1  H2  EPW O   H1  H2  EPW O   H1  H2  EPW O   H1  H2  EPW O   
H1  H2  EPW O   H1  H2  EPW O   H1  H2  EPW O   H1  H2  EPW O   H1  H2  EPW O   
H1  H2  EPW O   H1  H2  EPW O   H1  H2  EPW O   H1  H2  EPW O   H1  H2  EPW O   
H1  H2  EPW O   H1  H2  EPW O   H1  H2  EPW O   H1  H2  EPW O   H1  H2  EPW O   
H1  H2  EPW O   H1  H2  EPW O   H1  H2  EPW O   H1  H2  EPW O   H1  H2  EPW O   
H1  H2  EPW O   H1  H2  EPW O   H1  H2  EPW O   H1  H2  EPW O   H1  H2  EPW O   
H1  H2  EPW O   H1  H2  EPW O   H1  H2  EPW O   H1  H2  EPW O   H1  H2  EPW O   
H1  H2  EPW O   H1  H2  EPW O   H1  H2  EPW O   H1  H2  EPW O   H1  H2  EPW O   
H1  H2  EPW O   H1  H2  EPW O   H1  H2  EPW O   H1  H2  EPW O   H1  H2  EPW O   
H1  H2  EPW O   H1  H2  EPW O   H1  H2  EPW O   H1  H2  EPW O   H1  H2  EPW O   
H1  H2  EPW O   H1  H2  EPW O   H1  H2  EPW O   H1  H2  EPW O   H1  H2  EPW O   
H1  H2  EPW O   H1  H2  EPW O   H1  H2  EPW O   H1  H2  EPW O   H1  H2  EPW O   
H1  H2  EPW O   H1  H2  EPW O   H1  H2  EPW O   H1  H2  EPW O   H1  H2  EPW O   
H1  H2  EPW O   H1  H2  EPW O   H1  H2  EPW O   H1  H2  EPW O   H1  H2  EPW O   
H1  H2  EPW O   H1  H2  EPW O   H1  H2  EPW O   H1  H2  EPW O   H1  H2  EPW O   
H1  H2  EPW O   H1  H2  EPW O   H1  H2  EPW O   H1  H2  EPW O   H1  H2  EPW O   
H1  H2  EPW O   H1  H2  EPW O   H1  H2  EPW O   H1  H2  EPW O   H1  H2  EPW O   
H1  H2  EPW O   H1  H2  EPW O   H1  H2  EPW O   H1  H2  EPW O   H1  H2  EPW O   
H1  H2  EPW O   H1  H2  EPW O   H1  H2  EPW O   H1  H2  EPW O   H1  H2  EPW O   
H1  H2  EPW O   H1  H2  EPW O   H1  H2  EPW O   H1  H2  EPW O   H1  H2  EPW O   
H1  H2  EPW O   H1  H2  EPW O   H1  H2  EPW O   H1  H2  EPW O   H1  H2  EPW O   
H1  H2  EPW O   H1  H2  EPW O   H1  H2  EPW O   H1  H2  EPW O   H1  H2  EPW O   
H1  H2  EPW O   H1  H2  EPW O   H1  H2  EPW O   H1  H2  EPW O   H1  H2  EPW O   
H1  H2  EPW O   H1  H2  EPW O   H1  H2  EPW O   H1  H2  EPW O   H1  H2  EPW O   
H1  H2  EPW O   H1  H2  EPW O   H1  H2  EPW O   H1  H2  EPW O   H1  H2  EPW O   
H1  H2  EPW O   H1  H2  EPW O   H1  H2  EPW O   H1  H2  EPW O   H1  H2  EPW O   
H1  H2  EPW O   H1  H2  EPW O   H1  H2  EPW O   H1  H2  EPW O   H1  H2  EPW O   
H1  H2  EPW O   H1  H2  EPW O   H1  H2  EPW O   H1  H2  EPW O   H1  H2  EPW O   
H1  H2  EPW O   H1  H2  EPW O   H1  H2  EPW O   H1  H2  EPW O   H1  H2  EPW O   
H1  H2  EPW O   H1  H2  EPW O   H1  H2  EPW O   H1  H2  EPW O   H1  H2  EPW O   
H1  H2  EPW O   H1  H2  EPW O   H1  H2  EPW O   H1  H2  EPW O   H1  H2  EPW O   
H1  H2  EPW O   H1  H2  EPW O   H1  H2  EPW O   H1  H2  EPW O   H1  H2  EPW O   
H1  H2  EPW O   H1  H2  EPW O   H1  H2  EPW O   H1  H2  EPW O   H1  H2  EPW O   
H1  H2  EPW O   H1  H2  EPW O   H1  H2  EPW O   H1  H2  EPW O   H1  H2  EPW O   
H1  H2  EPW O   H1  H2  EPW O   H1  H2  EPW O   H1  H2  EPW O   H1  H2  EPW O   
H1  H2  EPW O   H1  H2  EPW O   H1  H2  EPW O   H1  H2  EPW O   H1  H2  EPW O   
H1  H2  EPW O   H1  H2  EPW O   H1  H2  EPW O   H1  H2  EPW O   H1  H2  EPW O   
H1  H2  EPW O   H1  H2  EPW O   H1  H2  EPW O   H1  H2  EPW O   H1  H2  EPW O   
H1  H2  EPW O   H1  H2  EPW O   H1  H2  EPW O   H1  H2  EPW O   H1  H2  EPW O   
H1  H2  EPW O   H1  H2  EPW O   H1  H2  EPW O   H1  H2  EPW O   H1  H2  EPW O   
H1  H2  EPW O   H1  H2  EPW O   H1  H2  EPW O   H1  H2  EPW O   H1  H2  EPW O   
H1  H2  EPW O   H1  H2  EPW O   H1  H2  EPW O   H1  H2  EPW O   H1  H2  EPW O   
H1  H2  EPW O   H1  H2  EPW O   H1  H2  EPW O   H1  H2  EPW O   H1  H2  EPW O   
H1  H2  EPW O   H1  H2  EPW O   H1  H2  EPW O   H1  H2  EPW O   H1  H2  EPW O   
H1  H2  EPW O   H1  H2  EPW O   H1  H2  EPW O   H1  H2  EPW O   H1  H2  EPW O   
H1  H2  EPW O   H1  H2  EPW O   H1  H2  EPW O   H1  H2  EPW O   H1  H2  EPW O   
H1  H2  EPW O   H1  H2  EPW O   H1  H2  EPW O   H1  H2  EPW O   H1  H2  EPW O   
H1  H2  EPW O   H1  H2  EPW O   H1  H2  EPW O   H1  H2  EPW O   H1  H2  EPW O   
H1  H2  EPW O   H1  H2  EPW O   H1  H2  EPW O   H1  H2  EPW O   H1  H2  EPW O   
H1  H2  EPW O   H1  H2  EPW O   H1  H2  EPW O   H1  H2  EPW O   H1  H2  EPW O   
H1  H2  EPW O   H1  H2  EPW O   H1  H2  EPW O   H1  H2  EPW O   H1  H2  EPW O   
H1  H2  EPW O   H1  H2  EPW O   H1  H2  EPW O   H1  H2  EPW O   H1  H2  EPW O   
H1  H2  EPW O   H1  H2  EPW O   H1  H2  EPW O   H1  H2  EPW O   H1  H2  EPW O   
H1  H2  EPW O   H1  H2  EPW O   H1  H2  EPW O   H1  H2  EPW O   H1  H2  EPW O   
H1  H2  EPW O   H1  H2  EPW O   H1  H2  EPW O   H1  H2  EPW O   H1  H2  EPW O   
H1  H2  EPW O   H1  H2  EPW O   H1  H2  EPW O   H1  H2  EPW O   H1  H2  EPW O   
H1  H2  EPW O   H1  H2  EPW O   H1  H2  EPW O   H1  H2  EPW O   H1  H2  EPW O   
H1  H2  EPW O   H1  H2  EPW O   H1  H2  EPW O   H1  H2  EPW O   H1  H2  EPW O   
H1  H2  EPW O   H1  H2  EPW O   H1  H2  EPW O   H1  H2  EPW O   H1  H2  EPW O   
H1  H2  EPW O   H1  H2  EPW O   H1  H2  EPW O   H1  H2  EPW O   H1  H2  EPW O   
H1  H2  EPW O   H1  H2  EPW O   H1  H2  EPW O   H1  H2  EPW O   H1  H2  EPW O   
H1  H2  EPW O   H1  H2  EPW O   H1  H2  EPW O   H1  H2  EPW O   H1  H2  EPW O   
H1  H2  EPW O   H1  H2  EPW O   H1  H2  EPW O   H1  H2  EPW O   H1  H2  EPW O   
H1  H2  EPW O   H1  H2  EPW O   H1  H2  EPW O   H1  H2  EPW O   H1  H2  EPW O   
H1  H2  EPW O   H1  H2  EPW O   H1  H2  EPW O   H1  H2  EPW O   H1  H2  EPW O   
H1  H2  EPW O   H1  H2  EPW O   H1  H2  EPW O   H1  H2  EPW O   H1  H2  EPW O   
H1  H2  EPW O   H1  H2  EPW O   H1  H2  EPW O   H1  H2  EPW O   H1  H2  EPW O   
H1  H2  EPW O   H1  H2  EPW O   H1  H2  EPW O   H1  H2  EPW O   H1  H2  EPW O   
H1  H2  EPW O   H1  H2  EPW O   H1  H2  EPW O   H1  H2  EPW O   H1  H2  EPW O   
H1  H2  EPW O   H1  H2  EPW O   H1  H2  EPW O   H1  H2  EPW O   H1  H2  EPW O   
H1  H2  EPW O   H1  H2  EPW O   H1  H2  EPW O   H1  H2  EPW O   H1  H2  EPW O   
H1  H2  EPW O   H1  H2  EPW O   H1  H2  EPW O   H1  H2  EPW O   H1  H2  EPW O   
H1  H2  EPW O   H1  H2  EPW O   H1  H2  EPW O   H1  H2  EPW O   H1  H2  EPW O   
H1  H2  EPW O   H1  H2  EPW O   H1  H2  EPW O   H1  H2  EPW O   H1  H2  EPW O   
H1  H2  EPW O   H1  H2  EPW O   H1  H2  EPW O   H1  H2  EPW O   H1  H2  EPW O   
H1  H2  EPW O   H1  H2  EPW O   H1  H2  EPW O   H1  H2  EPW O   H1  H2  EPW O   
H1  H2  EPW O   H1  H2  EPW O   H1  H2  EPW O   H1  H2  EPW O   H1  H2  EPW O   
H1  H2  EPW O   H1  H2  EPW O   H1  H2  EPW O   H1  H2  EPW O   H1  H2  EPW O   
H1  H2  EPW O   H1  H2  EPW O   H1  H2  EPW O   H1  H2  EPW O   H1  H2  EPW O   
H1  H2  EPW O   H1  H2  EPW O   H1  H2  EPW O   H1  H2  EPW O   H1  H2  EPW O   
H1  H2  EPW O   H1  H2  EPW O   H1  H2  EPW O   H1  H2  EPW O   H1  H2  EPW O   
H1  H2  EPW O   H1  H2  EPW O   H1  H2  EPW O   H1  H2  EPW O   H1  H2  EPW O   
H1  H2  EPW O   H1  H2  EPW O   H1  H2  EPW O   H1  H2  EPW O   H1  H2  EPW O   
H1  H2  EPW O   H1  H2  EPW O   H1  H2  EPW O   H1  H2  EPW O   H1  H2  EPW O   
H1  H2  EPW O   H1  H2  EPW O   H1  H2  EPW O   H1  H2  EPW O   H1  H2  EPW O   
H1  H2  EPW O   H1  H2  EPW O   H1  H2  EPW O   H1  H2  EPW O   H1  H2  EPW O   
H1  H2  EPW O   H1  H2  EPW O   H1  H2  EPW O   H1  H2  EPW O   H1  H2  EPW O   
H1  H2  EPW O   H1  H2  EPW O   H1  H2  EPW O   H1  H2  EPW O   H1  H2  EPW O   
H1  H2  EPW O   H1  H2  EPW O   H1  H2  EPW O   H1  H2  EPW O   H1  H2  EPW O   
H1  H2  EPW O   H1  H2  EPW O   H1  H2  EPW O   H1  H2  EPW O   H1  H2  EPW O   
H1  H2  EPW O   H1  H2  EPW O   H1  H2  EPW O   H1  H2  EPW O   H1  H2  EPW O   
H1  H2  EPW O   H1  H2  EPW O   H1  H2  EPW O   H1  H2  EPW O   H1  H2  EPW O   
H1  H2  EPW O   H1  H2  EPW O   H1  H2  EPW O   H1  H2  EPW O   H1  H2  EPW O   
H1  H2  EPW O   H1  H2  EPW O   H1  H2  EPW O   H1  H2  EPW O   H1  H2  EPW O   
H1  H2  EPW O   H1  H2  EPW O   H1  H2  EPW O   H1  H2  EPW O   H1  H2  EPW O   
H1  H2  EPW O   H1  H2  EPW O   H1  H2  EPW O   H1  H2  EPW O   H1  H2  EPW O   
H1  H2  EPW O   H1  H2  EPW O   H1  H2  EPW O   H1  H2  EPW O   H1  H2  EPW O   
H1  H2  EPW O   H1  H2  EPW O   H1  H2  EPW O   H1  H2  EPW O   H1  H2  EPW O   
H1  H2  EPW O   H1  H2  EPW O   H1  H2  EPW O   H1  H2  EPW O   H1  H2  EPW O   
H1  H2  EPW O   H1  H2  EPW O   H1  H2  EPW O   H1  H2  EPW O   H1  H2  EPW O   
H1  H2  EPW O   H1  H2  EPW O   H1  H2  EPW O   H1  H2  EPW O   H1  H2  EPW O   
H1  H2  EPW O   H1  H2  EPW O   H1  H2  EPW O   H1  H2  EPW O   H1  H2  EPW O   
H1  H2  EPW O   H1  H2  EPW O   H1  H2  EPW O   H1  H2  EPW O   H1  H2  EPW O   
H1  H2  EPW O   H1  H2  EPW O   H1  H2  EPW O   H1  H2  EPW O   H1  H2  EPW O   
H1  H2  EPW O   H1  H2  EPW O   H1  H2  EPW O   H1  H2  EPW O   H1  H2  EPW O   
H1  H2  EPW O   H1  H2  EPW O   H1  H2  EPW O   H1  H2  EPW O   H1  H2  EPW O   
H1  H2  EPW O   H1  H2  EPW O   H1  H2  EPW O   H1  H2  EPW O   H1  H2  EPW O   
H1  H2  EPW O   H1  H2  EPW O   H1  H2  EPW O   H1  H2  EPW O   H1  H2  EPW O   
H1  H2  EPW O   H1  H2  EPW O   H1  H2  EPW O   H1  H2  EPW O   H1  H2  EPW O   
H1  H2  EPW O   H1  H2  EPW O   H1  H2  EPW O   H1  H2  EPW O   H1  H2  EPW O   
H1  H2  EPW O   H1  H2  EPW O   H1  H2  EPW O   H1  H2  EPW O   H1  H2  EPW O   
H1  H2  EPW O   H1  H2  EPW O   H1  H2  EPW O   H1  H2  EPW O   H1  H2  EPW O   
H1  H2  EPW O   H1  H2  EPW O   H1  H2  EPW O   H1  H2  EPW O   H1  H2  EPW O   
H1  H2  EPW O   H1  H2  EPW O   H1  H2  EPW O   H1  H2  EPW O   H1  H2  EPW O   
H1  H2  EPW O   H1  H2  EPW O   H1  H2  EPW O   H1  H2  EPW O   H1  H2  EPW O   
H1  H2  EPW O   H1  H2  EPW O   H1  H2  EPW O   H1  H2  EPW O   H1  H2  EPW O   
H1  H2  EPW O   H1  H2  EPW O   H1  H2  EPW O   H1  H2  EPW O   H1  H2  EPW O   
H1  H2  EPW O   H1  H2  EPW O   H1  H2  EPW O   H1  H2  EPW O   H1  H2  EPW O   
H1  H2  EPW O   H1  H2  EPW O   H1  H2  EPW O   H1  H2  EPW O   H1  H2  EPW O   
H1  H2  EPW O   H1  H2  EPW O   H1  H2  EPW O   H1  H2  EPW O   H1  H2  EPW O   
H1  H2  EPW O   H1  H2  EPW O   H1  H2  EPW O   H1  H2  EPW O   H1  H2  EPW O   
H1  H2  EPW O   H1  H2  EPW O   H1  H2  EPW O   H1  H2  EPW O   H1  H2  EPW O   
H1  H2  EPW O   H1  H2  EPW O   H1  H2  EPW O   H1  H2  EPW O   H1  H2  EPW O   
H1  H2  EPW O   H1  H2  EPW O   H1  H2  EPW O   H1  H2  EPW O   H1  H2  EPW O   
H1  H2  EPW O   H1  H2  EPW O   H1  H2  EPW O   H1  H2  EPW O   H1  H2  EPW O   
H1  H2  EPW O   H1  H2  EPW O   H1  H2  EPW O   H1  H2  EPW O   H1  H2  EPW O   
H1  H2  EPW O   H1  H2  EPW O   H1  H2  EPW O   H1  H2  EPW O   H1  H2  EPW O   
H1  H2  EPW O   H1  H2  EPW O   H1  H2  EPW O   H1  H2  EPW O   H1  H2  EPW O   
H1  H2  EPW O   H1  H2  EPW O   H1  H2  EPW O   H1  H2  EPW O   H1  H2  EPW O   
H1  H2  EPW O   H1  H2  EPW O   H1  H2  EPW O   H1  H2  EPW O   H1  H2  EPW O   
H1  H2  EPW O   H1  H2  EPW O   H1  H2  EPW O   H1  H2  EPW O   H1  H2  EPW O   
H1  H2  EPW O   H1  H2  EPW O   H1  H2  EPW O   H1  H2  EPW O   H1  H2  EPW O   
H1  H2  EPW O   H1  H2  EPW O   H1  H2  EPW O   H1  H2  EPW O   H1  H2  EPW O   
H1  H2  EPW O   H1  H2  EPW O   H1  H2  EPW O   H1  H2  EPW O   H1  H2  EPW O   
H1  H2  EPW O   H1  H2  EPW O   H1  H2  EPW O   H1  H2  EPW O   H1  H2  EPW O   
H1  H2  EPW O   H1  H2  EPW O   H1  H2  EPW O   H1  H2  EPW O   H1  H2  EPW O   
H1  H2  EPW O   H1  H2  EPW O   H1  H2  EPW O   H1  H2  EPW O   H1  H2  EPW O   
H1  H2  EPW O   H1  H2  EPW O   H1  H2  EPW O   H1  H2  EPW O   H1  H2  EPW O   
H1  H2  EPW O   H1  H2  EPW O   H1  H2  EPW O   H1  H2  EPW O   H1  H2  EPW O   
H1  H2  EPW O   H1  H2  EPW O   H1  H2  EPW O   H1  H2  EPW O   H1  H2  EPW O   
H1  H2  EPW O   H1  H2  EPW O   H1  H2  EPW O   H1  H2  EPW O   H1  H2  EPW O   
H1  H2  EPW O   H1  H2  EPW O   H1  H2  EPW O   H1  H2  EPW O   H1  H2  EPW O   
H1  H2  EPW O   H1  H2  EPW O   H1  H2  EPW O   H1  H2  EPW O   H1  H2  EPW O   
H1  H2  EPW O   H1  H2  EPW O   H1  H2  EPW O   H1  H2  EPW O   H1  H2  EPW O   
H1  H2  EPW O   H1  H2  EPW O   H1  H2  EPW O   H1  H2  EPW O   H1  H2  EPW O   
H1  H2  EPW O   H1  H2  EPW O   H1  H2  EPW O   H1  H2  EPW O   H1  H2  EPW O   
H1  H2  EPW O   H1  H2  EPW O   H1  H2  EPW O   H1  H2  EPW O   H1  H2  EPW O   
H1  H2  EPW O   H1  H2  EPW O   H1  H2  EPW O   H1  H2  EPW O   H1  H2  EPW O   
H1  H2  EPW O   H1  H2  EPW O   H1  H2  EPW O   H1  H2  EPW O   H1  H2  EPW O   
H1  H2  EPW O   H1  H2  EPW O   H1  H2  EPW O   H1  H2  EPW O   H1  H2  EPW O   
H1  H2  EPW O   H1  H2  EPW O   H1  H2  EPW O   H1  H2  EPW O   H1  H2  EPW O   
H1  H2  EPW O   H1  H2  EPW O   H1  H2  EPW O   H1  H2  EPW O   H1  H2  EPW O   
H1  H2  EPW O   H1  H2  EPW O   H1  H2  EPW O   H1  H2  EPW O   H1  H2  EPW O   
H1  H2  EPW O   H1  H2  EPW O   H1  H2  EPW O   H1  H2  EPW O   H1  H2  EPW O   
H1  H2  EPW O   H1  H2  EPW O   H1  H2  EPW O   H1  H2  EPW O   H1  H2  EPW O   
H1  H2  EPW O   H1  H2  EPW O   H1  H2  EPW O   H1  H2  EPW O   H1  H2  EPW O   
H1  H2  EPW O   H1  H2  EPW O   H1  H2  EPW O   H1  H2  EPW O   H1  H2  EPW O   
H1  H2  EPW O   H1  H2  EPW O   H1  H2  EPW O   H1  H2  EPW O   H1  H2  EPW O   
H1  H2  EPW O   H1  H2  EPW O   H1  H2  EPW O   H1  H2  EPW O   H1  H2  EPW O   
H1  H2  EPW O   H1  H2  EPW O   H1  H2  EPW O   H1  H2  EPW O   H1  H2  EPW O   
H1  H2  EPW O   H1  H2  EPW O   H1  H2  EPW O   H1  H2  EPW O   H1  H2  EPW O   
H1  H2  EPW O   H1  H2  EPW O   H1  H2  EPW O   H1  H2  EPW O   H1  H2  EPW O   
H1  H2  EPW O   H1  H2  EPW O   H1  H2  EPW O   H1  H2  EPW O   H1  H2  EPW O   
H1  H2  EPW O   H1  H2  EPW O   H1  H2  EPW O   H1  H2  EPW O   H1  H2  EPW O   
H1  H2  EPW O   H1  H2  EPW O   H1  H2  EPW O   H1  H2  EPW O   H1  H2  EPW O   
H1  H2  EPW O   H1  H2  EPW O   H1  H2  EPW O   H1  H2  EPW O   H1  H2  EPW O   
H1  H2  EPW O   H1  H2  EPW O   H1  H2  EPW O   H1  H2  EPW O   H1  H2  EPW O   
H1  H2  EPW O   H1  H2  EPW O   H1  H2  EPW O   H1  H2  EPW O   H1  H2  EPW O   
H1  H2  EPW O   H1  H2  EPW O   H1  H2  EPW O   H1  H2  EPW O   H1  H2  EPW O   
H1  H2  EPW O   H1  H2  EPW O   H1  H2  EPW O   H1  H2  EPW O   H1  H2  EPW O   
H1  H2  EPW O   H1  H2  EPW O   H1  H2  EPW O   H1  H2  EPW O   H1  H2  EPW O   
H1  H2  EPW O   H1  H2  EPW O   H1  H2  EPW O   H1  H2  EPW O   H1  H2  EPW O   
H1  H2  EPW O   H1  H2  EPW O   H1  H2  EPW O   H1  H2  EPW O   H1  H2  EPW O   
H1  H2  EPW O   H1  H2  EPW O   H1  H2  EPW O   H1  H2  EPW O   H1  H2  EPW O   
H1  H2  EPW O   H1  H2  EPW O   H1  H2  EPW O   H1  H2  EPW O   H1  H2  EPW O   
H1  H2  EPW O   H1  H2  EPW O   H1  H2  EPW O   H1  H2  EPW O   H1  H2  EPW O   
H1  H2  EPW O   H1  H2  EPW O   H1  H2  EPW O   H1  H2  EPW O   H1  H2  EPW O   
H1  H2  EPW O   H1  H2  EPW O   H1  H2  EPW O   H1  H2  EPW O   H1  H2  EPW O   
H1  H2  EPW O   H1  H2  EPW O   H1  H2  EPW O   H1  H2  EPW O   H1  H2  EPW O   
H1  H2  EPW O   H1  H2  EPW O   H1  H2  EPW O   H1  H2  EPW O   H1  H2  EPW O   
H1  H2  EPW O   H1  H2  EPW O   H1  H2  EPW O   H1  H2  EPW O   H1  H2  EPW O   
H1  H2  EPW O   H1  H2  EPW O   H1  H2  EPW O   H1  H2  EPW O   H1  H2  EPW O   
H1  H2  EPW O   H1  H2  EPW O   H1  H2  EPW O   H1  H2  EPW O   H1  H2  EPW O   
H1  H2  EPW O   H1  H2  EPW O   H1  H2  EPW O   H1  H2  EPW O   H1  H2  EPW O   
H1  H2  EPW O   H1  H2  EPW O   H1  H2  EPW O   H1  H2  EPW O   H1  H2  EPW O   
H1  H2  EPW O   H1  H2  EPW O   H1  H2  EPW O   H1  H2  EPW O   H1  H2  EPW O   
H1  H2  EPW O   H1  H2  EPW O   H1  H2  EPW O   H1  H2  EPW O   H1  H2  EPW O   
H1  H2  EPW O   H1  H2  EPW O   H1  H2  EPW O   H1  H2  EPW O   H1  H2  EPW O   
H1  H2  EPW O   H1  H2  EPW O   H1  H2  EPW O   H1  H2  EPW O   H1  H2  EPW O   
H1  H2  EPW O   H1  H2  EPW O   H1  H2  EPW O   H1  H2  EPW O   H1  H2  EPW O   
H1  H2  EPW O   H1  H2  EPW O   H1  H2  EPW O   H1  H2  EPW O   H1  H2  EPW O   
H1  H2  EPW O   H1  H2  EPW O   H1  H2  EPW O   H1  H2  EPW O   H1  H2  EPW O   
H1  H2  EPW O   H1  H2  EPW O   H1  H2  EPW O   H1  H2  EPW O   H1  H2  EPW O   
H1  H2  EPW O   H1  H2  EPW O   H1  H2  EPW O   H1  H2  EPW O   H1  H2  EPW O   
H1  H2  EPW O   H1  H2  EPW O   H1  H2  EPW O   H1  H2  EPW O   H1  H2  EPW O   
H1  H2  EPW O   H1  H2  EPW O   H1  H2  EPW O   H1  H2  EPW O   H1  H2  EPW O   
H1  H2  EPW O   H1  H2  EPW O   H1  H2  EPW O   H1  H2  EPW O   H1  H2  EPW O   
H1  H2  EPW O   H1  H2  EPW O   H1  H2  EPW O   H1  H2  EPW O   H1  H2  EPW O   
H1  H2  EPW O   H1  H2  EPW O   H1  H2  EPW O   H1  H2  EPW O   H1  H2  EPW O   
H1  H2  EPW O   H1  H2  EPW O   H1  H2  EPW O   H1  H2  EPW O   H1  H2  EPW O   
H1  H2  EPW O   H1  H2  EPW O   H1  H2  EPW O   H1  H2  EPW O   H1  H2  EPW O   
H1  H2  EPW O   H1  H2  EPW O   H1  H2  EPW O   H1  H2  EPW O   H1  H2  EPW O   
H1  H2  EPW O   H1  H2  EPW O   H1  H2  EPW O   H1  H2  EPW O   H1  H2  EPW O   
H1  H2  EPW O   H1  H2  EPW O   H1  H2  EPW O   H1  H2  EPW O   H1  H2  EPW O   
H1  H2  EPW O   H1  H2  EPW O   H1  H2  EPW O   H1  H2  EPW O   H1  H2  EPW O   
H1  H2  EPW O   H1  H2  EPW O   H1  H2  EPW O   H1  H2  EPW O   H1  H2  EPW O   
H1  H2  EPW O   H1  H2  EPW O   H1  H2  EPW O   H1  H2  EPW O   H1  H2  EPW O   
H1  H2  EPW O   H1  H2  EPW O   H1  H2  EPW O   H1  H2  EPW O   H1  H2  EPW O   
H1  H2  EPW O   H1  H2  EPW O   H1  H2  EPW O   H1  H2  EPW O   H1  H2  EPW O   
H1  H2  EPW O   H1  H2  EPW O   H1  H2  EPW O   H1  H2  EPW O   H1  H2  EPW O   
H1  H2  EPW O   H1  H2  EPW O   H1  H2  EPW O   H1  H2  EPW O   H1  H2  EPW O   
H1  H2  EPW O   H1  H2  EPW O   H1  H2  EPW O   H1  H2  EPW O   H1  H2  EPW O   
H1  H2  EPW O   H1  H2  EPW O   H1  H2  EPW O   H1  H2  EPW O   H1  H2  EPW O   
H1  H2  EPW O   H1  H2  EPW O   H1  H2  EPW O   H1  H2  EPW O   H1  H2  EPW O   
H1  H2  EPW O   H1  H2  EPW O   H1  H2  EPW O   H1  H2  EPW O   H1  H2  EPW O   
H1  H2  EPW O   H1  H2  EPW O   H1  H2  EPW O   H1  H2  EPW O   H1  H2  EPW O   
H1  H2  EPW O   H1  H2  EPW O   H1  H2  EPW O   H1  H2  EPW O   H1  H2  EPW O   
H1  H2  EPW O   H1  H2  EPW O   H1  H2  EPW O   H1  H2  EPW O   H1  H2  EPW O   
H1  H2  EPW O   H1  H2  EPW O   H1  H2  EPW O   H1  H2  EPW O   H1  H2  EPW O   
H1  H2  EPW O   H1  H2  EPW O   H1  H2  EPW O   H1  H2  EPW O   H1  H2  EPW O   
H1  H2  EPW O   H1  H2  EPW O   H1  H2  EPW O   H1  H2  EPW O   H1  H2  EPW O   
H1  H2  EPW O   H1  H2  EPW O   H1  H2  EPW O   H1  H2  EPW O   H1  H2  EPW O   
H1  H2  EPW O   H1  H2  EPW O   H1  H2  EPW O   H1  H2  EPW O   H1  H2  EPW O   
H1  H2  EPW O   H1  H2  EPW O   H1  H2  EPW O   H1  H2  EPW O   H1  H2  EPW O   
H1  H2  EPW O   H1  H2  EPW O   H1  H2  EPW O   H1  H2  EPW O   H1  H2  EPW O   
H1  H2  EPW O   H1  H2  EPW O   H1  H2  EPW O   H1  H2  EPW O   H1  H2  EPW O   
H1  H2  EPW O   H1  H2  EPW O   H1  H2  EPW O   H1  H2  EPW O   H1  H2  EPW O   
H1  H2  EPW O   H1  H2  EPW O   H1  H2  EPW O   H1  H2  EPW O   H1  H2  EPW O   
H1  H2  EPW O   H1  H2  EPW O   H1  H2  EPW O   H1  H2  EPW O   H1  H2  EPW O   
H1  H2  EPW O   H1  H2  EPW O   H1  H2  EPW O   H1  H2  EPW O   H1  H2  EPW O   
H1  H2  EPW O   H1  H2  EPW O   H1  H2  EPW O   H1  H2  EPW O   H1  H2  EPW O   
H1  H2  EPW O   H1  H2  EPW O   H1  H2  EPW O   H1  H2  EPW O   H1  H2  EPW O   
H1  H2  EPW O   H1  H2  EPW O   H1  H2  EPW O   H1  H2  EPW O   H1  H2  EPW O   
H1  H2  EPW O   H1  H2  EPW O   H1  H2  EPW O   H1  H2  EPW O   H1  H2  EPW O   
H1  H2  EPW O   H1  H2  EPW O   H1  H2  EPW O   H1  H2  EPW O   H1  H2  EPW O   
H1  H2  EPW O   H1  H2  EPW O   H1  H2  EPW O   H1  H2  EPW O   H1  H2  EPW O   
H1  H2  EPW O   H1  H2  EPW O   H1  H2  EPW O   H1  H2  EPW O   H1  H2  EPW O   
H1  H2  EPW O   H1  H2  EPW O   H1  H2  EPW O   H1  H2  EPW O   H1  H2  EPW O   
H1  H2  EPW O   H1  H2  EPW O   H1  H2  EPW O   H1  H2  EPW O   H1  H2  EPW O   
H1  H2  EPW O   H1  H2  EPW O   H1  H2  EPW O   H1  H2  EPW O   H1  H2  EPW O   
H1  H2  EPW O   H1  H2  EPW O   H1  H2  EPW O   H1  H2  EPW O   H1  H2  EPW O   
H1  H2  EPW O   H1  H2  EPW O   H1  H2  EPW O   H1  H2  EPW O   H1  H2  EPW O   
H1  H2  EPW O   H1  H2  EPW O   H1  H2  EPW O   H1  H2  EPW O   H1  H2  EPW O   
H1  H2  EPW O   H1  H2  EPW O   H1  H2  EPW O   H1  H2  EPW O   H1  H2  EPW O   
H1  H2  EPW O   H1  H2  EPW O   H1  H2  EPW O   H1  H2  EPW O   H1  H2  EPW O   
H1  H2  EPW O   H1  H2  EPW O   H1  H2  EPW O   H1  H2  EPW O   H1  H2  EPW O   
H1  H2  EPW O   H1  H2  EPW O   H1  H2  EPW O   H1  H2  EPW O   H1  H2  EPW O   
H1  H2  EPW O   H1  H2  EPW O   H1  H2  EPW O   H1  H2  EPW O   H1  H2  EPW O   
H1  H2  EPW O   H1  H2  EPW O   H1  H2  EPW O   H1  H2  EPW O   H1  H2  EPW O   
H1  H2  EPW O   H1  H2  EPW O   H1  H2  EPW O   H1  H2  EPW O   H1  H2  EPW O   
H1  H2  EPW O   H1  H2  EPW O   H1  H2  EPW O   H1  H2  EPW O   H1  H2  EPW O   
H1  H2  EPW O   H1  H2  EPW O   H1  H2  EPW O   H1  H2  EPW O   H1  H2  EPW O   
H1  H2  EPW O   H1  H2  EPW O   H1  H2  EPW O   H1  H2  EPW O   H1  H2  EPW O   
H1  H2  EPW O   H1  H2  EPW O   H1  H2  EPW O   H1  H2  EPW O   H1  H2  EPW O   
H1  H2  EPW O   H1  H2  EPW O   H1  H2  EPW O   H1  H2  EPW O   H1  H2  EPW O   
H1  H2  EPW O   H1  H2  EPW O   H1  H2  EPW O   H1  H2  EPW O   H1  H2  EPW O   
H1  H2  EPW O   H1  H2  EPW O   H1  H2  EPW O   H1  H2  EPW O   H1  H2  EPW O   
H1  H2  EPW O   H1  H2  EPW O   H1  H2  EPW O   H1  H2  EPW O   H1  H2  EPW O   
H1  H2  EPW O   H1  H2  EPW O   H1  H2  EPW O   H1  H2  EPW O   H1  H2  EPW O   
H1  H2  EPW O   H1  H2  EPW O   H1  H2  EPW O   H1  H2  EPW O   H1  H2  EPW O   
H1  H2  EPW O   H1  H2  EPW O   H1  H2  EPW O   H1  H2  EPW O   H1  H2  EPW O   
H1  H2  EPW O   H1  H2  EPW O   H1  H2  EPW O   H1  H2  EPW O   H1  H2  EPW O   
H1  H2  EPW O   H1  H2  EPW O   H1  H2  EPW O   H1  H2  EPW O   H1  H2  EPW O   
H1  H2  EPW O   H1  H2  EPW O   H1  H2  EPW O   H1  H2  EPW O   H1  H2  EPW O   
H1  H2  EPW O   H1  H2  EPW O   H1  H2  EPW O   H1  H2  EPW O   H1  H2  EPW O   
H1  H2  EPW O   H1  H2  EPW O   H1  H2  EPW O   H1  H2  EPW O   H1  H2  EPW O   
H1  H2  EPW O   H1  H2  EPW O   H1  H2  EPW O   H1  H2  EPW O   H1  H2  EPW O   
H1  H2  EPW O   H1  H2  EPW O   H1  H2  EPW O   H1  H2  EPW O   H1  H2  EPW O   
H1  H2  EPW O   H1  H2  EPW O   H1  H2  EPW O   H1  H2  EPW O   H1  H2  EPW O   
H1  H2  EPW O   H1  H2  EPW O   H1  H2  EPW O   H1  H2  EPW O   H1  H2  EPW O   
H1  H2  EPW O   H1  H2  EPW O   H1  H2  EPW O   H1  H2  EPW O   H1  H2  EPW O   
H1  H2  EPW O   H1  H2  EPW O   H1  H2  EPW O   H1  H2  EPW O   H1  H2  EPW O   
H1  H2  EPW O   H1  H2  EPW O   H1  H2  EPW O   H1  H2  EPW O   H1  H2  EPW O   
H1  H2  EPW O   H1  H2  EPW O   H1  H2  EPW O   H1  H2  EPW O   H1  H2  EPW O   
H1  H2  EPW O   H1  H2  EPW O   H1  H2  EPW O   H1  H2  EPW O   H1  H2  EPW O   
H1  H2  EPW O   H1  H2  EPW O   H1  H2  EPW O   H1  H2  EPW O   H1  H2  EPW O   
H1  H2  EPW O   H1  H2  EPW O   H1  H2  EPW O   H1  H2  EPW O   H1  H2  EPW O   
H1  H2  EPW O   H1  H2  EPW O   H1  H2  EPW O   H1  H2  EPW O   H1  H2  EPW O   
H1  H2  EPW O   H1  H2  EPW O   H1  H2  EPW O   H1  H2  EPW O   H1  H2  EPW O   
H1  H2  EPW O   H1  H2  EPW O   H1  H2  EPW O   H1  H2  EPW O   H1  H2  EPW O   
H1  H2  EPW O   H1  H2  EPW O   H1  H2  EPW O   H1  H2  EPW O   H1  H2  EPW O   
H1  H2  EPW O   H1  H2  EPW O   H1  H2  EPW O   H1  H2  EPW O   H1  H2  EPW O   
H1  H2  EPW O   H1  H2  EPW O   H1  H2  EPW O   H1  H2  EPW O   H1  H2  EPW O   
H1  H2  EPW O   H1  H2  EPW O   H1  H2  EPW O   H1  H2  EPW O   H1  H2  EPW O   
H1  H2  EPW O   H1  H2  EPW O   H1  H2  EPW O   H1  H2  EPW O   H1  H2  EPW O   
H1  H2  EPW O   H1  H2  EPW O   H1  H2  EPW O   H1  H2  EPW O   H1  H2  EPW O   
H1  H2  EPW O   H1  H2  EPW O   H1  H2  EPW O   H1  H2  EPW O   H1  H2  EPW O   
H1  H2  EPW O   H1  H2  EPW O   H1  H2  EPW O   H1  H2  EPW O   H1  H2  EPW O   
H1  H2  EPW O   H1  H2  EPW O   H1  H2  EPW O   H1  H2  EPW O   H1  H2  EPW O   
H1  H2  EPW O   H1  H2  EPW O   H1  H2  EPW O   H1  H2  EPW O   H1  H2  EPW O   
H1  H2  EPW O   H1  H2  EPW O   H1  H2  EPW O   H1  H2  EPW O   H1  H2  EPW O   
H1  H2  EPW O   H1  H2  EPW O   H1  H2  EPW O   H1  H2  EPW O   H1  H2  EPW O   
H1  H2  EPW O   H1  H2  EPW O   H1  H2  EPW O   H1  H2  EPW O   H1  H2  EPW O   
H1  H2  EPW O   H1  H2  EPW O   H1  H2  EPW O   H1  H2  EPW O   H1  H2  EPW O   
H1  H2  EPW O   H1  H2  EPW O   H1  H2  EPW O   H1  H2  EPW O   H1  H2  EPW O   
H1  H2  EPW O   H1  H2  EPW O   H1  H2  EPW O   H1  H2  EPW O   H1  H2  EPW O   
H1  H2  EPW O   H1  H2  EPW O   H1  H2  EPW O   H1  H2  EPW O   H1  H2  EPW O   
H1  H2  EPW O   H1  H2  EPW O   H1  H2  EPW O   H1  H2  EPW O   H1  H2  EPW O   
H1  H2  EPW O   H1  H2  EPW O   H1  H2  EPW O   H1  H2  EPW O   H1  H2  EPW O   
H1  H2  EPW O   H1  H2  EPW O   H1  H2  EPW O   H1  H2  EPW O   H1  H2  EPW O   
H1  H2  EPW O   H1  H2  EPW O   H1  H2  EPW O   H1  H2  EPW O   H1  H2  EPW O   
H1  H2  EPW O   H1  H2  EPW O   H1  H2  EPW O   H1  H2  EPW O   H1  H2  EPW O   
H1  H2  EPW O   H1  H2  EPW O   H1  H2  EPW O   H1  H2  EPW O   H1  H2  EPW O   
H1  H2  EPW O   H1  H2  EPW O   H1  H2  EPW O   H1  H2  EPW O   H1  H2  EPW O   
H1  H2  EPW O   H1  H2  EPW O   H1  H2  EPW O   H1  H2  EPW O   H1  H2  EPW O   
H1  H2  EPW O   H1  H2  EPW O   H1  H2  EPW O   H1  H2  EPW O   H1  H2  EPW O   
H1  H2  EPW O   H1  H2  EPW O   H1  H2  EPW O   H1  H2  EPW O   H1  H2  EPW O   
H1  H2  EPW O   H1  H2  EPW O   H1  H2  EPW O   H1  H2  EPW O   H1  H2  EPW O   
H1  H2  EPW O   H1  H2  EPW O   H1  H2  EPW O   H1  H2  EPW O   H1  H2  EPW O   
H1  H2  EPW O   H1  H2  EPW O   H1  H2  EPW O   H1  H2  EPW O   H1  H2  EPW O   
H1  H2  EPW O   H1  H2  EPW O   H1  H2  EPW O   H1  H2  EPW O   H1  H2  EPW O   
H1  H2  EPW O   H1  H2  EPW O   H1  H2  EPW O   H1  H2  EPW O   H1  H2  EPW O   
H1  H2  EPW O   H1  H2  EPW O   H1  H2  EPW O   H1  H2  EPW O   H1  H2  EPW O   
H1  H2  EPW O   H1  H2  EPW O   H1  H2  EPW O   H1  H2  EPW O   H1  H2  EPW O   
H1  H2  EPW O   H1  H2  EPW O   H1  H2  EPW O   H1  H2  EPW O   H1  H2  EPW O   
H1  H2  EPW O   H1  H2  EPW O   H1  H2  EPW O   H1  H2  EPW O   H1  H2  EPW O   
H1  H2  EPW O   H1  H2  EPW O   H1  H2  EPW O   H1  H2  EPW O   H1  H2  EPW O   
H1  H2  EPW O   H1  H2  EPW O   H1  H2  EPW O   H1  H2  EPW O   H1  H2  EPW O   
H1  H2  EPW O   H1  H2  EPW O   H1  H2  EPW O   H1  H2  EPW O   H1  H2  EPW O   
H1  H2  EPW O   H1  H2  EPW O   H1  H2  EPW O   H1  H2  EPW O   H1  H2  EPW O   
H1  H2  EPW O   H1  H2  EPW O   H1  H2  EPW O   H1  H2  EPW O   H1  H2  EPW O   
H1  H2  EPW O   H1  H2  EPW O   H1  H2  EPW O   H1  H2  EPW O   H1  H2  EPW O   
H1  H2  EPW O   H1  H2  EPW O   H1  H2  EPW O   H1  H2  EPW O   H1  H2  EPW O   
H1  H2  EPW O   H1  H2  EPW O   H1  H2  EPW O   H1  H2  EPW O   H1  H2  EPW O   
H1  H2  EPW O   H1  H2  EPW O   H1  H2  EPW O   H1  H2  EPW O   H1  H2  EPW O   
H1  H2  EPW O   H1  H2  EPW O   H1  H2  EPW O   H1  H2  EPW O   H1  H2  EPW O   
H1  H2  EPW O   H1  H2  EPW O   H1  H2  EPW O   H1  H2  EPW O   H1  H2  EPW O   
H1  H2  EPW O   H1  H2  EPW O   H1  H2  EPW O   H1  H2  EPW O   H1  H2  EPW O   
H1  H2  EPW O   H1  H2  EPW O   H1  H2  EPW O   H1  H2  EPW O   H1  H2  EPW O   
H1  H2  EPW O   H1  H2  EPW O   H1  H2  EPW O   H1  H2  EPW O   H1  H2  EPW O   
H1  H2  EPW O   H1  H2  EPW O   H1  H2  EPW O   H1  H2  EPW O   H1  H2  EPW O   
H1  H2  EPW O   H1  H2  EPW O   H1  H2  EPW O   H1  H2  EPW O   H1  H2  EPW O   
H1  H2  EPW O   H1  H2  EPW O   H1  H2  EPW O   H1  H2  EPW O   H1  H2  EPW O   
H1  H2  EPW O   H1  H2  EPW O   H1  H2  EPW O   H1  H2  EPW O   H1  H2  EPW O   
H1  H2  EPW O   H1  H2  EPW O   H1  H2  EPW O   H1  H2  EPW O   H1  H2  EPW O   
H1  H2  EPW O   H1  H2  EPW O   H1  H2  EPW O   H1  H2  EPW O   H1  H2  EPW O   
H1  H2  EPW O   H1  H2  EPW O   H1  H2  EPW O   H1  H2  EPW O   H1  H2  EPW O   
H1  H2  EPW O   H1  H2  EPW O   H1  H2  EPW O   H1  H2  EPW O   H1  H2  EPW O   
H1  H2  EPW O   H1  H2  EPW O   H1  H2  EPW O   H1  H2  EPW O   H1  H2  EPW O   
H1  H2  EPW O   H1  H2  EPW O   H1  H2  EPW O   H1  H2  EPW O   H1  H2  EPW O   
H1  H2  EPW O   H1  H2  EPW O   H1  H2  EPW O   H1  H2  EPW O   H1  H2  EPW O   
H1  H2  EPW O   H1  H2  EPW O   H1  H2  EPW O   H1  H2  EPW O   H1  H2  EPW O   
H1  H2  EPW O   H1  H2  EPW O   H1  H2  EPW O   H1  H2  EPW O   H1  H2  EPW O   
H1  H2  EPW O   H1  H2  EPW O   H1  H2  EPW O   H1  H2  EPW O   H1  H2  EPW O   
H1  H2  EPW O   H1  H2  EPW O   H1  H2  EPW O   H1  H2  EPW O   H1  H2  EPW O   
H1  H2  EPW O   H1  H2  EPW O   H1  H2  EPW O   H1  H2  EPW O   H1  H2  EPW O   
H1  H2  EPW O   H1  H2  EPW O   H1  H2  EPW O   H1  H2  EPW O   H1  H2  EPW O   
H1  H2  EPW O   H1  H2  EPW O   H1  H2  EPW O   H1  H2  EPW O   H1  H2  EPW O   
H1  H2  EPW O   H1  H2  EPW O   H1  H2  EPW O   H1  H2  EPW O   H1  H2  EPW O   
H1  H2  EPW O   H1  H2  EPW O   H1  H2  EPW O   H1  H2  EPW O   H1  H2  EPW O   
H1  H2  EPW O   H1  H2  EPW O   H1  H2  EPW O   H1  H2  EPW O   H1  H2  EPW O   
H1  H2  EPW O   H1  H2  EPW O   H1  H2  EPW O   H1  H2  EPW O   H1  H2  EPW O   
H1  H2  EPW O   H1  H2  EPW O   H1  H2  EPW O   H1  H2  EPW O   H1  H2  EPW O   
H1  H2  EPW O   H1  H2  EPW O   H1  H2  EPW O   H1  H2  EPW O   H1  H2  EPW O   
H1  H2  EPW O   H1  H2  EPW O   H1  H2  EPW O   H1  H2  EPW O   H1  H2  EPW O   
H1  H2  EPW O   H1  H2  EPW O   H1  H2  EPW O   H1  H2  EPW O   H1  H2  EPW O   
H1  H2  EPW O   H1  H2  EPW O   H1  H2  EPW O   H1  H2  EPW O   H1  H2  EPW O   
H1  H2  EPW O   H1  H2  EPW O   H1  H2  EPW O   H1  H2  EPW O   H1  H2  EPW O   
H1  H2  EPW O   H1  H2  EPW O   H1  H2  EPW O   H1  H2  EPW O   H1  H2  EPW O   
H1  H2  EPW O   H1  H2  EPW O   H1  H2  EPW O   H1  H2  EPW O   H1  H2  EPW O   
H1  H2  EPW O   H1  H2  EPW O   H1  H2  EPW O   H1  H2  EPW O   H1  H2  EPW O   
H1  H2  EPW O   H1  H2  EPW O   H1  H2  EPW O   H1  H2  EPW O   H1  H2  EPW O   
H1  H2  EPW O   H1  H2  EPW O   H1  H2  EPW O   H1  H2  EPW O   H1  H2  EPW O   
H1  H2  EPW O   H1  H2  EPW O   H1  H2  EPW O   H1  H2  EPW O   H1  H2  EPW O   
H1  H2  EPW O   H1  H2  EPW O   H1  H2  EPW O   H1  H2  EPW O   H1  H2  EPW O   
H1  H2  EPW O   H1  H2  EPW O   H1  H2  EPW O   H1  H2  EPW O   H1  H2  EPW O   
H1  H2  EPW O   H1  H2  EPW O   H1  H2  EPW O   H1  H2  EPW O   H1  H2  EPW O   
H1  H2  EPW O   H1  H2  EPW O   H1  H2  EPW O   H1  H2  EPW O   H1  H2  EPW O   
H1  H2  EPW O   H1  H2  EPW O   H1  H2  EPW O   H1  H2  EPW O   H1  H2  EPW O   
H1  H2  EPW O   H1  H2  EPW O   H1  H2  EPW O   H1  H2  EPW O   H1  H2  EPW O   
H1  H2  EPW O   H1  H2  EPW O   H1  H2  EPW O   H1  H2  EPW O   H1  H2  EPW O   
H1  H2  EPW O   H1  H2  EPW O   H1  H2  EPW O   H1  H2  EPW O   H1  H2  EPW O   
H1  H2  EPW O   H1  H2  EPW O   H1  H2  EPW O   H1  H2  EPW O   H1  H2  EPW O   
H1  H2  EPW O   H1  H2  EPW O   H1  H2  EPW O   H1  H2  EPW O   H1  H2  EPW O   
H1  H2  EPW O   H1  H2  EPW O   H1  H2  EPW O   H1  H2  EPW O   H1  H2  EPW O   
H1  H2  EPW O   H1  H2  EPW O   H1  H2  EPW O   H1  H2  EPW O   H1  H2  EPW O   
H1  H2  EPW O   H1  H2  EPW O   H1  H2  EPW O   H1  H2  EPW O   H1  H2  EPW O   
H1  H2  EPW O   H1  H2  EPW O   H1  H2  EPW O   H1  H2  EPW O   H1  H2  EPW O   
H1  H2  EPW O   H1  H2  EPW O   H1  H2  EPW O   H1  H2  EPW O   H1  H2  EPW O   
H1  H2  EPW O   H1  H2  EPW O   H1  H2  EPW O   H1  H2  EPW O   H1  H2  EPW O   
H1  H2  EPW O   H1  H2  EPW O   H1  H2  EPW O   H1  H2  EPW O   H1  H2  EPW O   
H1  H2  EPW O   H1  H2  EPW O   H1  H2  EPW O   H1  H2  EPW O   H1  H2  EPW O   
H1  H2  EPW O   H1  H2  EPW O   H1  H2  EPW O   H1  H2  EPW O   H1  H2  EPW O   
H1  H2  EPW O   H1  H2  EPW O   H1  H2  EPW O   H1  H2  EPW O   H1  H2  EPW O   
H1  H2  EPW O   H1  H2  EPW O   H1  H2  EPW O   H1  H2  EPW O   H1  H2  EPW O   
H1  H2  EPW O   H1  H2  EPW O   H1  H2  EPW O   H1  H2  EPW O   H1  H2  EPW O   
H1  H2  EPW O   H1  H2  EPW O   H1  H2  EPW O   H1  H2  EPW O   H1  H2  EPW O   
H1  H2  EPW O   H1  H2  EPW O   H1  H2  EPW O   H1  H2  EPW O   H1  H2  EPW O   
H1  H2  EPW O   H1  H2  EPW O   H1  H2  EPW O   H1  H2  EPW O   H1  H2  EPW O   
H1  H2  EPW O   H1  H2  EPW O   H1  H2  EPW O   H1  H2  EPW O   H1  H2  EPW O   
H1  H2  EPW O   H1  H2  EPW O   H1  H2  EPW O   H1  H2  EPW O   H1  H2  EPW O   
H1  H2  EPW O   H1  H2  EPW O   H1  H2  EPW O   H1  H2  EPW O   H1  H2  EPW O   
H1  H2  EPW O   H1  H2  EPW O   H1  H2  EPW O   H1  H2  EPW O   H1  H2  EPW O   
H1  H2  EPW O   H1  H2  EPW O   H1  H2  EPW O   H1  H2  EPW O   H1  H2  EPW O   
H1  H2  EPW O   H1  H2  EPW O   H1  H2  EPW O   H1  H2  EPW O   H1  H2  EPW O   
H1  H2  EPW O   H1  H2  EPW O   H1  H2  EPW O   H1  H2  EPW O   H1  H2  EPW O   
H1  H2  EPW O   H1  H2  EPW O   H1  H2  EPW O   H1  H2  EPW O   H1  H2  EPW O   
H1  H2  EPW O   H1  H2  EPW O   H1  H2  EPW O   H1  H2  EPW O   H1  H2  EPW O   
H1  H2  EPW O   H1  H2  EPW O   H1  H2  EPW O   H1  H2  EPW O   H1  H2  EPW O   
H1  H2  EPW O   H1  H2  EPW O   H1  H2  EPW O   H1  H2  EPW O   H1  H2  EPW O   
H1  H2  EPW O   H1  H2  EPW O   H1  H2  EPW O   H1  H2  EPW O   H1  H2  EPW O   
H1  H2  EPW O   H1  H2  EPW O   H1  H2  EPW O   H1  H2  EPW O   H1  H2  EPW O   
H1  H2  EPW O   H1  H2  EPW O   H1  H2  EPW O   H1  H2  EPW O   H1  H2  EPW O   
H1  H2  EPW O   H1  H2  EPW O   H1  H2  EPW O   H1  H2  EPW O   H1  H2  EPW O   
H1  H2  EPW O   H1  H2  EPW O   H1  H2  EPW O   H1  H2  EPW O   H1  H2  EPW O   
H1  H2  EPW O   H1  H2  EPW O   H1  H2  EPW O   H1  H2  EPW O   H1  H2  EPW O   
H1  H2  EPW O   H1  H2  EPW O   H1  H2  EPW O   H1  H2  EPW O   H1  H2  EPW O   
H1  H2  EPW O   H1  H2  EPW O   H1  H2  EPW O   H1  H2  EPW O   H1  H2  EPW O   
H1  H2  EPW O   H1  H2  EPW O   H1  H2  EPW O   H1  H2  EPW O   H1  H2  EPW O   
H1  H2  EPW O   H1  H2  EPW O   H1  H2  EPW O   H1  H2  EPW O   H1  H2  EPW O   
H1  H2  EPW O   H1  H2  EPW O   H1  H2  EPW O   H1  H2  EPW O   H1  H2  EPW O   
H1  H2  EPW O   H1  H2  EPW O   H1  H2  EPW O   H1  H2  EPW O   H1  H2  EPW O   
H1  H2  EPW O   H1  H2  EPW O   H1  H2  EPW O   H1  H2  EPW O   H1  H2  EPW O   
H1  H2  EPW O   H1  H2  EPW O   H1  H2  EPW O   H1  H2  EPW O   H1  H2  EPW O   
H1  H2  EPW O   H1  H2  EPW O   H1  H2  EPW O   H1  H2  EPW O   H1  H2  EPW O   
H1  H2  EPW O   H1  H2  EPW O   H1  H2  EPW O   H1  H2  EPW O   H1  H2  EPW O   
H1  H2  EPW O   H1  H2  EPW O   H1  H2  EPW O   H1  H2  EPW O   H1  H2  EPW O   
H1  H2  EPW O   H1  H2  EPW O   H1  H2  EPW O   H1  H2  EPW O   H1  H2  EPW O   
H1  H2  EPW O   H1  H2  EPW O   H1  H2  EPW O   H1  H2  EPW O   H1  H2  EPW O   
H1  H2  EPW O   H1  H2  EPW O   H1  H2  EPW O   H1  H2  EPW O   H1  H2  EPW O   
H1  H2  EPW O   H1  H2  EPW O   H1  H2  EPW O   H1  H2  EPW O   H1  H2  EPW O   
H1  H2  EPW O   H1  H2  EPW O   H1  H2  EPW O   H1  H2  EPW O   H1  H2  EPW O   
H1  H2  EPW O   H1  H2  EPW O   H1  H2  EPW O   H1  H2  EPW O   H1  H2  EPW O   
H1  H2  EPW O   H1  H2  EPW O   H1  H2  EPW O   H1  H2  EPW O   H1  H2  EPW O   
H1  H2  EPW O   H1  H2  EPW O   H1  H2  EPW O   H1  H2  EPW O   H1  H2  EPW O   
H1  H2  EPW O   H1  H2  EPW O   H1  H2  EPW O   H1  H2  EPW O   H1  H2  EPW O   
H1  H2  EPW O   H1  H2  EPW O   H1  H2  EPW O   H1  H2  EPW O   H1  H2  EPW O   
H1  H2  EPW O   H1  H2  EPW O   H1  H2  EPW O   H1  H2  EPW O   H1  H2  EPW O   
H1  H2  EPW O   H1  H2  EPW O   H1  H2  EPW O   H1  H2  EPW O   H1  H2  EPW O   
H1  H2  EPW O   H1  H2  EPW O   H1  H2  EPW O   H1  H2  EPW O   H1  H2  EPW O   
H1  H2  EPW O   H1  H2  EPW O   H1  H2  EPW O   H1  H2  EPW O   H1  H2  EPW O   
H1  H2  EPW O   H1  H2  EPW O   H1  H2  EPW O   H1  H2  EPW O   H1  H2  EPW O   
H1  H2  EPW O   H1  H2  EPW O   H1  H2  EPW O   H1  H2  EPW O   H1  H2  EPW O   
H1  H2  EPW O   H1  H2  EPW O   H1  H2  EPW O   H1  H2  EPW O   H1  H2  EPW O   
H1  H2  EPW O   H1  H2  EPW O   H1  H2  EPW O   H1  H2  EPW O   H1  H2  EPW O   
H1  H2  EPW O   H1  H2  EPW O   H1  H2  EPW O   H1  H2  EPW O   H1  H2  EPW O   
H1  H2  EPW O   H1  H2  EPW O   H1  H2  EPW O   H1  H2  EPW O   H1  H2  EPW O   
H1  H2  EPW O   H1  H2  EPW O   H1  H2  EPW O   H1  H2  EPW O   H1  H2  EPW O   
H1  H2  EPW O   H1  H2  EPW O   H1  H2  EPW O   H1  H2  EPW O   H1  H2  EPW O   
H1  H2  EPW O   H1  H2  EPW O   H1  H2  EPW O   H1  H2  EPW O   H1  H2  EPW O   
H1  H2  EPW O   H1  H2  EPW O   H1  H2  EPW O   H1  H2  EPW O   H1  H2  EPW O   
H1  H2  EPW O   H1  H2  EPW O   H1  H2  EPW O   H1  H2  EPW O   H1  H2  EPW O   
H1  H2  EPW O   H1  H2  EPW O   H1  H2  EPW O   H1  H2  EPW O   H1  H2  EPW O   
H1  H2  EPW O   H1  H2  EPW O   H1  H2  EPW O   H1  H2  EPW O   H1  H2  EPW O   
H1  H2  EPW O   H1  H2  EPW O   H1  H2  EPW O   H1  H2  EPW O   H1  H2  EPW O   
H1  H2  EPW O   H1  H2  EPW O   H1  H2  EPW O   H1  H2  EPW O   H1  H2  EPW O   
H1  H2  EPW O   H1  H2  EPW O   H1  H2  EPW O   H1  H2  EPW O   H1  H2  EPW O   
H1  H2  EPW O   H1  H2  EPW O   H1  H2  EPW O   H1  H2  EPW O   H1  H2  EPW O   
H1  H2  EPW O   H1  H2  EPW O   H1  H2  EPW O   H1  H2  EPW O   H1  H2  EPW O   
H1  H2  EPW O   H1  H2  EPW O   H1  H2  EPW O   H1  H2  EPW O   H1  H2  EPW O   
H1  H2  EPW O   H1  H2  EPW O   H1  H2  EPW O   H1  H2  EPW O   H1  H2  EPW O   
H1  H2  EPW O   H1  H2  EPW O   H1  H2  EPW O   H1  H2  EPW O   H1  H2  EPW O   
H1  H2  EPW O   H1  H2  EPW O   H1  H2  EPW O   H1  H2  EPW O   H1  H2  EPW O   
H1  H2  EPW O   H1  H2  EPW O   H1  H2  EPW O   H1  H2  EPW O   H1  H2  EPW O   
H1  H2  EPW O   H1  H2  EPW O   H1  H2  EPW O   H1  H2  EPW O   H1  H2  EPW O   
H1  H2  EPW O   H1  H2  EPW O   H1  H2  EPW O   H1  H2  EPW O   H1  H2  EPW O   
H1  H2  EPW O   H1  H2  EPW O   H1  H2  EPW O   H1  H2  EPW O   H1  H2  EPW O   
H1  H2  EPW O   H1  H2  EPW O   H1  H2  EPW O   H1  H2  EPW O   H1  H2  EPW O   
H1  H2  EPW O   H1  H2  EPW O   H1  H2  EPW O   H1  H2  EPW O   H1  H2  EPW O   
H1  H2  EPW O   H1  H2  EPW O   H1  H2  EPW O   H1  H2  EPW O   H1  H2  EPW O   
H1  H2  EPW O   H1  H2  EPW O   H1  H2  EPW O   H1  H2  EPW O   H1  H2  EPW O   
H1  H2  EPW O   H1  H2  EPW O   H1  H2  EPW O   H1  H2  EPW O   H1  H2  EPW O   
H1  H2  EPW O   H1  H2  EPW O   H1  H2  EPW O   H1  H2  EPW O   H1  H2  EPW O   
H1  H2  EPW O   H1  H2  EPW O   H1  H2  EPW O   H1  H2  EPW O   H1  H2  EPW O   
H1  H2  EPW O   H1  H2  EPW O   H1  H2  EPW O   H1  H2  EPW O   H1  H2  EPW O   
H1  H2  EPW O   H1  H2  EPW O   H1  H2  EPW O   H1  H2  EPW O   H1  H2  EPW O   
H1  H2  EPW O   H1  H2  EPW O   H1  H2  EPW O   H1  H2  EPW O   H1  H2  EPW O   
H1  H2  EPW O   H1  H2  EPW O   H1  H2  EPW O   H1  H2  EPW O   H1  H2  EPW O   
H1  H2  EPW O   H1  H2  EPW O   H1  H2  EPW O   H1  H2  EPW O   H1  H2  EPW O   
H1  H2  EPW O   H1  H2  EPW O   H1  H2  EPW O   H1  H2  EPW O   H1  H2  EPW O   
H1  H2  EPW O   H1  H2  EPW O   H1  H2  EPW O   H1  H2  EPW O   H1  H2  EPW O   
H1  H2  EPW O   H1  H2  EPW O   H1  H2  EPW O   H1  H2  EPW O   H1  H2  EPW O   
H1  H2  EPW O   H1  H2  EPW O   H1  H2  EPW O   H1  H2  EPW O   H1  H2  EPW O   
H1  H2  EPW O   H1  H2  EPW O   H1  H2  EPW O   H1  H2  EPW O   H1  H2  EPW O   
H1  H2  EPW O   H1  H2  EPW O   H1  H2  EPW O   H1  H2  EPW O   H1  H2  EPW O   
H1  H2  EPW O   H1  H2  EPW O   H1  H2  EPW O   H1  H2  EPW O   H1  H2  EPW O   
H1  H2  EPW O   H1  H2  EPW O   H1  H2  EPW O   H1  H2  EPW O   H1  H2  EPW O   
H1  H2  EPW O   H1  H2  EPW O   H1  H2  EPW O   H1  H2  EPW O   H1  H2  EPW O   
H1  H2  EPW O   H1  H2  EPW O   H1  H2  EPW O   H1  H2  EPW O   H1  H2  EPW O   
H1  H2  EPW O   H1  H2  EPW O   H1  H2  EPW O   H1  H2  EPW O   H1  H2  EPW O   
H1  H2  EPW O   H1  H2  EPW O   H1  H2  EPW O   H1  H2  EPW O   H1  H2  EPW O   
H1  H2  EPW O   H1  H2  EPW O   H1  H2  EPW O   H1  H2  EPW O   H1  H2  EPW O   
H1  H2  EPW O   H1  H2  EPW O   H1  H2  EPW O   H1  H2  EPW O   H1  H2  EPW O   
H1  H2  EPW O   H1  H2  EPW O   H1  H2  EPW O   H1  H2  EPW O   H1  H2  EPW O   
H1  H2  EPW O   H1  H2  EPW O   H1  H2  EPW O   H1  H2  EPW O   H1  H2  EPW O   
H1  H2  EPW O   H1  H2  EPW O   H1  H2  EPW O   H1  H2  EPW O   H1  H2  EPW O   
H1  H2  EPW O   H1  H2  EPW O   H1  H2  EPW O   H1  H2  EPW O   H1  H2  EPW O   
H1  H2  EPW O   H1  H2  EPW O   H1  H2  EPW O   H1  H2  EPW O   H1  H2  EPW O   
H1  H2  EPW O   H1  H2  EPW O   H1  H2  EPW O   H1  H2  EPW O   H1  H2  EPW O   
H1  H2  EPW O   H1  H2  EPW O   H1  H2  EPW O   H1  H2  EPW O   H1  H2  EPW O   
H1  H2  EPW O   H1  H2  EPW O   H1  H2  EPW O   H1  H2  EPW O   H1  H2  EPW O   
H1  H2  EPW O   H1  H2  EPW O   H1  H2  EPW O   H1  H2  EPW O   H1  H2  EPW O   
H1  H2  EPW O   H1  H2  EPW O   H1  H2  EPW O   H1  H2  EPW O   H1  H2  EPW O   
H1  H2  EPW O   H1  H2  EPW O   H1  H2  EPW O   H1  H2  EPW O   H1  H2  EPW O   
H1  H2  EPW O   H1  H2  EPW O   H1  H2  EPW O   H1  H2  EPW O   H1  H2  EPW O   
H1  H2  EPW O   H1  H2  EPW O   H1  H2  EPW O   H1  H2  EPW O   H1  H2  EPW O   
H1  H2  EPW O   H1  H2  EPW O   H1  H2  EPW O   H1  H2  EPW O   H1  H2  EPW O   
H1  H2  EPW O   H1  H2  EPW O   H1  H2  EPW O   H1  H2  EPW O   H1  H2  EPW O   
H1  H2  EPW O   H1  H2  EPW O   H1  H2  EPW O   H1  H2  EPW O   H1  H2  EPW O   
H1  H2  EPW O   H1  H2  EPW O   H1  H2  EPW O   H1  H2  EPW O   H1  H2  EPW O   
H1  H2  EPW O   H1  H2  EPW O   H1  H2  EPW O   H1  H2  EPW O   H1  H2  EPW O   
H1  H2  EPW O   H1  H2  EPW O   H1  H2  EPW O   H1  H2  EPW O   H1  H2  EPW O   
H1  H2  EPW O   H1  H2  EPW O   H1  H2  EPW O   H1  H2  EPW O   H1  H2  EPW O   
H1  H2  EPW O   H1  H2  EPW O   H1  H2  EPW O   H1  H2  EPW O   H1  H2  EPW O   
H1  H2  EPW O   H1  H2  EPW O   H1  H2  EPW O   H1  H2  EPW O   H1  H2  EPW O   
H1  H2  EPW O   H1  H2  EPW O   H1  H2  EPW O   H1  H2  EPW O   H1  H2  EPW O   
H1  H2  EPW O   H1  H2  EPW O   H1  H2  EPW O   H1  H2  EPW O   H1  H2  EPW O   
H1  H2  EPW O   H1  H2  EPW O   H1  H2  EPW O   H1  H2  EPW O   H1  H2  EPW O   
H1  H2  EPW O   H1  H2  EPW O   H1  H2  EPW O   H1  H2  EPW O   H1  H2  EPW O   
H1  H2  EPW O   H1  H2  EPW O   H1  H2  EPW O   H1  H2  EPW O   H1  H2  EPW O   
H1  H2  EPW O   H1  H2  EPW O   H1  H2  EPW O   H1  H2  EPW O   H1  H2  EPW O   
H1  H2  EPW O   H1  H2  EPW O   H1  H2  EPW O   H1  H2  EPW O   H1  H2  EPW O   
H1  H2  EPW O   H1  H2  EPW O   H1  H2  EPW O   H1  H2  EPW O   H1  H2  EPW O   
H1  H2  EPW O   H1  H2  EPW O   H1  H2  EPW O   H1  H2  EPW O   H1  H2  EPW O   
H1  H2  EPW O   H1  H2  EPW O   H1  H2  EPW O   H1  H2  EPW O   H1  H2  EPW O   
H1  H2  EPW O   H1  H2  EPW O   H1  H2  EPW O   H1  H2  EPW O   H1  H2  EPW O   
H1  H2  EPW O   H1  H2  EPW O   H1  H2  EPW O   H1  H2  EPW O   H1  H2  EPW O   
H1  H2  EPW O   H1  H2  EPW O   H1  H2  EPW O   H1  H2  EPW O   H1  H2  EPW O   
H1  H2  EPW O   H1  H2  EPW O   H1  H2  EPW O   H1  H2  EPW O   H1  H2  EPW O   
H1  H2  EPW O   H1  H2  EPW O   H1  H2  EPW O   H1  H2  EPW O   H1  H2  EPW O   
H1  H2  EPW O   H1  H2  EPW O   H1  H2  EPW O   H1  H2  EPW O   H1  H2  EPW O   
H1  H2  EPW O   H1  H2  EPW O   H1  H2  EPW O   H1  H2  EPW O   H1  H2  EPW O   
H1  H2  EPW O   H1  H2  EPW O   H1  H2  EPW O   H1  H2  EPW O   H1  H2  EPW O   
H1  H2  EPW O   H1  H2  EPW O   H1  H2  EPW O   H1  H2  EPW O   H1  H2  EPW O   
H1  H2  EPW O   H1  H2  EPW O   H1  H2  EPW O   H1  H2  EPW O   H1  H2  EPW O   
H1  H2  EPW O   H1  H2  EPW O   H1  H2  EPW O   H1  H2  EPW O   H1  H2  EPW O   
H1  H2  EPW O   H1  H2  EPW O   H1  H2  EPW O   H1  H2  EPW O   H1  H2  EPW O   
H1  H2  EPW O   H1  H2  EPW O   H1  H2  EPW O   H1  H2  EPW O   H1  H2  EPW O   
H1  H2  EPW O   H1  H2  EPW O   H1  H2  EPW O   H1  H2  EPW O   H1  H2  EPW O   
H1  H2  EPW O   H1  H2  EPW O   H1  H2  EPW O   H1  H2  EPW O   H1  H2  EPW O   
H1  H2  EPW O   H1  H2  EPW O   H1  H2  EPW O   H1  H2  EPW O   H1  H2  EPW O   
H1  H2  EPW O   H1  H2  EPW O   H1  H2  EPW O   H1  H2  EPW O   H1  H2  EPW O   
H1  H2  EPW O   H1  H2  EPW O   H1  H2  EPW O   H1  H2  EPW O   H1  H2  EPW O   
H1  H2  EPW O   H1  H2  EPW O   H1  H2  EPW O   H1  H2  EPW O   H1  H2  EPW O   
H1  H2  EPW O   H1  H2  EPW O   H1  H2  EPW O   H1  H2  EPW O   H1  H2  EPW O   
H1  H2  EPW O   H1  H2  EPW O   H1  H2  EPW O   H1  H2  EPW O   H1  H2  EPW O   
H1  H2  EPW O   H1  H2  EPW O   H1  H2  EPW O   H1  H2  EPW O   H1  H2  EPW O   
H1  H2  EPW O   H1  H2  EPW O   H1  H2  EPW O   H1  H2  EPW O   H1  H2  EPW O   
H1  H2  EPW O   H1  H2  EPW O   H1  H2  EPW O   H1  H2  EPW O   H1  H2  EPW O   
H1  H2  EPW O   H1  H2  EPW O   H1  H2  EPW O   H1  H2  EPW O   H1  H2  EPW O   
H1  H2  EPW O   H1  H2  EPW O   H1  H2  EPW O   H1  H2  EPW O   H1  H2  EPW O   
H1  H2  EPW O   H1  H2  EPW O   H1  H2  EPW O   H1  H2  EPW O   H1  H2  EPW O   
H1  H2  EPW O   H1  H2  EPW O   H1  H2  EPW O   H1  H2  EPW O   H1  H2  EPW O   
H1  H2  EPW O   H1  H2  EPW O   H1  H2  EPW O   H1  H2  EPW O   H1  H2  EPW O   
H1  H2  EPW O   H1  H2  EPW O   H1  H2  EPW O   H1  H2  EPW O   H1  H2  EPW O   
H1  H2  EPW O   H1  H2  EPW O   H1  H2  EPW O   H1  H2  EPW O   H1  H2  EPW O   
H1  H2  EPW O   H1  H2  EPW O   H1  H2  EPW O   H1  H2  EPW O   H1  H2  EPW O   
H1  H2  EPW O   H1  H2  EPW O   H1  H2  EPW O   H1  H2  EPW O   H1  H2  EPW O   
H1  H2  EPW O   H1  H2  EPW O   H1  H2  EPW O   H1  H2  EPW O   H1  H2  EPW O   
H1  H2  EPW O   H1  H2  EPW O   H1  H2  EPW O   H1  H2  EPW O   H1  H2  EPW O   
H1  H2  EPW O   H1  H2  EPW O   H1  H2  EPW O   H1  H2  EPW O   H1  H2  EPW O   
H1  H2  EPW O   H1  H2  EPW O   H1  H2  EPW O   H1  H2  EPW O   H1  H2  EPW O   
H1  H2  EPW O   H1  H2  EPW O   H1  H2  EPW O   H1  H2  EPW O   H1  H2  EPW O   
H1  H2  EPW O   H1  H2  EPW O   H1  H2  EPW O   H1  H2  EPW O   H1  H2  EPW O   
H1  H2  EPW O   H1  H2  EPW O   H1  H2  EPW O   H1  H2  EPW O   H1  H2  EPW O   
H1  H2  EPW O   H1  H2  EPW O   H1  H2  EPW O   H1  H2  EPW O   H1  H2  EPW O   
H1  H2  EPW O   H1  H2  EPW O   H1  H2  EPW O   H1  H2  EPW O   H1  H2  EPW O   
H1  H2  EPW O   H1  H2  EPW O   H1  H2  EPW O   H1  H2  EPW O   H1  H2  EPW O   
H1  H2  EPW O   H1  H2  EPW O   H1  H2  EPW O   H1  H2  EPW O   H1  H2  EPW O   
H1  H2  EPW O   H1  H2  EPW O   H1  H2  EPW O   H1  H2  EPW O   H1  H2  EPW O   
H1  H2  EPW O   H1  H2  EPW O   H1  H2  EPW O   H1  H2  EPW O   H1  H2  EPW O   
H1  H2  EPW O   H1  H2  EPW O   H1  H2  EPW O   H1  H2  EPW O   H1  H2  EPW O   
H1  H2  EPW O   H1  H2  EPW O   H1  H2  EPW O   H1  H2  EPW O   H1  H2  EPW O   
H1  H2  EPW O   H1  H2  EPW O   H1  H2  EPW O   H1  H2  EPW O   H1  H2  EPW O   
H1  H2  EPW O   H1  H2  EPW O   H1  H2  EPW O   H1  H2  EPW O   H1  H2  EPW O   
H1  H2  EPW O   H1  H2  EPW O   H1  H2  EPW O   H1  H2  EPW O   H1  H2  EPW O   
H1  H2  EPW O   H1  H2  EPW O   H1  H2  EPW O   H1  H2  EPW O   H1  H2  EPW O   
H1  H2  EPW O   H1  H2  EPW O   H1  H2  EPW O   H1  H2  EPW O   H1  H2  EPW O   
H1  H2  EPW O   H1  H2  EPW O   H1  H2  EPW O   H1  H2  EPW O   H1  H2  EPW O   
H1  H2  EPW O   H1  H2  EPW O   H1  H2  EPW O   H1  H2  EPW O   H1  H2  EPW O   
H1  H2  EPW O   H1  H2  EPW O   H1  H2  EPW O   H1  H2  EPW O   H1  H2  EPW O   
H1  H2  EPW O   H1  H2  EPW O   H1  H2  EPW O   H1  H2  EPW O   H1  H2  EPW O   
H1  H2  EPW O   H1  H2  EPW O   H1  H2  EPW O   H1  H2  EPW O   H1  H2  EPW O   
H1  H2  EPW O   H1  H2  EPW O   H1  H2  EPW O   H1  H2  EPW O   H1  H2  EPW O   
H1  H2  EPW O   H1  H2  EPW O   H1  H2  EPW O   H1  H2  EPW O   H1  H2  EPW O   
H1  H2  EPW O   H1  H2  EPW O   H1  H2  EPW O   H1  H2  EPW O   H1  H2  EPW O   
H1  H2  EPW O   H1  H2  EPW O   H1  H2  EPW O   H1  H2  EPW O   H1  H2  EPW O   
H1  H2  EPW O   H1  H2  EPW O   H1  H2  EPW O   H1  H2  EPW O   H1  H2  EPW O   
H1  H2  EPW O   H1  H2  EPW O   H1  H2  EPW O   H1  H2  EPW O   H1  H2  EPW O   
H1  H2  EPW O   H1  H2  EPW O   H1  H2  EPW O   H1  H2  EPW O   H1  H2  EPW O   
H1  H2  EPW O   H1  H2  EPW O   H1  H2  EPW O   H1  H2  EPW O   H1  H2  EPW O   
H1  H2  EPW O   H1  H2  EPW O   H1  H2  EPW O   H1  H2  EPW O   H1  H2  EPW O   
H1  H2  EPW O   H1  H2  EPW O   H1  H2  EPW O   H1  H2  EPW O   H1  H2  EPW O   
H1  H2  EPW O   H1  H2  EPW O   H1  H2  EPW O   H1  H2  EPW O   H1  H2  EPW O   
H1  H2  EPW O   H1  H2  EPW O   H1  H2  EPW O   H1  H2  EPW O   H1  H2  EPW O   
H1  H2  EPW O   H1  H2  EPW O   H1  H2  EPW O   H1  H2  EPW O   H1  H2  EPW O   
H1  H2  EPW O   H1  H2  EPW O   H1  H2  EPW O   H1  H2  EPW O   H1  H2  EPW O   
H1  H2  EPW O   H1  H2  EPW O   H1  H2  EPW O   H1  H2  EPW O   H1  H2  EPW O   
H1  H2  EPW O   H1  H2  EPW O   H1  H2  EPW O   H1  H2  EPW O   H1  H2  EPW O   
H1  H2  EPW O   H1  H2  EPW O   H1  H2  EPW O   H1  H2  EPW O   H1  H2  EPW O   
H1  H2  EPW O   H1  H2  EPW O   H1  H2  EPW O   H1  H2  EPW O   H1  H2  EPW O   
H1  H2  EPW O   H1  H2  EPW O   H1  H2  EPW O   H1  H2  EPW O   H1  H2  EPW O   
H1  H2  EPW O   H1  H2  EPW O   H1  H2  EPW O   H1  H2  EPW O   H1  H2  EPW O   
H1  H2  EPW O   H1  H2  EPW O   H1  H2  EPW O   H1  H2  EPW O   H1  H2  EPW O   
H1  H2  EPW O   H1  H2  EPW O   H1  H2  EPW O   H1  H2  EPW O   H1  H2  EPW O   
H1  H2  EPW O   H1  H2  EPW O   H1  H2  EPW O   H1  H2  EPW O   H1  H2  EPW O   
H1  H2  EPW O   H1  H2  EPW O   H1  H2  EPW O   H1  H2  EPW O   H1  H2  EPW O   
H1  H2  EPW O   H1  H2  EPW O   H1  H2  EPW O   H1  H2  EPW O   H1  H2  EPW O   
H1  H2  EPW O   H1  H2  EPW O   H1  H2  EPW O   H1  H2  EPW O   H1  H2  EPW O   
H1  H2  EPW O   H1  H2  EPW O   H1  H2  EPW O   H1  H2  EPW O   H1  H2  EPW O   
H1  H2  EPW O   H1  H2  EPW O   H1  H2  EPW O   H1  H2  EPW O   H1  H2  EPW O   
H1  H2  EPW O   H1  H2  EPW O   H1  H2  EPW O   H1  H2  EPW O   H1  H2  EPW O   
H1  H2  EPW O   H1  H2  EPW O   H1  H2  EPW O   H1  H2  EPW O   H1  H2  EPW O   
H1  H2  EPW O   H1  H2  EPW O   H1  H2  EPW O   H1  H2  EPW O   H1  H2  EPW O   
H1  H2  EPW O   H1  H2  EPW O   H1  H2  EPW O   H1  H2  EPW O   H1  H2  EPW O   
H1  H2  EPW O   H1  H2  EPW O   H1  H2  EPW O   H1  H2  EPW O   H1  H2  EPW O   
H1  H2  EPW O   H1  H2  EPW O   H1  H2  EPW O   H1  H2  EPW O   H1  H2  EPW O   
H1  H2  EPW O   H1  H2  EPW O   H1  H2  EPW O   H1  H2  EPW O   H1  H2  EPW O   
H1  H2  EPW O   H1  H2  EPW O   H1  H2  EPW O   H1  H2  EPW O   H1  H2  EPW O   
H1  H2  EPW O   H1  H2  EPW O   H1  H2  EPW O   H1  H2  EPW O   H1  H2  EPW O   
H1  H2  EPW O   H1  H2  EPW O   H1  H2  EPW O   H1  H2  EPW O   H1  H2  EPW O   
H1  H2  EPW O   H1  H2  EPW O   H1  H2  EPW O   H1  H2  EPW O   H1  H2  EPW O   
H1  H2  EPW O   H1  H2  EPW O   H1  H2  EPW O   H1  H2  EPW O   H1  H2  EPW O   
H1  H2  EPW O   H1  H2  EPW O   H1  H2  EPW O   H1  H2  EPW O   H1  H2  EPW O   
H1  H2  EPW O   H1  H2  EPW O   H1  H2  EPW O   H1  H2  EPW O   H1  H2  EPW O   
H1  H2  EPW O   H1  H2  EPW O   H1  H2  EPW O   H1  H2  EPW O   H1  H2  EPW O   
H1  H2  EPW O   H1  H2  EPW O   H1  H2  EPW O   H1  H2  EPW O   H1  H2  EPW O   
H1  H2  EPW O   H1  H2  EPW O   H1  H2  EPW O   H1  H2  EPW O   H1  H2  EPW O   
H1  H2  EPW O   H1  H2  EPW O   H1  H2  EPW O   H1  H2  EPW O   H1  H2  EPW O   
H1  H2  EPW O   H1  H2  EPW O   H1  H2  EPW O   H1  H2  EPW O   H1  H2  EPW O   
H1  H2  EPW O   H1  H2  EPW O   H1  H2  EPW O   H1  H2  EPW O   H1  H2  EPW O   
H1  H2  EPW O   H1  H2  EPW O   H1  H2  EPW O   H1  H2  EPW O   H1  H2  EPW O   
H1  H2  EPW O   H1  H2  EPW O   H1  H2  EPW O   H1  H2  EPW O   H1  H2  EPW O   
H1  H2  EPW O   H1  H2  EPW O   H1  H2  EPW O   H1  H2  EPW O   H1  H2  EPW O   
H1  H2  EPW O   H1  H2  EPW O   H1  H2  EPW O   H1  H2  EPW O   H1  H2  EPW O   
H1  H2  EPW O   H1  H2  EPW O   H1  H2  EPW O   H1  H2  EPW O   H1  H2  EPW O   
H1  H2  EPW O   H1  H2  EPW O   H1  H2  EPW O   H1  H2  EPW O   H1  H2  EPW O   
H1  H2  EPW O   H1  H2  EPW O   H1  H2  EPW O   H1  H2  EPW O   H1  H2  EPW O   
H1  H2  EPW O   H1  H2  EPW O   H1  H2  EPW O   H1  H2  EPW O   H1  H2  EPW O   
H1  H2  EPW O   H1  H2  EPW O   H1  H2  EPW O   H1  H2  EPW O   H1  H2  EPW O   
H1  H2  EPW O   H1  H2  EPW O   H1  H2  EPW O   H1  H2  EPW O   H1  H2  EPW O   
H1  H2  EPW O   H1  H2  EPW O   H1  H2  EPW O   H1  H2  EPW O   H1  H2  EPW O   
H1  H2  EPW O   H1  H2  EPW O   H1  H2  EPW O   H1  H2  EPW O   H1  H2  EPW O   
H1  H2  EPW O   H1  H2  EPW O   H1  H2  EPW O   H1  H2  EPW O   H1  H2  EPW O   
H1  H2  EPW O   H1  H2  EPW O   H1  H2  EPW O   H1  H2  EPW O   H1  H2  EPW O   
H1  H2  EPW O   H1  H2  EPW O   H1  H2  EPW O   H1  H2  EPW O   H1  H2  EPW O   
H1  H2  EPW O   H1  H2  EPW O   H1  H2  EPW O   H1  H2  EPW O   H1  H2  EPW O   
H1  H2  EPW O   H1  H2  EPW O   H1  H2  EPW O   H1  H2  EPW O   H1  H2  EPW O   
H1  H2  EPW O   H1  H2  EPW O   H1  H2  EPW O   H1  H2  EPW O   H1  H2  EPW O   
H1  H2  EPW O   H1  H2  EPW O   H1  H2  EPW O   H1  H2  EPW O   H1  H2  EPW O   
H1  H2  EPW O   H1  H2  EPW O   H1  H2  EPW O   H1  H2  EPW O   H1  H2  EPW O   
H1  H2  EPW O   H1  H2  EPW O   H1  H2  EPW O   H1  H2  EPW O   H1  H2  EPW O   
H1  H2  EPW O   H1  H2  EPW O   H1  H2  EPW O   H1  H2  EPW O   H1  H2  EPW O   
H1  H2  EPW O   H1  H2  EPW O   H1  H2  EPW O   H1  H2  EPW O   H1  H2  EPW O   
H1  H2  EPW O   H1  H2  EPW O   H1  H2  EPW O   H1  H2  EPW O   H1  H2  EPW O   
H1  H2  EPW O   H1  H2  EPW O   H1  H2  EPW O   H1  H2  EPW O   H1  H2  EPW O   
H1  H2  EPW O   H1  H2  EPW O   H1  H2  EPW O   H1  H2  EPW O   H1  H2  EPW O   
H1  H2  EPW O   H1  H2  EPW O   H1  H2  EPW O   H1  H2  EPW O   H1  H2  EPW O   
H1  H2  EPW O   H1  H2  EPW O   H1  H2  EPW O   H1  H2  EPW O   H1  H2  EPW O   
H1  H2  EPW O   H1  H2  EPW O   H1  H2  EPW O   H1  H2  EPW O   H1  H2  EPW O   
H1  H2  EPW O   H1  H2  EPW O   H1  H2  EPW O   H1  H2  EPW O   H1  H2  EPW O   
H1  H2  EPW O   H1  H2  EPW O   H1  H2  EPW O   H1  H2  EPW O   H1  H2  EPW O   
H1  H2  EPW O   H1  H2  EPW O   H1  H2  EPW O   H1  H2  EPW O   H1  H2  EPW O   
H1  H2  EPW O   H1  H2  EPW O   H1  H2  EPW O   H1  H2  EPW O   H1  H2  EPW O   
H1  H2  EPW O   H1  H2  EPW O   H1  H2  EPW O   H1  H2  EPW O   H1  H2  EPW O   
H1  H2  EPW O   H1  H2  EPW O   H1  H2  EPW O   H1  H2  EPW O   H1  H2  EPW O   
H1  H2  EPW O   H1  H2  EPW O   H1  H2  EPW O   H1  H2  EPW O   H1  H2  EPW O   
H1  H2  EPW O   H1  H2  EPW O   H1  H2  EPW O   H1  H2  EPW O   H1  H2  EPW O   
H1  H2  EPW O   H1  H2  EPW O   H1  H2  EPW O   H1  H2  EPW O   H1  H2  EPW O   
H1  H2  EPW O   H1  H2  EPW O   H1  H2  EPW O   H1  H2  EPW O   H1  H2  EPW O   
H1  H2  EPW O   H1  H2  EPW O   H1  H2  EPW O   H1  H2  EPW O   H1  H2  EPW O   
H1  H2  EPW O   H1  H2  EPW O   H1  H2  EPW O   H1  H2  EPW O   H1  H2  EPW O   
H1  H2  EPW O   H1  H2  EPW O   H1  H2  EPW O   H1  H2  EPW O   H1  H2  EPW O   
H1  H2  EPW O   H1  H2  EPW O   H1  H2  EPW O   H1  H2  EPW O   H1  H2  EPW O   
H1  H2  EPW O   H1  H2  EPW O   H1  H2  EPW O   H1  H2  EPW O   H1  H2  EPW O   
H1  H2  EPW O   H1  H2  EPW O   H1  H2  EPW O   H1  H2  EPW O   H1  H2  EPW O   
H1  H2  EPW O   H1  H2  EPW O   H1  H2  EPW O   H1  H2  EPW O   H1  H2  EPW O   
H1  H2  EPW O   H1  H2  EPW O   H1  H2  EPW O   H1  H2  EPW O   H1  H2  EPW O   
H1  H2  EPW O   H1  H2  EPW O   H1  H2  EPW O   H1  H2  EPW O   H1  H2  EPW O   
H1  H2  EPW O   H1  H2  EPW O   H1  H2  EPW O   H1  H2  EPW O   H1  H2  EPW O   
H1  H2  EPW O   H1  H2  EPW O   H1  H2  EPW O   H1  H2  EPW O   H1  H2  EPW O   
H1  H2  EPW O   H1  H2  EPW O   H1  H2  EPW O   H1  H2  EPW O   H1  H2  EPW O   
H1  H2  EPW O   H1  H2  EPW O   H1  H2  EPW O   H1  H2  EPW O   H1  H2  EPW O   
H1  H2  EPW O   H1  H2  EPW O   H1  H2  EPW O   H1  H2  EPW O   H1  H2  EPW O   
H1  H2  EPW O   H1  H2  EPW O   H1  H2  EPW O   H1  H2  EPW O   H1  H2  EPW O   
H1  H2  EPW O   H1  H2  EPW O   H1  H2  EPW O   H1  H2  EPW O   H1  H2  EPW O   
H1  H2  EPW O   H1  H2  EPW O   H1  H2  EPW O   H1  H2  EPW O   H1  H2  EPW O   
H1  H2  EPW O   H1  H2  EPW O   H1  H2  EPW O   H1  H2  EPW O   H1  H2  EPW O   
H1  H2  EPW O   H1  H2  EPW O   H1  H2  EPW O   H1  H2  EPW O   H1  H2  EPW O   
H1  H2  EPW O   H1  H2  EPW O   H1  H2  EPW O   H1  H2  EPW O   H1  H2  EPW O   
H1  H2  EPW O   H1  H2  EPW O   H1  H2  EPW O   H1  H2  EPW O   H1  H2  EPW O   
H1  H2  EPW O   H1  H2  EPW O   H1  H2  EPW O   H1  H2  EPW O   H1  H2  EPW O   
H1  H2  EPW O   H1  H2  EPW O   H1  H2  EPW O   H1  H2  EPW O   H1  H2  EPW O   
H1  H2  EPW O   H1  H2  EPW O   H1  H2  EPW O   H1  H2  EPW O   H1  H2  EPW O   
H1  H2  EPW O   H1  H2  EPW O   H1  H2  EPW O   H1  H2  EPW O   H1  H2  EPW O   
H1  H2  EPW O   H1  H2  EPW O   H1  H2  EPW O   H1  H2  EPW O   H1  H2  EPW O   
H1  H2  EPW O   H1  H2  EPW O   H1  H2  EPW O   H1  H2  EPW O   H1  H2  EPW O   
H1  H2  EPW O   H1  H2  EPW O   H1  H2  EPW O   H1  H2  EPW O   H1  H2  EPW O   
H1  H2  EPW O   H1  H2  EPW O   H1  H2  EPW O   H1  H2  EPW O   H1  H2  EPW O   
H1  H2  EPW O   H1  H2  EPW O   H1  H2  EPW O   H1  H2  EPW O   H1  H2  EPW O   
H1  H2  EPW O   H1  H2  EPW O   H1  H2  EPW O   H1  H2  EPW O   H1  H2  EPW O   
H1  H2  EPW O   H1  H2  EPW O   H1  H2  EPW O   H1  H2  EPW O   H1  H2  EPW O   
H1  H2  EPW O   H1  H2  EPW O   H1  H2  EPW O   H1  H2  EPW O   H1  H2  EPW O   
H1  H2  EPW O   H1  H2  EPW O   H1  H2  EPW O   H1  H2  EPW O   H1  H2  EPW O   
H1  H2  EPW O   H1  H2  EPW O   H1  H2  EPW O   H1  H2  EPW O   H1  H2  EPW O   
H1  H2  EPW O   H1  H2  EPW O   H1  H2  EPW O   H1  H2  EPW O   H1  H2  EPW O   
H1  H2  EPW O   H1  H2  EPW O   H1  H2  EPW O   H1  H2  EPW O   H1  H2  EPW O   
H1  H2  EPW O   H1  H2  EPW O   H1  H2  EPW O   H1  H2  EPW O   H1  H2  EPW O   
H1  H2  EPW O   H1  H2  EPW O   H1  H2  EPW O   H1  H2  EPW O   H1  H2  EPW O   
H1  H2  EPW O   H1  H2  EPW O   H1  H2  EPW O   H1  H2  EPW O   H1  H2  EPW O   
H1  H2  EPW O   H1  H2  EPW O   H1  H2  EPW O   H1  H2  EPW O   H1  H2  EPW O   
H1  H2  EPW O   H1  H2  EPW O   H1  H2  EPW O   H1  H2  EPW O   H1  H2  EPW O   
H1  H2  EPW O   H1  H2  EPW O   H1  H2  EPW O   H1  H2  EPW O   H1  H2  EPW O   
H1  H2  EPW O   H1  H2  EPW O   H1  H2  EPW O   H1  H2  EPW O   H1  H2  EPW O   
H1  H2  EPW O   H1  H2  EPW O   H1  H2  EPW O   H1  H2  EPW O   H1  H2  EPW O   
H1  H2  EPW O   H1  H2  EPW O   H1  H2  EPW O   H1  H2  EPW O   H1  H2  EPW O   
H1  H2  EPW O   H1  H2  EPW O   H1  H2  EPW O   H1  H2  EPW O   H1  H2  EPW O   
H1  H2  EPW O   H1  H2  EPW O   H1  H2  EPW O   H1  H2  EPW O   H1  H2  EPW O   
H1  H2  EPW O   H1  H2  EPW O   H1  H2  EPW O   H1  H2  EPW O   H1  H2  EPW O   
H1  H2  EPW O   H1  H2  EPW O   H1  H2  EPW O   H1  H2  EPW O   H1  H2  EPW O   
H1  H2  EPW O   H1  H2  EPW O   H1  H2  EPW O   H1  H2  EPW O   H1  H2  EPW O   
H1  H2  EPW O   H1  H2  EPW O   H1  H2  EPW O   H1  H2  EPW O   H1  H2  EPW O   
H1  H2  EPW O   H1  H2  EPW O   H1  H2  EPW O   H1  H2  EPW O   H1  H2  EPW O   
H1  H2  EPW O   H1  H2  EPW O   H1  H2  EPW O   H1  H2  EPW O   H1  H2  EPW O   
H1  H2  EPW O   H1  H2  EPW O   H1  H2  EPW O   H1  H2  EPW O   H1  H2  EPW O   
H1  H2  EPW O   H1  H2  EPW O   H1  H2  EPW O   H1  H2  EPW O   H1  H2  EPW O   
H1  H2  EPW O   H1  H2  EPW O   H1  H2  EPW O   H1  H2  EPW O   H1  H2  EPW O   
H1  H2  EPW O   H1  H2  EPW O   H1  H2  EPW O   H1  H2  EPW O   H1  H2  EPW O   
H1  H2  EPW O   H1  H2  EPW O   H1  H2  EPW O   H1  H2  EPW O   H1  H2  EPW O   
H1  H2  EPW O   H1  H2  EPW O   H1  H2  EPW O   H1  H2  EPW O   H1  H2  EPW O   
H1  H2  EPW O   H1  H2  EPW O   H1  H2  EPW O   H1  H2  EPW O   H1  H2  EPW O   
H1  H2  EPW O   H1  H2  EPW O   H1  H2  EPW O   H1  H2  EPW O   H1  H2  EPW O   
H1  H2  EPW O   H1  H2  EPW O   H1  H2  EPW O   H1  H2  EPW O   H1  H2  EPW O   
H1  H2  EPW O   H1  H2  EPW O   H1  H2  EPW O   H1  H2  EPW O   H1  H2  EPW O   
H1  H2  EPW O   H1  H2  EPW O   H1  H2  EPW O   H1  H2  EPW O   H1  H2  EPW O   
H1  H2  EPW O   H1  H2  EPW O   H1  H2  EPW O   H1  H2  EPW O   H1  H2  EPW O   
H1  H2  EPW O   H1  H2  EPW O   H1  H2  EPW O   H1  H2  EPW O   H1  H2  EPW O   
H1  H2  EPW O   H1  H2  EPW O   H1  H2  EPW O   H1  H2  EPW O   H1  H2  EPW O   
H1  H2  EPW O   H1  H2  EPW O   H1  H2  EPW O   H1  H2  EPW O   H1  H2  EPW O   
H1  H2  EPW O   H1  H2  EPW O   H1  H2  EPW O   H1  H2  EPW O   H1  H2  EPW O   
H1  H2  EPW O   H1  H2  EPW O   H1  H2  EPW O   H1  H2  EPW O   H1  H2  EPW O   
H1  H2  EPW O   H1  H2  EPW O   H1  H2  EPW O   H1  H2  EPW O   H1  H2  EPW O   
H1  H2  EPW O   H1  H2  EPW O   H1  H2  EPW O   H1  H2  EPW O   H1  H2  EPW O   
H1  H2  EPW O   H1  H2  EPW O   H1  H2  EPW O   H1  H2  EPW O   H1  H2  EPW O   
H1  H2  EPW O   H1  H2  EPW O   H1  H2  EPW O   H1  H2  EPW O   H1  H2  EPW O   
H1  H2  EPW O   H1  H2  EPW O   H1  H2  EPW O   H1  H2  EPW O   H1  H2  EPW O   
H1  H2  EPW O   H1  H2  EPW O   H1  H2  EPW O   H1  H2  EPW O   H1  H2  EPW O   
H1  H2  EPW O   H1  H2  EPW O   H1  H2  EPW O   H1  H2  EPW O   H1  H2  EPW O   
H1  H2  EPW O   H1  H2  EPW O   H1  H2  EPW O   H1  H2  EPW O   H1  H2  EPW O   
H1  H2  EPW O   H1  H2  EPW O   H1  H2  EPW O   H1  H2  EPW O   H1  H2  EPW O   
H1  H2  EPW O   H1  H2  EPW O   H1  H2  EPW O   H1  H2  EPW O   H1  H2  EPW O   
H1  H2  EPW O   H1  H2  EPW O   H1  H2  EPW O   H1  H2  EPW O   H1  H2  EPW O   
H1  H2  EPW O   H1  H2  EPW O   H1  H2  EPW O   H1  H2  EPW O   H1  H2  EPW O   
H1  H2  EPW O   H1  H2  EPW O   H1  H2  EPW O   H1  H2  EPW O   H1  H2  EPW O   
H1  H2  EPW O   H1  H2  EPW O   H1  H2  EPW O   H1  H2  EPW O   H1  H2  EPW O   
H1  H2  EPW O   H1  H2  EPW O   H1  H2  EPW O   H1  H2  EPW O   H1  H2  EPW O   
H1  H2  EPW O   H1  H2  EPW O   H1  H2  EPW O   H1  H2  EPW O   H1  H2  EPW O   
H1  H2  EPW O   H1  H2  EPW O   H1  H2  EPW O   H1  H2  EPW O   H1  H2  EPW O   
H1  H2  EPW O   H1  H2  EPW O   H1  H2  EPW O   H1  H2  EPW O   H1  H2  EPW O   
H1  H2  EPW O   H1  H2  EPW O   H1  H2  EPW O   H1  H2  EPW O   H1  H2  EPW O   
H1  H2  EPW O   H1  H2  EPW O   H1  H2  EPW O   H1  H2  EPW O   H1  H2  EPW O   
H1  H2  EPW O   H1  H2  EPW O   H1  H2  EPW O   H1  H2  EPW O   H1  H2  EPW O   
H1  H2  EPW O   H1  H2  EPW O   H1  H2  EPW O   H1  H2  EPW O   H1  H2  EPW O   
H1  H2  EPW O   H1  H2  EPW O   H1  H2  EPW O   H1  H2  EPW O   H1  H2  EPW O   
H1  H2  EPW O   H1  H2  EPW O   H1  H2  EPW O   H1  H2  EPW O   H1  H2  EPW O   
H1  H2  EPW O   H1  H2  EPW O   H1  H2  EPW O   H1  H2  EPW O   H1  H2  EPW O   
H1  H2  EPW O   H1  H2  EPW O   H1  H2  EPW O   H1  H2  EPW O   H1  H2  EPW O   
H1  H2  EPW O   H1  H2  EPW O   H1  H2  EPW O   H1  H2  EPW O   H1  H2  EPW O   
H1  H2  EPW O   H1  H2  EPW O   H1  H2  EPW O   H1  H2  EPW O   H1  H2  EPW O   
H1  H2  EPW O   H1  H2  EPW O   H1  H2  EPW O   H1  H2  EPW O   H1  H2  EPW O   
H1  H2  EPW O   H1  H2  EPW O   H1  H2  EPW O   H1  H2  EPW O   H1  H2  EPW O   
H1  H2  EPW O   H1  H2  EPW O   H1  H2  EPW O   H1  H2  EPW O   H1  H2  EPW O   
H1  H2  EPW O   H1  H2  EPW O   H1  H2  EPW O   H1  H2  EPW O   H1  H2  EPW O   
H1  H2  EPW O   H1  H2  EPW O   H1  H2  EPW O   H1  H2  EPW O   H1  H2  EPW O   
H1  H2  EPW O   H1  H2  EPW O   H1  H2  EPW O   H1  H2  EPW O   H1  H2  EPW O   
H1  H2  EPW O   H1  H2  EPW O   H1  H2  EPW O   H1  H2  EPW O   H1  H2  EPW O   
H1  H2  EPW O   H1  H2  EPW O   H1  H2  EPW O   H1  H2  EPW O   H1  H2  EPW O   
H1  H2  EPW O   H1  H2  EPW O   H1  H2  EPW O   H1  H2  EPW O   H1  H2  EPW O   
H1  H2  EPW O   H1  H2  EPW O   H1  H2  EPW O   H1  H2  EPW O   H1  H2  EPW O   
H1  H2  EPW O   H1  H2  EPW O   H1  H2  EPW O   H1  H2  EPW O   H1  H2  EPW O   
H1  H2  EPW O   H1  H2  EPW O   H1  H2  EPW O   H1  H2  EPW O   H1  H2  EPW O   
H1  H2  EPW O   H1  H2  EPW O   H1  H2  EPW O   H1  H2  EPW O   H1  H2  EPW O   
H1  H2  EPW O   H1  H2  EPW O   H1  H2  EPW O   H1  H2  EPW O   H1  H2  EPW O   
H1  H2  EPW O   H1  H2  EPW O   H1  H2  EPW O   H1  H2  EPW O   H1  H2  EPW O   
H1  H2  EPW O   H1  H2  EPW O   H1  H2  EPW O   H1  H2  EPW O   H1  H2  EPW O   
H1  H2  EPW O   H1  H2  EPW O   H1  H2  EPW O   H1  H2  EPW O   H1  H2  EPW O   
H1  H2  EPW O   H1  H2  EPW O   H1  H2  EPW O   H1  H2  EPW O   H1  H2  EPW O   
H1  H2  EPW O   H1  H2  EPW O   H1  H2  EPW O   H1  H2  EPW O   H1  H2  EPW O   
H1  H2  EPW O   H1  H2  EPW O   H1  H2  EPW O   H1  H2  EPW O   H1  H2  EPW O   
H1  H2  EPW O   H1  H2  EPW O   H1  H2  EPW O   H1  H2  EPW O   H1  H2  EPW O   
H1  H2  EPW O   H1  H2  EPW O   H1  H2  EPW O   H1  H2  EPW O   H1  H2  EPW O   
H1  H2  EPW O   H1  H2  EPW O   H1  H2  EPW O   H1  H2  EPW O   H1  H2  EPW O   
H1  H2  EPW O   H1  H2  EPW O   H1  H2  EPW O   H1  H2  EPW O   H1  H2  EPW O   
H1  H2  EPW O   H1  H2  EPW O   H1  H2  EPW O   H1  H2  EPW O   H1  H2  EPW O   
H1  H2  EPW O   H1  H2  EPW O   H1  H2  EPW O   H1  H2  EPW O   H1  H2  EPW O   
H1  H2  EPW O   H1  H2  EPW O   H1  H2  EPW O   H1  H2  EPW O   H1  H2  EPW O   
H1  H2  EPW O   H1  H2  EPW O   H1  H2  EPW O   H1  H2  EPW O   H1  H2  EPW O   
H1  H2  EPW O   H1  H2  EPW O   H1  H2  EPW O   H1  H2  EPW O   H1  H2  EPW O   
H1  H2  EPW O   H1  H2  EPW O   H1  H2  EPW O   H1  H2  EPW O   H1  H2  EPW O   
H1  H2  EPW O   H1  H2  EPW O   H1  H2  EPW O   H1  H2  EPW O   H1  H2  EPW O   
H1  H2  EPW O   H1  H2  EPW O   H1  H2  EPW O   H1  H2  EPW O   H1  H2  EPW O   
H1  H2  EPW O   H1  H2  EPW O   H1  H2  EPW O   H1  H2  EPW O   H1  H2  EPW O   
H1  H2  EPW O   H1  H2  EPW O   H1  H2  EPW O   H1  H2  EPW O   H1  H2  EPW O   
H1  H2  EPW O   H1  H2  EPW O   H1  H2  EPW O   H1  H2  EPW O   H1  H2  EPW O   
H1  H2  EPW O   H1  H2  EPW O   H1  H2  EPW O   H1  H2  EPW O   H1  H2  EPW O   
H1  H2  EPW O   H1  H2  EPW O   H1  H2  EPW O   H1  H2  EPW O   H1  H2  EPW O   
H1  H2  EPW O   H1  H2  EPW O   H1  H2  EPW O   H1  H2  EPW O   H1  H2  EPW O   
H1  H2  EPW O   H1  H2  EPW O   H1  H2  EPW O   H1  H2  EPW O   H1  H2  EPW O   
H1  H2  EPW O   H1  H2  EPW O   H1  H2  EPW O   H1  H2  EPW O   H1  H2  EPW O   
H1  H2  EPW O   H1  H2  EPW O   H1  H2  EPW O   H1  H2  EPW O   H1  H2  EPW O   
H1  H2  EPW O   H1  H2  EPW O   H1  H2  EPW O   H1  H2  EPW O   H1  H2  EPW O   
H1  H2  EPW O   H1  H2  EPW O   H1  H2  EPW O   H1  H2  EPW O   H1  H2  EPW O   
H1  H2  EPW O   H1  H2  EPW O   H1  H2  EPW O   H1  H2  EPW O   H1  H2  EPW O   
H1  H2  EPW O   H1  H2  EPW O   H1  H2  EPW O   H1  H2  EPW O   H1  H2  EPW O   
H1  H2  EPW O   H1  H2  EPW O   H1  H2  EPW O   H1  H2  EPW O   H1  H2  EPW O   
H1  H2  EPW O   H1  H2  EPW O   H1  H2  EPW O   H1  H2  EPW O   H1  H2  EPW O   
H1  H2  EPW O   H1  H2  EPW O   H1  H2  EPW O   H1  H2  EPW O   H1  H2  EPW O   
H1  H2  EPW O   H1  H2  EPW O   H1  H2  EPW O   H1  H2  EPW O   H1  H2  EPW O   
H1  H2  EPW O   H1  H2  EPW O   H1  H2  EPW O   H1  H2  EPW O   H1  H2  EPW O   
H1  H2  EPW O   H1  H2  EPW O   H1  H2  EPW O   H1  H2  EPW O   H1  H2  EPW O   
H1  H2  EPW O   H1  H2  EPW O   H1  H2  EPW O   H1  H2  EPW O   H1  H2  EPW O   
H1  H2  EPW O   H1  H2  EPW O   H1  H2  EPW O   H1  H2  EPW O   H1  H2  EPW O   
H1  H2  EPW O   H1  H2  EPW O   H1  H2  EPW O   H1  H2  EPW O   H1  H2  EPW O   
H1  H2  EPW O   H1  H2  EPW O   H1  H2  EPW O   H1  H2  EPW O   H1  H2  EPW O   
H1  H2  EPW O   H1  H2  EPW O   H1  H2  EPW O   H1  H2  EPW O   H1  H2  EPW O   
H1  H2  EPW O   H1  H2  EPW O   H1  H2  EPW O   H1  H2  EPW O   H1  H2  EPW O   
H1  H2  EPW O   H1  H2  EPW O   H1  H2  EPW O   H1  H2  EPW O   H1  H2  EPW O   
H1  H2  EPW O   H1  H2  EPW O   H1  H2  EPW O   H1  H2  EPW O   H1  H2  EPW O   
H1  H2  EPW O   H1  H2  EPW O   H1  H2  EPW O   H1  H2  EPW O   H1  H2  EPW O   
H1  H2  EPW O   H1  H2  EPW O   H1  H2  EPW O   H1  H2  EPW O   H1  H2  EPW O   
H1  H2  EPW O   H1  H2  EPW O   H1  H2  EPW O   H1  H2  EPW O   H1  H2  EPW O   
H1  H2  EPW O   H1  H2  EPW O   H1  H2  EPW O   H1  H2  EPW O   H1  H2  EPW O   
H1  H2  EPW O   H1  H2  EPW O   H1  H2  EPW O   H1  H2  EPW O   H1  H2  EPW O   
H1  H2  EPW O   H1  H2  EPW O   H1  H2  EPW O   H1  H2  EPW O   H1  H2  EPW O   
H1  H2  EPW O   H1  H2  EPW O   H1  H2  EPW O   H1  H2  EPW O   H1  H2  EPW O   
H1  H2  EPW O   H1  H2  EPW O   H1  H2  EPW O   H1  H2  EPW O   H1  H2  EPW O   
H1  H2  EPW O   H1  H2  EPW O   H1  H2  EPW O   H1  H2  EPW O   H1  H2  EPW O   
H1  H2  EPW O   H1  H2  EPW O   H1  H2  EPW O   H1  H2  EPW O   H1  H2  EPW O   
H1  H2  EPW O   H1  H2  EPW O   H1  H2  EPW O   H1  H2  EPW O   H1  H2  EPW O   
H1  H2  EPW O   H1  H2  EPW O   H1  H2  EPW O   H1  H2  EPW O   H1  H2  EPW O   
H1  H2  EPW O   H1  H2  EPW O   H1  H2  EPW O   H1  H2  EPW O   H1  H2  EPW O   
H1  H2  EPW O   H1  H2  EPW O   H1  H2  EPW O   H1  H2  EPW O   H1  H2  EPW O   
H1  H2  EPW O   H1  H2  EPW O   H1  H2  EPW O   H1  H2  EPW O   H1  H2  EPW O   
H1  H2  EPW O   H1  H2  EPW O   H1  H2  EPW O   H1  H2  EPW O   H1  H2  EPW O   
H1  H2  EPW O   H1  H2  EPW O   H1  H2  EPW O   H1  H2  EPW O   H1  H2  EPW O   
H1  H2  EPW O   H1  H2  EPW O   H1  H2  EPW O   H1  H2  EPW O   H1  H2  EPW O   
H1  H2  EPW O   H1  H2  EPW O   H1  H2  EPW O   H1  H2  EPW O   H1  H2  EPW O   
H1  H2  EPW O   H1  H2  EPW O   H1  H2  EPW O   H1  H2  EPW O   H1  H2  EPW O   
H1  H2  EPW O   H1  H2  EPW O   H1  H2  EPW O   H1  H2  EPW O   H1  H2  EPW O   
H1  H2  EPW O   H1  H2  EPW O   H1  H2  EPW O   H1  H2  EPW O   H1  H2  EPW O   
H1  H2  EPW O   H1  H2  EPW O   H1  H2  EPW O   H1  H2  EPW O   H1  H2  EPW O   
H1  H2  EPW O   H1  H2  EPW O   H1  H2  EPW O   H1  H2  EPW O   H1  H2  EPW O   
H1  H2  EPW O   H1  H2  EPW O   H1  H2  EPW O   H1  H2  EPW O   H1  H2  EPW O   
H1  H2  EPW O   H1  H2  EPW O   H1  H2  EPW O   H1  H2  EPW O   H1  H2  EPW O   
H1  H2  EPW O   H1  H2  EPW O   H1  H2  EPW O   H1  H2  EPW O   H1  H2  EPW O   
H1  H2  EPW O   H1  H2  EPW O   H1  H2  EPW O   H1  H2  EPW O   H1  H2  EPW O   
H1  H2  EPW O   H1  H2  EPW O   H1  H2  EPW O   H1  H2  EPW O   H1  H2  EPW O   
H1  H2  EPW O   H1  H2  EPW O   H1  H2  EPW O   H1  H2  EPW O   H1  H2  EPW O   
H1  H2  EPW O   H1  H2  EPW O   H1  H2  EPW O   H1  H2  EPW O   H1  H2  EPW O   
H1  H2  EPW O   H1  H2  EPW O   H1  H2  EPW O   H1  H2  EPW O   H1  H2  EPW O   
H1  H2  EPW O   H1  H2  EPW O   H1  H2  EPW O   H1  H2  EPW O   H1  H2  EPW O   
H1  H2  EPW O   H1  H2  EPW O   H1  H2  EPW O   H1  H2  EPW O   H1  H2  EPW O   
H1  H2  EPW O   H1  H2  EPW O   H1  H2  EPW O   H1  H2  EPW O   H1  H2  EPW O   
H1  H2  EPW O   H1  H2  EPW O   H1  H2  EPW O   H1  H2  EPW O   H1  H2  EPW O   
H1  H2  EPW O   H1  H2  EPW O   H1  H2  EPW O   H1  H2  EPW O   H1  H2  EPW O   
H1  H2  EPW O   H1  H2  EPW O   H1  H2  EPW O   H1  H2  EPW O   H1  H2  EPW O   
H1  H2  EPW O   H1  H2  EPW O   H1  H2  EPW O   H1  H2  EPW O   H1  H2  EPW O   
H1  H2  EPW O   H1  H2  EPW O   H1  H2  EPW O   H1  H2  EPW O   H1  H2  EPW O   
H1  H2  EPW O   H1  H2  EPW O   H1  H2  EPW O   H1  H2  EPW O   H1  H2  EPW O   
H1  H2  EPW O   H1  H2  EPW O   H1  H2  EPW O   H1  H2  EPW O   H1  H2  EPW O   
H1  H2  EPW O   H1  H2  EPW O   H1  H2  EPW O   H1  H2  EPW O   H1  H2  EPW O   
H1  H2  EPW O   H1  H2  EPW O   H1  H2  EPW O   H1  H2  EPW O   H1  H2  EPW O   
H1  H2  EPW O   H1  H2  EPW O   H1  H2  EPW O   H1  H2  EPW O   H1  H2  EPW O   
H1  H2  EPW O   H1  H2  EPW O   H1  H2  EPW O   H1  H2  EPW O   H1  H2  EPW O   
H1  H2  EPW O   H1  H2  EPW O   H1  H2  EPW O   H1  H2  EPW O   H1  H2  EPW O   
H1  H2  EPW O   H1  H2  EPW O   H1  H2  EPW O   H1  H2  EPW O   H1  H2  EPW O   
H1  H2  EPW O   H1  H2  EPW O   H1  H2  EPW O   H1  H2  EPW O   H1  H2  EPW O   
H1  H2  EPW O   H1  H2  EPW O   H1  H2  EPW O   H1  H2  EPW O   H1  H2  EPW O   
H1  H2  EPW O   H1  H2  EPW O   H1  H2  EPW O   H1  H2  EPW O   H1  H2  EPW O   
H1  H2  EPW O   H1  H2  EPW O   H1  H2  EPW O   H1  H2  EPW O   H1  H2  EPW O   
H1  H2  EPW O   H1  H2  EPW O   H1  H2  EPW O   H1  H2  EPW O   H1  H2  EPW O   
H1  H2  EPW O   H1  H2  EPW O   H1  H2  EPW O   H1  H2  EPW O   H1  H2  EPW O   
H1  H2  EPW O   H1  H2  EPW O   H1  H2  EPW O   H1  H2  EPW O   H1  H2  EPW O   
H1  H2  EPW O   H1  H2  EPW O   H1  H2  EPW O   H1  H2  EPW O   H1  H2  EPW O   
H1  H2  EPW O   H1  H2  EPW O   H1  H2  EPW O   H1  H2  EPW O   H1  H2  EPW O   
H1  H2  EPW O   H1  H2  EPW O   H1  H2  EPW O   H1  H2  EPW O   H1  H2  EPW O   
H1  H2  EPW O   H1  H2  EPW O   H1  H2  EPW O   H1  H2  EPW O   H1  H2  EPW O   
H1  H2  EPW O   H1  H2  EPW O   H1  H2  EPW O   H1  H2  EPW O   H1  H2  EPW O   
H1  H2  EPW O   H1  H2  EPW O   H1  H2  EPW O   H1  H2  EPW O   H1  H2  EPW O   
H1  H2  EPW O   H1  H2  EPW O   H1  H2  EPW O   H1  H2  EPW O   H1  H2  EPW O   
H1  H2  EPW O   H1  H2  EPW O   H1  H2  EPW O   H1  H2  EPW O   H1  H2  EPW O   
H1  H2  EPW O   H1  H2  EPW O   H1  H2  EPW O   H1  H2  EPW O   H1  H2  EPW O   
H1  H2  EPW O   H1  H2  EPW O   H1  H2  EPW O   H1  H2  EPW O   H1  H2  EPW O   
H1  H2  EPW O   H1  H2  EPW O   H1  H2  EPW O   H1  H2  EPW O   H1  H2  EPW O   
H1  H2  EPW O   H1  H2  EPW O   H1  H2  EPW O   H1  H2  EPW O   H1  H2  EPW O   
H1  H2  EPW O   H1  H2  EPW O   H1  H2  EPW O   H1  H2  EPW O   H1  H2  EPW O   
H1  H2  EPW O   H1  H2  EPW O   H1  H2  EPW O   H1  H2  EPW O   H1  H2  EPW O   
H1  H2  EPW O   H1  H2  EPW O   H1  H2  EPW O   H1  H2  EPW O   H1  H2  EPW O   
H1  H2  EPW O   H1  H2  EPW O   H1  H2  EPW O   H1  H2  EPW O   H1  H2  EPW O   
H1  H2  EPW O   H1  H2  EPW O   H1  H2  EPW O   H1  H2  EPW O   H1  H2  EPW O   
H1  H2  EPW O   H1  H2  EPW O   H1  H2  EPW O   H1  H2  EPW O   H1  H2  EPW O   
H1  H2  EPW O   H1  H2  EPW O   H1  H2  EPW O   H1  H2  EPW O   H1  H2  EPW O   
H1  H2  EPW O   H1  H2  EPW O   H1  H2  EPW O   H1  H2  EPW O   H1  H2  EPW O   
H1  H2  EPW O   H1  H2  EPW O   H1  H2  EPW O   H1  H2  EPW O   H1  H2  EPW O   
H1  H2  EPW O   H1  H2  EPW O   H1  H2  EPW O   H1  H2  EPW O   H1  H2  EPW O   
H1  H2  EPW O   H1  H2  EPW O   H1  H2  EPW O   H1  H2  EPW O   H1  H2  EPW O   
H1  H2  EPW O   H1  H2  EPW O   H1  H2  EPW O   H1  H2  EPW O   H1  H2  EPW O   
H1  H2  EPW O   H1  H2  EPW O   H1  H2  EPW O   H1  H2  EPW O   H1  H2  EPW O   
H1  H2  EPW O   H1  H2  EPW O   H1  H2  EPW O   H1  H2  EPW O   H1  H2  EPW O   
H1  H2  EPW O   H1  H2  EPW O   H1  H2  EPW O   H1  H2  EPW O   H1  H2  EPW O   
H1  H2  EPW O   H1  H2  EPW O   H1  H2  EPW O   H1  H2  EPW O   H1  H2  EPW O   
H1  H2  EPW O   H1  H2  EPW O   H1  H2  EPW O   H1  H2  EPW O   H1  H2  EPW O   
H1  H2  EPW O   H1  H2  EPW O   H1  H2  EPW O   H1  H2  EPW O   H1  H2  EPW O   
H1  H2  EPW O   H1  H2  EPW O   H1  H2  EPW O   H1  H2  EPW O   H1  H2  EPW O   
H1  H2  EPW O   H1  H2  EPW O   H1  H2  EPW O   H1  H2  EPW O   H1  H2  EPW O   
H1  H2  EPW O   H1  H2  EPW O   H1  H2  EPW O   H1  H2  EPW O   H1  H2  EPW O   
H1  H2  EPW O   H1  H2  EPW O   H1  H2  EPW O   H1  H2  EPW O   H1  H2  EPW O   
H1  H2  EPW O   H1  H2  EPW O   H1  H2  EPW O   H1  H2  EPW O   H1  H2  EPW O   
H1  H2  EPW O   H1  H2  EPW O   H1  H2  EPW O   H1  H2  EPW O   H1  H2  EPW O   
H1  H2  EPW O   H1  H2  EPW O   H1  H2  EPW O   H1  H2  EPW O   H1  H2  EPW O   
H1  H2  EPW O   H1  H2  EPW O   H1  H2  EPW O   H1  H2  EPW O   H1  H2  EPW O   
H1  H2  EPW O   H1  H2  EPW O   H1  H2  EPW O   H1  H2  EPW O   H1  H2  EPW O   
H1  H2  EPW O   H1  H2  EPW O   H1  H2  EPW O   H1  H2  EPW O   H1  H2  EPW O   
H1  H2  EPW O   H1  H2  EPW O   H1  H2  EPW O   H1  H2  EPW O   H1  H2  EPW O   
H1  H2  EPW O   H1  H2  EPW O   H1  H2  EPW O   H1  H2  EPW O   H1  H2  EPW O   
H1  H2  EPW O   H1  H2  EPW O   H1  H2  EPW O   H1  H2  EPW O   H1  H2  EPW O   
H1  H2  EPW O   H1  H2  EPW O   H1  H2  EPW O   H1  H2  EPW O   H1  H2  EPW O   
H1  H2  EPW O   H1  H2  EPW O   H1  H2  EPW O   H1  H2  EPW O   H1  H2  EPW O   
H1  H2  EPW O   H1  H2  EPW O   H1  H2  EPW O   H1  H2  EPW O   H1  H2  EPW O   
H1  H2  EPW O   H1  H2  EPW O   H1  H2  EPW O   H1  H2  EPW O   H1  H2  EPW O   
H1  H2  EPW O   H1  H2  EPW O   H1  H2  EPW O   H1  H2  EPW O   H1  H2  EPW O   
H1  H2  EPW O   H1  H2  EPW O   H1  H2  EPW O   H1  H2  EPW O   H1  H2  EPW O   
H1  H2  EPW O   H1  H2  EPW O   H1  H2  EPW O   H1  H2  EPW O   H1  H2  EPW O   
H1  H2  EPW O   H1  H2  EPW O   H1  H2  EPW O   H1  H2  EPW O   H1  H2  EPW O   
H1  H2  EPW O   H1  H2  EPW O   H1  H2  EPW O   H1  H2  EPW O   H1  H2  EPW O   
H1  H2  EPW O   H1  H2  EPW O   H1  H2  EPW O   H1  H2  EPW O   H1  H2  EPW O   
H1  H2  EPW O   H1  H2  EPW O   H1  H2  EPW O   H1  H2  EPW O   H1  H2  EPW O   
H1  H2  EPW O   H1  H2  EPW O   H1  H2  EPW O   H1  H2  EPW O   H1  H2  EPW O   
H1  H2  EPW O   H1  H2  EPW O   H1  H2  EPW O   H1  H2  EPW O   H1  H2  EPW O   
H1  H2  EPW O   H1  H2  EPW O   H1  H2  EPW O   H1  H2  EPW O   H1  H2  EPW O   
H1  H2  EPW O   H1  H2  EPW O   H1  H2  EPW O   H1  H2  EPW O   H1  H2  EPW O   
H1  H2  EPW O   H1  H2  EPW O   H1  H2  EPW O   H1  H2  EPW O   H1  H2  EPW O   
H1  H2  EPW O   H1  H2  EPW O   H1  H2  EPW O   H1  H2  EPW O   H1  H2  EPW O   
H1  H2  EPW O   H1  H2  EPW O   H1  H2  EPW O   H1  H2  EPW O   H1  H2  EPW O   
H1  H2  EPW O   H1  H2  EPW O   H1  H2  EPW O   H1  H2  EPW O   H1  H2  EPW O   
H1  H2  EPW O   H1  H2  EPW O   H1  H2  EPW O   H1  H2  EPW O   H1  H2  EPW O   
H1  H2  EPW O   H1  H2  EPW O   H1  H2  EPW O   H1  H2  EPW O   H1  H2  EPW O   
H1  H2  EPW O   H1  H2  EPW O   H1  H2  EPW O   H1  H2  EPW O   H1  H2  EPW O   
H1  H2  EPW O   H1  H2  EPW O   H1  H2  EPW O   H1  H2  EPW O   H1  H2  EPW O   
H1  H2  EPW O   H1  H2  EPW O   H1  H2  EPW O   H1  H2  EPW O   H1  H2  EPW O   
H1  H2  EPW O   H1  H2  EPW O   H1  H2  EPW O   H1  H2  EPW O   H1  H2  EPW O   
H1  H2  EPW O   H1  H2  EPW O   H1  H2  EPW O   H1  H2  EPW O   H1  H2  EPW O   
H1  H2  EPW O   H1  H2  EPW O   H1  H2  EPW O   H1  H2  EPW O   H1  H2  EPW O   
H1  H2  EPW O   H1  H2  EPW O   H1  H2  EPW O   H1  H2  EPW O   H1  H2  EPW O   
H1  H2  EPW O   H1  H2  EPW O   H1  H2  EPW O   H1  H2  EPW O   H1  H2  EPW O   
H1  H2  EPW O   H1  H2  EPW O   H1  H2  EPW O   H1  H2  EPW O   H1  H2  EPW O   
H1  H2  EPW O   H1  H2  EPW O   H1  H2  EPW O   H1  H2  EPW O   H1  H2  EPW O   
H1  H2  EPW O   H1  H2  EPW O   H1  H2  EPW O   H1  H2  EPW O   H1  H2  EPW O   
H1  H2  EPW O   H1  H2  EPW O   H1  H2  EPW O   H1  H2  EPW O   H1  H2  EPW O   
H1  H2  EPW O   H1  H2  EPW O   H1  H2  EPW O   H1  H2  EPW O   H1  H2  EPW O   
H1  H2  EPW O   H1  H2  EPW O   H1  H2  EPW O   H1  H2  EPW O   H1  H2  EPW O   
H1  H2  EPW O   H1  H2  EPW O   H1  H2  EPW O   H1  H2  EPW O   H1  H2  EPW O   
H1  H2  EPW O   H1  H2  EPW O   H1  H2  EPW O   H1  H2  EPW O   H1  H2  EPW O   
H1  H2  EPW O   H1  H2  EPW O   H1  H2  EPW O   H1  H2  EPW O   H1  H2  EPW O   
H1  H2  EPW O   H1  H2  EPW O   H1  H2  EPW O   H1  H2  EPW O   H1  H2  EPW O   
H1  H2  EPW O   H1  H2  EPW O   H1  H2  EPW O   H1  H2  EPW O   H1  H2  EPW O   
H1  H2  EPW O   H1  H2  EPW O   H1  H2  EPW O   H1  H2  EPW O   H1  H2  EPW O   
H1  H2  EPW O   H1  H2  EPW O   H1  H2  EPW O   H1  H2  EPW O   H1  H2  EPW O   
H1  H2  EPW O   H1  H2  EPW O   H1  H2  EPW O   H1  H2  EPW O   H1  H2  EPW O   
H1  H2  EPW O   H1  H2  EPW O   H1  H2  EPW O   H1  H2  EPW O   H1  H2  EPW O   
H1  H2  EPW O   H1  H2  EPW O   H1  H2  EPW O   H1  H2  EPW O   H1  H2  EPW O   
H1  H2  EPW O   H1  H2  EPW O   H1  H2  EPW O   H1  H2  EPW O   H1  H2  EPW O   
H1  H2  EPW O   H1  H2  EPW O   H1  H2  EPW O   H1  H2  EPW O   H1  H2  EPW O   
H1  H2  EPW O   H1  H2  EPW O   H1  H2  EPW O   H1  H2  EPW O   H1  H2  EPW O   
H1  H2  EPW O   H1  H2  EPW O   H1  H2  EPW O   H1  H2  EPW O   H1  H2  EPW O   
H1  H2  EPW O   H1  H2  EPW O   H1  H2  EPW O   H1  H2  EPW O   H1  H2  EPW O   
H1  H2  EPW O   H1  H2  EPW O   H1  H2  EPW O   H1  H2  EPW O   H1  H2  EPW O   
H1  H2  EPW O   H1  H2  EPW O   H1  H2  EPW O   H1  H2  EPW O   H1  H2  EPW O   
H1  H2  EPW O   H1  H2  EPW O   H1  H2  EPW O   H1  H2  EPW O   H1  H2  EPW O   
H1  H2  EPW O   H1  H2  EPW O   H1  H2  EPW O   H1  H2  EPW O   H1  H2  EPW O   
H1  H2  EPW O   H1  H2  EPW O   H1  H2  EPW O   H1  H2  EPW O   H1  H2  EPW O   
H1  H2  EPW O   H1  H2  EPW O   H1  H2  EPW O   H1  H2  EPW O   H1  H2  EPW O   
H1  H2  EPW O   H1  H2  EPW O   H1  H2  EPW O   H1  H2  EPW O   H1  H2  EPW O   
H1  H2  EPW O   H1  H2  EPW O   H1  H2  EPW O   H1  H2  EPW O   H1  H2  EPW O   
H1  H2  EPW O   H1  H2  EPW O   H1  H2  EPW O   H1  H2  EPW O   H1  H2  EPW O   
H1  H2  EPW O   H1  H2  EPW O   H1  H2  EPW O   H1  H2  EPW O   H1  H2  EPW O   
H1  H2  EPW O   H1  H2  EPW O   H1  H2  EPW O   H1  H2  EPW O   H1  H2  EPW O   
H1  H2  EPW O   H1  H2  EPW O   H1  H2  EPW O   H1  H2  EPW O   H1  H2  EPW O   
H1  H2  EPW O   H1  H2  EPW O   H1  H2  EPW O   H1  H2  EPW O   H1  H2  EPW O   
H1  H2  EPW O   H1  H2  EPW O   H1  H2  EPW O   H1  H2  EPW O   H1  H2  EPW O   
H1  H2  EPW O   H1  H2  EPW O   H1  H2  EPW O   H1  H2  EPW O   H1  H2  EPW O   
H1  H2  EPW O   H1  H2  EPW O   H1  H2  EPW O   H1  H2  EPW O   H1  H2  EPW O   
H1  H2  EPW O   H1  H2  EPW O   H1  H2  EPW O   H1  H2  EPW O   H1  H2  EPW O   
H1  H2  EPW O   H1  H2  EPW O   H1  H2  EPW O   H1  H2  EPW O   H1  H2  EPW O   
H1  H2  EPW O   H1  H2  EPW O   H1  H2  EPW O   H1  H2  EPW O   H1  H2  EPW O   
H1  H2  EPW O   H1  H2  EPW O   H1  H2  EPW O   H1  H2  EPW O   H1  H2  EPW O   
H1  H2  EPW O   H1  H2  EPW O   H1  H2  EPW O   H1  H2  EPW O   H1  H2  EPW O   
H1  H2  EPW O   H1  H2  EPW O   H1  H2  EPW O   H1  H2  EPW O   H1  H2  EPW O   
H1  H2  EPW O   H1  H2  EPW O   H1  H2  EPW O   H1  H2  EPW O   H1  H2  EPW O   
H1  H2  EPW O   H1  H2  EPW O   H1  H2  EPW O   H1  H2  EPW O   H1  H2  EPW O   
H1  H2  EPW O   H1  H2  EPW O   H1  H2  EPW O   H1  H2  EPW O   H1  H2  EPW O   
H1  H2  EPW O   H1  H2  EPW O   H1  H2  EPW O   H1  H2  EPW O   H1  H2  EPW O   
H1  H2  EPW O   H1  H2  EPW O   H1  H2  EPW O   H1  H2  EPW O   H1  H2  EPW O   
H1  H2  EPW O   H1  H2  EPW O   H1  H2  EPW O   H1  H2  EPW O   H1  H2  EPW O   
H1  H2  EPW O   H1  H2  EPW O   H1  H2  EPW O   H1  H2  EPW O   H1  H2  EPW O   
H1  H2  EPW O   H1  H2  EPW O   H1  H2  EPW O   H1  H2  EPW O   H1  H2  EPW O   
H1  H2  EPW O   H1  H2  EPW O   H1  H2  EPW O   H1  H2  EPW O   H1  H2  EPW O   
H1  H2  EPW O   H1  H2  EPW O   H1  H2  EPW O   H1  H2  EPW O   H1  H2  EPW O   
H1  H2  EPW O   H1  H2  EPW O   H1  H2  EPW O   H1  H2  EPW O   H1  H2  EPW O   
H1  H2  EPW O   H1  H2  EPW O   H1  H2  EPW O   H1  H2  EPW O   H1  H2  EPW O   
H1  H2  EPW O   H1  H2  EPW O   H1  H2  EPW O   H1  H2  EPW O   H1  H2  EPW O   
H1  H2  EPW O   H1  H2  EPW O   H1  H2  EPW O   H1  H2  EPW O   H1  H2  EPW O   
H1  H2  EPW O   H1  H2  EPW O   H1  H2  EPW O   H1  H2  EPW O   H1  H2  EPW O   
H1  H2  EPW O   H1  H2  EPW O   H1  H2  EPW O   H1  H2  EPW O   H1  H2  EPW O   
H1  H2  EPW O   H1  H2  EPW O   H1  H2  EPW O   H1  H2  EPW O   H1  H2  EPW O   
H1  H2  EPW O   H1  H2  EPW O   H1  H2  EPW O   H1  H2  EPW O   H1  H2  EPW O   
H1  H2  EPW O   H1  H2  EPW O   H1  H2  EPW O   H1  H2  EPW O   H1  H2  EPW O   
H1  H2  EPW O   H1  H2  EPW O   H1  H2  EPW O   H1  H2  EPW O   H1  H2  EPW O   
H1  H2  EPW O   H1  H2  EPW O   H1  H2  EPW O   H1  H2  EPW O   H1  H2  EPW O   
H1  H2  EPW O   H1  H2  EPW O   H1  H2  EPW O   H1  H2  EPW O   H1  H2  EPW O   
H1  H2  EPW O   H1  H2  EPW O   H1  H2  EPW O   H1  H2  EPW O   H1  H2  EPW O   
H1  H2  EPW O   H1  H2  EPW O   H1  H2  EPW O   H1  H2  EPW O   H1  H2  EPW O   
H1  H2  EPW O   H1  H2  EPW O   H1  H2  EPW O   H1  H2  EPW O   H1  H2  EPW O   
H1  H2  EPW O   H1  H2  EPW O   H1  H2  EPW O   H1  H2  EPW O   H1  H2  EPW O   
H1  H2  EPW O   H1  H2  EPW O   H1  H2  EPW O   H1  H2  EPW O   H1  H2  EPW O   
H1  H2  EPW O   H1  H2  EPW O   H1  H2  EPW O   H1  H2  EPW O   H1  H2  EPW O   
H1  H2  EPW O   H1  H2  EPW O   H1  H2  EPW O   H1  H2  EPW O   H1  H2  EPW O   
H1  H2  EPW O   H1  H2  EPW O   H1  H2  EPW O   H1  H2  EPW O   H1  H2  EPW O   
H1  H2  EPW O   H1  H2  EPW O   H1  H2  EPW 
%FLAG CHARGE                                                                    
%FORMAT(5E16.8)                                                                 
  2.04636429E+00 -6.67300626E+00  2.04636429E+00  2.04636429E+00  1.08823576E+01
 -1.03484442E+01 -7.57501011E+00  4.95464337E+00 -5.01113250E-01  2.04636429E+00
 -9.11115000E-02  6.17735970E-01  6.17735970E-01 -2.57845545E+00 -2.98481274E+00
  3.75743826E+00 -6.22838214E+00  6.21744876E+00  2.51467740E+00 -4.73962023E+00
  2.86454556E+00 -2.06640882E+00  2.58209991E+00 -3.59343756E+00  2.63676681E+00
 -4.34966301E+00  3.09779100E+00  2.26503189E+00  1.08841798E+01 -1.03484442E+01
 -7.57501011E+00  4.95464337E+00 -1.59445125E+00  1.76574087E+00  5.43935655E+00
 -5.41202310E-01 -5.81655816E+00  1.44138393E+00  1.44138393E+00  1.44138393E+00
 -5.81655816E+00  1.44138393E+00  1.44138393E+00  1.44138393E+00  1.08841798E+01
 -1.03484442E+01 -7.57501011E+00  4.95464337E+00 -7.08847470E-01  1.83498561E+00
  6.65842842E+00  7.83558900E-02 -4.44259674E+00  1.16987166E+00  1.16987166E+00
  1.16987166E+00 -1.23200970E+01  7.47478746E+00  1.08841798E+01 -1.03484442E+01
 -7.57501011E+00  4.95464337E+00  3.42579240E-01  1.60538463E+00 -8.41870260E-01
  7.32536460E-01  7.32536460E-01 -4.84713180E-01 -6.94451853E+00  6.64931727E+00
  3.74832711E+00  2.53654416E+00 -1.04359112E+01  2.35432116E+00  2.09009781E+00
  1.08841798E+01 -1.03484442E+01 -6.33953817E+00  5.00566581E+00 -4.80522051E+00
  2.84267880E+00 -1.27556100E-02  5.95869210E-01  5.95869210E-01  7.10669700E-01
  5.19335550E-01  5.19335550E-01  8.85603780E-01  1.25187201E+00  1.25187201E+00
 -9.64870785E+00  6.29762688E+00  1.47163295E+01 -1.57203782E+01  8.15994594E+00
  8.15994594E+00 -1.57203782E+01  8.15994594E+00  8.15994594E+00  1.33769904E+01
 -1.07402236E+01  1.48949080E+01 -1.10736917E+01  1.39036149E+00 -5.51406798E+00
 -5.72180220E-01  1.00222650E-01  1.86778575E+00 -4.54828608E+00 -4.54828608E+00
  1.00222650E-01 -1.24585865E+01  1.83316338E+00  1.83316338E+00  1.83316338E+00
  5.04757710E-01  5.04757710E-01  4.10001750E-01  4.10001750E-01  3.40757010E-01
  3.40757010E-01  2.54929977E+00  2.54929977E+00  3.40757010E-01  3.40757010E-01
  6.23749329E+00 -7.57501011E+00  4.95464337E+00  6.14091510E-01  1.49969529E+00
 -3.32556975E+00  1.09880469E+00  1.09880469E+00  1.09880469E+00  1.08841798E+01
 -1.03484442E+01 -7.57501011E+00  4.95464337E+00 -4.59201960E-01  1.27191654E+00
  1.27191654E+00  1.08841798E+01 -1.03484442E+01 -7.57501011E+00  4.95464337E+00
 -9.43915140E-01  1.68009606E+00 -2.00809746E+00  8.32759110E-01  8.32759110E-01
  6.43429413E+00 -6.57825030E-01 -7.50940983E+00  1.82223000E+00  1.82223000E+00
  1.82223000E+00 -7.50940983E+00  1.82223000E+00  1.82223000E+00  1.82223000E+00
  1.08841798E+01 -1.03484442E+01  1.48949080E+01 -1.10736917E+01  1.39036149E+00
 -5.51406798E+00 -5.72180220E-01  1.00222650E-01 -1.24585865E+01  1.83316338E+00
  1.83316338E+00  1.83316338E+00  5.04757710E-01  5.04757710E-01  4.10001750E-01
  4.10001750E-01  6.23749329E+00 -7.57501011E+00  4.95464337E+00 -4.53735270E-01
  1.53613989E+00  3.85766091E+00  6.41424960E-01  6.41424960E-01 -1.19283176E+01
  7.79003325E+00  1.08841798E+01 -1.03484442E+01 -6.33953817E+00  5.00566581E+00
 -4.80522051E+00  2.84267880E+00 -1.27556100E-02  5.95869210E-01  5.95869210E-01
  7.10669700E-01  5.19335550E-01  5.19335550E-01  8.85603780E-01  1.25187201E+00
  1.25187201E+00 -9.64870785E+00  6.29762688E+00  1.47163295E+01 -1.57203782E+01
  8.15994594E+00  8.15994594E+00 -1.57203782E+01  8.15994594E+00  8.15994594E+00
  1.33769904E+01 -1.07402236E+01 -7.57501011E+00  4.95464337E+00 -4.53735270E-01
  1.53613989E+00  3.85766091E+00  6.41424960E-01  6.41424960E-01 -1.19283176E+01
  7.79003325E+00  1.08841798E+01 -1.03484442E+01 -7.57501011E+00  4.95464337E+00
 -4.59201960E-01  1.27191654E+00  1.27191654E+00  1.08841798E+01 -1.03484442E+01
 -7.57501011E+00  4.95464337E+00 -4.59201960E-01  1.27191654E+00  1.27191654E+00
  1.08841798E+01 -1.03484442E+01 -7.57501011E+00  4.95464337E+00 -1.59445125E+00
  1.76574087E+00  5.43935655E+00 -5.41202310E-01 -5.81655816E+00  1.44138393E+00
  1.44138393E+00  1.44138393E+00 -5.81655816E+00  1.44138393E+00  1.44138393E+00
  1.44138393E+00  1.08841798E+01 -1.03484442E+01 -7.57501011E+00  4.95464337E+00
 -1.59445125E+00  1.76574087E+00  5.43935655E+00 -5.41202310E-01 -5.81655816E+00
  1.44138393E+00  1.44138393E+00  1.44138393E+00 -5.81655816E+00  1.44138393E+00
  1.44138393E+00  1.44138393E+00  1.08841798E+01 -1.03484442E+01 -6.33953817E+00
  5.00566581E+00 -4.37335200E+00  2.59849998E+00 -1.71289620E-01  6.59647260E-01
  6.59647260E-01  3.40757010E-01  1.87689690E-01  1.87689690E-01 -8.72848170E-01
  1.13160483E+00  1.13160483E+00 -2.60578890E-01  2.06823105E+00  2.06823105E+00
 -7.02287442E+00  6.19558200E+00  6.19558200E+00  6.19558200E+00  1.33769904E+01
 -1.07402236E+01 -7.57501011E+00  4.95464337E+00  2.60578890E-01  1.90969704E+00
 -3.71917143E+00  1.45231731E+00  1.45231731E+00  1.29924999E+01 -1.08076461E+01
 -1.67481159E+01  7.64607708E+00  7.64607708E+00  1.08841798E+01 -1.03484442E+01
 -7.57501011E+00  4.95464337E+00  2.60578890E-01  1.90969704E+00 -3.71917143E+00
  1.45231731E+00  1.45231731E+00  1.29924999E+01 -1.08076461E+01 -1.67481159E+01
  7.64607708E+00  7.64607708E+00  1.08841798E+01 -1.03484442E+01 -7.57501011E+00
  4.95464337E+00 -4.37335200E-02  1.78214094E+00 -6.25024890E-01  5.37557850E-01
  5.37557850E-01  2.15023140E-01 -2.28872088E+00  2.42356590E+00 -3.10507992E+00
  2.60578890E+00 -1.95343056E+00  2.36343231E+00 -3.10507992E+00  2.60578890E+00
 -2.28872088E+00  2.42356590E+00  1.08841798E+01 -1.03484442E+01 -7.57501011E+00
  4.95464337E+00 -1.59445125E+00  1.76574087E+00  5.43935655E+00 -5.41202310E-01
 -5.81655816E+00  1.44138393E+00  1.44138393E+00  1.44138393E+00 -5.81655816E+00
  1.44138393E+00  1.44138393E+00  1.44138393E+00  1.08841798E+01 -1.03484442E+01
 -4.64304204E+00  3.49868160E-01  7.12491930E-01  7.12491930E-01  3.44401470E-01
  3.88134990E-01  3.88134990E-01 -1.27556100E-01  4.61024190E-01  4.61024190E-01
 -4.84713180E-01  1.16804943E+00  1.07438681E+01 -1.04741780E+01 -7.57501011E+00
  4.95464337E+00 -7.08847470E-01  1.83498561E+00  6.65842842E+00  7.83558900E-02
 -4.44259674E+00  1.16987166E+00  1.16987166E+00  1.16987166E+00 -1.23200970E+01
  7.47478746E+00  1.08841798E+01 -1.03484442E+01 -9.40817349E+00  5.35006728E+00
  6.94269630E-01  1.60356240E+00 -5.52135690E-01 -2.22312060E-01 -2.22312060E-01
  1.45669066E+01 -1.46033512E+01 -1.46033512E+01  9.77808618E+00 -1.06035564E+01
 -7.57501011E+00  4.95464337E+00 -1.59445125E+00  1.76574087E+00  5.43935655E+00
 -5.41202310E-01 -5.81655816E+00  1.44138393E+00  1.44138393E+00  1.44138393E+00
 -5.81655816E+00  1.44138393E+00  1.44138393E+00  1.44138393E+00  1.08841798E+01
 -1.03484442E+01 -7.57501011E+00  4.95464337E+00 -4.59201960E-01  1.27191654E+00
  1.27191654E+00  1.08841798E+01 -1.03484442E+01 -4.64304204E+00  3.49868160E-01
  7.12491930E-01  7.12491930E-01  3.44401470E-01  3.88134990E-01  3.88134990E-01
 -1.27556100E-01  4.61024190E-01  4.61024190E-01 -4.84713180E-01  1.16804943E+00
  1.07438681E+01 -1.04741780E+01 -7.57501011E+00  4.95464337E+00 -4.37335200E-02
  1.78214094E+00 -6.25024890E-01  5.37557850E-01  5.37557850E-01  2.15023140E-01
 -2.28872088E+00  2.42356590E+00 -3.10507992E+00  2.60578890E+00 -1.95343056E+00
  2.36343231E+00 -3.10507992E+00  2.60578890E+00 -2.28872088E+00  2.42356590E+00
  1.08841798E+01 -1.03484442E+01 -7.57501011E+00  4.95464337E+00  6.14091510E-01
  1.49969529E+00 -3.32556975E+00  1.09880469E+00  1.09880469E+00  1.09880469E+00
  1.08841798E+01 -1.03484442E+01 -7.57501011E+00  4.95464337E+00 -4.37335200E-02
  1.78214094E+00 -6.25024890E-01  5.37557850E-01  5.37557850E-01  2.15023140E-01
 -2.28872088E+00  2.42356590E+00 -3.10507992E+00  2.60578890E+00 -1.95343056E+00
  2.36343231E+00 -3.10507992E+00  2.60578890E+00 -2.28872088E+00  2.42356590E+00
  1.08841798E+01 -1.03484442E+01 -8.43692490E+00  4.21846245E+00  4.21846245E+00
  1.82223000E+01  1.82223000E+01  1.82223000E+01  1.82223000E+01  1.82223000E+01
  1.82223000E+01  1.82223000E+01  1.82223000E+01  1.82223000E+01  1.82223000E+01
  1.82223000E+01  1.82223000E+01  1.82223000E+01  1.82223000E+01  1.82223000E+01
  1.82223000E+01  1.82223000E+01  1.82223000E+01  1.82223000E+01  1.82223000E+01
 -1.82223000E+01 -1.82223000E+01 -1.82223000E+01 -1.82223000E+01 -1.82223000E+01
 -1.82223000E+01 -1.82223000E+01 -1.82223000E+01 -1.82223000E+01 -1.82223000E+01
 -1.82223000E+01 -1.82223000E+01 -1.82223000E+01 -1.82223000E+01 -1.82223000E+01
 -1.82223000E+01 -1.82223000E+01 -1.82223000E+01 -1.82223000E+01 -1.82223000E+01
 -1.82223000E+01 -1.82223000E+01  0.00000000E+00  1.23755293E+01  1.23755293E+01
 -2.47510585E+01  0.00000000E+00  1.23755293E+01  1.23755293E+01 -2.47510585E+01
  0.00000000E+00  1.23755293E+01  1.23755293E+01 -2.47510585E+01  0.00000000E+00
  1.23755293E+01  1.23755293E+01 -2.47510585E+01  0.00000000E+00  1.23755293E+01
  1.23755293E+01 -2.47510585E+01  0.00000000E+00  1.23755293E+01  1.23755293E+01
 -2.47510585E+01  0.00000000E+00  1.23755293E+01  1.23755293E+01 -2.47510585E+01
  0.00000000E+00  1.23755293E+01  1.23755293E+01 -2.47510585E+01  0.00000000E+00
  1.23755293E+01  1.23755293E+01 -2.47510585E+01  0.00000000E+00  1.23755293E+01
  1.23755293E+01 -2.47510585E+01  0.00000000E+00  1.23755293E+01  1.23755293E+01
 -2.47510585E+01  0.00000000E+00  1.23755293E+01  1.23755293E+01 -2.47510585E+01
  0.00000000E+00  1.23755293E+01  1.23755293E+01 -2.47510585E+01  0.00000000E+00
  1.23755293E+01  1.23755293E+01 -2.47510585E+01  0.00000000E+00  1.23755293E+01
  1.23755293E+01 -2.47510585E+01  0.00000000E+00  1.23755293E+01  1.23755293E+01
 -2.47510585E+01  0.00000000E+00  1.23755293E+01  1.23755293E+01 -2.47510585E+01
  0.00000000E+00  1.23755293E+01  1.23755293E+01 -2.47510585E+01  0.00000000E+00
  1.23755293E+01  1.23755293E+01 -2.47510585E+01  0.00000000E+00  1.23755293E+01
  1.23755293E+01 -2.47510585E+01  0.00000000E+00  1.23755293E+01  1.23755293E+01
 -2.47510585E+01  0.00000000E+00  1.23755293E+01  1.23755293E+01 -2.47510585E+01
  0.00000000E+00  1.23755293E+01  1.23755293E+01 -2.47510585E+01  0.00000000E+00
  1.23755293E+01  1.23755293E+01 -2.47510585E+01  0.00000000E+00  1.23755293E+01
  1.23755293E+01 -2.47510585E+01  0.00000000E+00  1.23755293E+01  1.23755293E+01
 -2.47510585E+01  0.00000000E+00  1.23755293E+01  1.23755293E+01 -2.47510585E+01
  0.00000000E+00  1.23755293E+01  1.23755293E+01 -2.47510585E+01  0.00000000E+00
  1.23755293E+01  1.23755293E+01 -2.47510585E+01  0.00000000E+00  1.23755293E+01
  1.23755293E+01 -2.47510585E+01  0.00000000E+00  1.23755293E+01  1.23755293E+01
 -2.47510585E+01  0.00000000E+00  1.23755293E+01  1.23755293E+01 -2.47510585E+01
  0.00000000E+00  1.23755293E+01  1.23755293E+01 -2.47510585E+01  0.00000000E+00
  1.23755293E+01  1.23755293E+01 -2.47510585E+01  0.00000000E+00  1.23755293E+01
  1.23755293E+01 -2.47510585E+01  0.00000000E+00  1.23755293E+01  1.23755293E+01
 -2.47510585E+01  0.00000000E+00  1.23755293E+01  1.23755293E+01 -2.47510585E+01
  0.00000000E+00  1.23755293E+01  1.23755293E+01 -2.47510585E+01  0.00000000E+00
  1.23755293E+01  1.23755293E+01 -2.47510585E+01  0.00000000E+00  1.23755293E+01
  1.23755293E+01 -2.47510585E+01  0.00000000E+00  1.23755293E+01  1.23755293E+01
 -2.47510585E+01  0.00000000E+00  1.23755293E+01  1.23755293E+01 -2.47510585E+01
  0.00000000E+00  1.23755293E+01  1.23755293E+01 -2.47510585E+01  0.00000000E+00
  1.23755293E+01  1.23755293E+01 -2.47510585E+01  0.00000000E+00  1.23755293E+01
  1.23755293E+01 -2.47510585E+01  0.00000000E+00  1.23755293E+01  1.23755293E+01
 -2.47510585E+01  0.00000000E+00  1.23755293E+01  1.23755293E+01 -2.47510585E+01
  0.00000000E+00  1.23755293E+01  1.23755293E+01 -2.47510585E+01  0.00000000E+00
  1.23755293E+01  1.23755293E+01 -2.47510585E+01  0.00000000E+00  1.23755293E+01
  1.23755293E+01 -2.47510585E+01  0.00000000E+00  1.23755293E+01  1.23755293E+01
 -2.47510585E+01  0.00000000E+00  1.23755293E+01  1.23755293E+01 -2.47510585E+01
  0.00000000E+00  1.23755293E+01  1.23755293E+01 -2.47510585E+01  0.00000000E+00
  1.23755293E+01  1.23755293E+01 -2.47510585E+01  0.00000000E+00  1.23755293E+01
  1.23755293E+01 -2.47510585E+01  0.00000000E+00  1.23755293E+01  1.23755293E+01
 -2.47510585E+01  0.00000000E+00  1.23755293E+01  1.23755293E+01 -2.47510585E+01
  0.00000000E+00  1.23755293E+01  1.23755293E+01 -2.47510585E+01  0.00000000E+00
  1.23755293E+01  1.23755293E+01 -2.47510585E+01  0.00000000E+00  1.23755293E+01
  1.23755293E+01 -2.47510585E+01  0.00000000E+00  1.23755293E+01  1.23755293E+01
 -2.47510585E+01  0.00000000E+00  1.23755293E+01  1.23755293E+01 -2.47510585E+01
  0.00000000E+00  1.23755293E+01  1.23755293E+01 -2.47510585E+01  0.00000000E+00
  1.23755293E+01  1.23755293E+01 -2.47510585E+01  0.00000000E+00  1.23755293E+01
  1.23755293E+01 -2.47510585E+01  0.00000000E+00  1.23755293E+01  1.23755293E+01
 -2.47510585E+01  0.00000000E+00  1.23755293E+01  1.23755293E+01 -2.47510585E+01
  0.00000000E+00  1.23755293E+01  1.23755293E+01 -2.47510585E+01  0.00000000E+00
  1.23755293E+01  1.23755293E+01 -2.47510585E+01  0.00000000E+00  1.23755293E+01
  1.23755293E+01 -2.47510585E+01  0.00000000E+00  1.23755293E+01  1.23755293E+01
 -2.47510585E+01  0.00000000E+00  1.23755293E+01  1.23755293E+01 -2.47510585E+01
  0.00000000E+00  1.23755293E+01  1.23755293E+01 -2.47510585E+01  0.00000000E+00
  1.23755293E+01  1.23755293E+01 -2.47510585E+01  0.00000000E+00  1.23755293E+01
  1.23755293E+01 -2.47510585E+01  0.00000000E+00  1.23755293E+01  1.23755293E+01
 -2.47510585E+01  0.00000000E+00  1.23755293E+01  1.23755293E+01 -2.47510585E+01
  0.00000000E+00  1.23755293E+01  1.23755293E+01 -2.47510585E+01  0.00000000E+00
  1.23755293E+01  1.23755293E+01 -2.47510585E+01  0.00000000E+00  1.23755293E+01
  1.23755293E+01 -2.47510585E+01  0.00000000E+00  1.23755293E+01  1.23755293E+01
 -2.47510585E+01  0.00000000E+00  1.23755293E+01  1.23755293E+01 -2.47510585E+01
  0.00000000E+00  1.23755293E+01  1.23755293E+01 -2.47510585E+01  0.00000000E+00
  1.23755293E+01  1.23755293E+01 -2.47510585E+01  0.00000000E+00  1.23755293E+01
  1.23755293E+01 -2.47510585E+01  0.00000000E+00  1.23755293E+01  1.23755293E+01
 -2.47510585E+01  0.00000000E+00  1.23755293E+01  1.23755293E+01 -2.47510585E+01
  0.00000000E+00  1.23755293E+01  1.23755293E+01 -2.47510585E+01  0.00000000E+00
  1.23755293E+01  1.23755293E+01 -2.47510585E+01  0.00000000E+00  1.23755293E+01
  1.23755293E+01 -2.47510585E+01  0.00000000E+00  1.23755293E+01  1.23755293E+01
 -2.47510585E+01  0.00000000E+00  1.23755293E+01  1.23755293E+01 -2.47510585E+01
  0.00000000E+00  1.23755293E+01  1.23755293E+01 -2.47510585E+01  0.00000000E+00
  1.23755293E+01  1.23755293E+01 -2.47510585E+01  0.00000000E+00  1.23755293E+01
  1.23755293E+01 -2.47510585E+01  0.00000000E+00  1.23755293E+01  1.23755293E+01
 -2.47510585E+01  0.00000000E+00  1.23755293E+01  1.23755293E+01 -2.47510585E+01
  0.00000000E+00  1.23755293E+01  1.23755293E+01 -2.47510585E+01  0.00000000E+00
  1.23755293E+01  1.23755293E+01 -2.47510585E+01  0.00000000E+00  1.23755293E+01
  1.23755293E+01 -2.47510585E+01  0.00000000E+00  1.23755293E+01  1.23755293E+01
 -2.47510585E+01  0.00000000E+00  1.23755293E+01  1.23755293E+01 -2.47510585E+01
  0.00000000E+00  1.23755293E+01  1.23755293E+01 -2.47510585E+01  0.00000000E+00
  1.23755293E+01  1.23755293E+01 -2.47510585E+01  0.00000000E+00  1.23755293E+01
  1.23755293E+01 -2.47510585E+01  0.00000000E+00  1.23755293E+01  1.23755293E+01
 -2.47510585E+01  0.00000000E+00  1.23755293E+01  1.23755293E+01 -2.47510585E+01
  0.00000000E+00  1.23755293E+01  1.23755293E+01 -2.47510585E+01  0.00000000E+00
  1.23755293E+01  1.23755293E+01 -2.47510585E+01  0.00000000E+00  1.23755293E+01
  1.23755293E+01 -2.47510585E+01  0.00000000E+00  1.23755293E+01  1.23755293E+01
 -2.47510585E+01  0.00000000E+00  1.23755293E+01  1.23755293E+01 -2.47510585E+01
  0.00000000E+00  1.23755293E+01  1.23755293E+01 -2.47510585E+01  0.00000000E+00
  1.23755293E+01  1.23755293E+01 -2.47510585E+01  0.00000000E+00  1.23755293E+01
  1.23755293E+01 -2.47510585E+01  0.00000000E+00  1.23755293E+01  1.23755293E+01
 -2.47510585E+01  0.00000000E+00  1.23755293E+01  1.23755293E+01 -2.47510585E+01
  0.00000000E+00  1.23755293E+01  1.23755293E+01 -2.47510585E+01  0.00000000E+00
  1.23755293E+01  1.23755293E+01 -2.47510585E+01  0.00000000E+00  1.23755293E+01
  1.23755293E+01 -2.47510585E+01  0.00000000E+00  1.23755293E+01  1.23755293E+01
 -2.47510585E+01  0.00000000E+00  1.23755293E+01  1.23755293E+01 -2.47510585E+01
  0.00000000E+00  1.23755293E+01  1.23755293E+01 -2.47510585E+01  0.00000000E+00
  1.23755293E+01  1.23755293E+01 -2.47510585E+01  0.00000000E+00  1.23755293E+01
  1.23755293E+01 -2.47510585E+01  0.00000000E+00  1.23755293E+01  1.23755293E+01
 -2.47510585E+01  0.00000000E+00  1.23755293E+01  1.23755293E+01 -2.47510585E+01
  0.00000000E+00  1.23755293E+01  1.23755293E+01 -2.47510585E+01  0.00000000E+00
  1.23755293E+01  1.23755293E+01 -2.47510585E+01  0.00000000E+00  1.23755293E+01
  1.23755293E+01 -2.47510585E+01  0.00000000E+00  1.23755293E+01  1.23755293E+01
 -2.47510585E+01  0.00000000E+00  1.23755293E+01  1.23755293E+01 -2.47510585E+01
  0.00000000E+00  1.23755293E+01  1.23755293E+01 -2.47510585E+01  0.00000000E+00
  1.23755293E+01  1.23755293E+01 -2.47510585E+01  0.00000000E+00  1.23755293E+01
  1.23755293E+01 -2.47510585E+01  0.00000000E+00  1.23755293E+01  1.23755293E+01
 -2.47510585E+01  0.00000000E+00  1.23755293E+01  1.23755293E+01 -2.47510585E+01
  0.00000000E+00  1.23755293E+01  1.23755293E+01 -2.47510585E+01  0.00000000E+00
  1.23755293E+01  1.23755293E+01 -2.47510585E+01  0.00000000E+00  1.23755293E+01
  1.23755293E+01 -2.47510585E+01  0.00000000E+00  1.23755293E+01  1.23755293E+01
 -2.47510585E+01  0.00000000E+00  1.23755293E+01  1.23755293E+01 -2.47510585E+01
  0.00000000E+00  1.23755293E+01  1.23755293E+01 -2.47510585E+01  0.00000000E+00
  1.23755293E+01  1.23755293E+01 -2.47510585E+01  0.00000000E+00  1.23755293E+01
  1.23755293E+01 -2.47510585E+01  0.00000000E+00  1.23755293E+01  1.23755293E+01
 -2.47510585E+01  0.00000000E+00  1.23755293E+01  1.23755293E+01 -2.47510585E+01
  0.00000000E+00  1.23755293E+01  1.23755293E+01 -2.47510585E+01  0.00000000E+00
  1.23755293E+01  1.23755293E+01 -2.47510585E+01  0.00000000E+00  1.23755293E+01
  1.23755293E+01 -2.47510585E+01  0.00000000E+00  1.23755293E+01  1.23755293E+01
 -2.47510585E+01  0.00000000E+00  1.23755293E+01  1.23755293E+01 -2.47510585E+01
  0.00000000E+00  1.23755293E+01  1.23755293E+01 -2.47510585E+01  0.00000000E+00
  1.23755293E+01  1.23755293E+01 -2.47510585E+01  0.00000000E+00  1.23755293E+01
  1.23755293E+01 -2.47510585E+01  0.00000000E+00  1.23755293E+01  1.23755293E+01
 -2.47510585E+01  0.00000000E+00  1.23755293E+01  1.23755293E+01 -2.47510585E+01
  0.00000000E+00  1.23755293E+01  1.23755293E+01 -2.47510585E+01  0.00000000E+00
  1.23755293E+01  1.23755293E+01 -2.47510585E+01  0.00000000E+00  1.23755293E+01
  1.23755293E+01 -2.47510585E+01  0.00000000E+00  1.23755293E+01  1.23755293E+01
 -2.47510585E+01  0.00000000E+00  1.23755293E+01  1.23755293E+01 -2.47510585E+01
  0.00000000E+00  1.23755293E+01  1.23755293E+01 -2.47510585E+01  0.00000000E+00
  1.23755293E+01  1.23755293E+01 -2.47510585E+01  0.00000000E+00  1.23755293E+01
  1.23755293E+01 -2.47510585E+01  0.00000000E+00  1.23755293E+01  1.23755293E+01
 -2.47510585E+01  0.00000000E+00  1.23755293E+01  1.23755293E+01 -2.47510585E+01
  0.00000000E+00  1.23755293E+01  1.23755293E+01 -2.47510585E+01  0.00000000E+00
  1.23755293E+01  1.23755293E+01 -2.47510585E+01  0.00000000E+00  1.23755293E+01
  1.23755293E+01 -2.47510585E+01  0.00000000E+00  1.23755293E+01  1.23755293E+01
 -2.47510585E+01  0.00000000E+00  1.23755293E+01  1.23755293E+01 -2.47510585E+01
  0.00000000E+00  1.23755293E+01  1.23755293E+01 -2.47510585E+01  0.00000000E+00
  1.23755293E+01  1.23755293E+01 -2.47510585E+01  0.00000000E+00  1.23755293E+01
  1.23755293E+01 -2.47510585E+01  0.00000000E+00  1.23755293E+01  1.23755293E+01
 -2.47510585E+01  0.00000000E+00  1.23755293E+01  1.23755293E+01 -2.47510585E+01
  0.00000000E+00  1.23755293E+01  1.23755293E+01 -2.47510585E+01  0.00000000E+00
  1.23755293E+01  1.23755293E+01 -2.47510585E+01  0.00000000E+00  1.23755293E+01
  1.23755293E+01 -2.47510585E+01  0.00000000E+00  1.23755293E+01  1.23755293E+01
 -2.47510585E+01  0.00000000E+00  1.23755293E+01  1.23755293E+01 -2.47510585E+01
  0.00000000E+00  1.23755293E+01  1.23755293E+01 -2.47510585E+01  0.00000000E+00
  1.23755293E+01  1.23755293E+01 -2.47510585E+01  0.00000000E+00  1.23755293E+01
  1.23755293E+01 -2.47510585E+01  0.00000000E+00  1.23755293E+01  1.23755293E+01
 -2.47510585E+01  0.00000000E+00  1.23755293E+01  1.23755293E+01 -2.47510585E+01
  0.00000000E+00  1.23755293E+01  1.23755293E+01 -2.47510585E+01  0.00000000E+00
  1.23755293E+01  1.23755293E+01 -2.47510585E+01  0.00000000E+00  1.23755293E+01
  1.23755293E+01 -2.47510585E+01  0.00000000E+00  1.23755293E+01  1.23755293E+01
 -2.47510585E+01  0.00000000E+00  1.23755293E+01  1.23755293E+01 -2.47510585E+01
  0.00000000E+00  1.23755293E+01  1.23755293E+01 -2.47510585E+01  0.00000000E+00
  1.23755293E+01  1.23755293E+01 -2.47510585E+01  0.00000000E+00  1.23755293E+01
  1.23755293E+01 -2.47510585E+01  0.00000000E+00  1.23755293E+01  1.23755293E+01
 -2.47510585E+01  0.00000000E+00  1.23755293E+01  1.23755293E+01 -2.47510585E+01
  0.00000000E+00  1.23755293E+01  1.23755293E+01 -2.47510585E+01  0.00000000E+00
  1.23755293E+01  1.23755293E+01 -2.47510585E+01  0.00000000E+00  1.23755293E+01
  1.23755293E+01 -2.47510585E+01  0.00000000E+00  1.23755293E+01  1.23755293E+01
 -2.47510585E+01  0.00000000E+00  1.23755293E+01  1.23755293E+01 -2.47510585E+01
  0.00000000E+00  1.23755293E+01  1.23755293E+01 -2.47510585E+01  0.00000000E+00
  1.23755293E+01  1.23755293E+01 -2.47510585E+01  0.00000000E+00  1.23755293E+01
  1.23755293E+01 -2.47510585E+01  0.00000000E+00  1.23755293E+01  1.23755293E+01
 -2.47510585E+01  0.00000000E+00  1.23755293E+01  1.23755293E+01 -2.47510585E+01
  0.00000000E+00  1.23755293E+01  1.23755293E+01 -2.47510585E+01  0.00000000E+00
  1.23755293E+01  1.23755293E+01 -2.47510585E+01  0.00000000E+00  1.23755293E+01
  1.23755293E+01 -2.47510585E+01  0.00000000E+00  1.23755293E+01  1.23755293E+01
 -2.47510585E+01  0.00000000E+00  1.23755293E+01  1.23755293E+01 -2.47510585E+01
  0.00000000E+00  1.23755293E+01  1.23755293E+01 -2.47510585E+01  0.00000000E+00
  1.23755293E+01  1.23755293E+01 -2.47510585E+01  0.00000000E+00  1.23755293E+01
  1.23755293E+01 -2.47510585E+01  0.00000000E+00  1.23755293E+01  1.23755293E+01
 -2.47510585E+01  0.00000000E+00  1.23755293E+01  1.23755293E+01 -2.47510585E+01
  0.00000000E+00  1.23755293E+01  1.23755293E+01 -2.47510585E+01  0.00000000E+00
  1.23755293E+01  1.23755293E+01 -2.47510585E+01  0.00000000E+00  1.23755293E+01
  1.23755293E+01 -2.47510585E+01  0.00000000E+00  1.23755293E+01  1.23755293E+01
 -2.47510585E+01  0.00000000E+00  1.23755293E+01  1.23755293E+01 -2.47510585E+01
  0.00000000E+00  1.23755293E+01  1.23755293E+01 -2.47510585E+01  0.00000000E+00
  1.23755293E+01  1.23755293E+01 -2.47510585E+01  0.00000000E+00  1.23755293E+01
  1.23755293E+01 -2.47510585E+01  0.00000000E+00  1.23755293E+01  1.23755293E+01
 -2.47510585E+01  0.00000000E+00  1.23755293E+01  1.23755293E+01 -2.47510585E+01
  0.00000000E+00  1.23755293E+01  1.23755293E+01 -2.47510585E+01  0.00000000E+00
  1.23755293E+01  1.23755293E+01 -2.47510585E+01  0.00000000E+00  1.23755293E+01
  1.23755293E+01 -2.47510585E+01  0.00000000E+00  1.23755293E+01  1.23755293E+01
 -2.47510585E+01  0.00000000E+00  1.23755293E+01  1.23755293E+01 -2.47510585E+01
  0.00000000E+00  1.23755293E+01  1.23755293E+01 -2.47510585E+01  0.00000000E+00
  1.23755293E+01  1.23755293E+01 -2.47510585E+01  0.00000000E+00  1.23755293E+01
  1.23755293E+01 -2.47510585E+01  0.00000000E+00  1.23755293E+01  1.23755293E+01
 -2.47510585E+01  0.00000000E+00  1.23755293E+01  1.23755293E+01 -2.47510585E+01
  0.00000000E+00  1.23755293E+01  1.23755293E+01 -2.47510585E+01  0.00000000E+00
  1.23755293E+01  1.23755293E+01 -2.47510585E+01  0.00000000E+00  1.23755293E+01
  1.23755293E+01 -2.47510585E+01  0.00000000E+00  1.23755293E+01  1.23755293E+01
 -2.47510585E+01  0.00000000E+00  1.23755293E+01  1.23755293E+01 -2.47510585E+01
  0.00000000E+00  1.23755293E+01  1.23755293E+01 -2.47510585E+01  0.00000000E+00
  1.23755293E+01  1.23755293E+01 -2.47510585E+01  0.00000000E+00  1.23755293E+01
  1.23755293E+01 -2.47510585E+01  0.00000000E+00  1.23755293E+01  1.23755293E+01
 -2.47510585E+01  0.00000000E+00  1.23755293E+01  1.23755293E+01 -2.47510585E+01
  0.00000000E+00  1.23755293E+01  1.23755293E+01 -2.47510585E+01  0.00000000E+00
  1.23755293E+01  1.23755293E+01 -2.47510585E+01  0.00000000E+00  1.23755293E+01
  1.23755293E+01 -2.47510585E+01  0.00000000E+00  1.23755293E+01  1.23755293E+01
 -2.47510585E+01  0.00000000E+00  1.23755293E+01  1.23755293E+01 -2.47510585E+01
  0.00000000E+00  1.23755293E+01  1.23755293E+01 -2.47510585E+01  0.00000000E+00
  1.23755293E+01  1.23755293E+01 -2.47510585E+01  0.00000000E+00  1.23755293E+01
  1.23755293E+01 -2.47510585E+01  0.00000000E+00  1.23755293E+01  1.23755293E+01
 -2.47510585E+01  0.00000000E+00  1.23755293E+01  1.23755293E+01 -2.47510585E+01
  0.00000000E+00  1.23755293E+01  1.23755293E+01 -2.47510585E+01  0.00000000E+00
  1.23755293E+01  1.23755293E+01 -2.47510585E+01  0.00000000E+00  1.23755293E+01
  1.23755293E+01 -2.47510585E+01  0.00000000E+00  1.23755293E+01  1.23755293E+01
 -2.47510585E+01  0.00000000E+00  1.23755293E+01  1.23755293E+01 -2.47510585E+01
  0.00000000E+00  1.23755293E+01  1.23755293E+01 -2.47510585E+01  0.00000000E+00
  1.23755293E+01  1.23755293E+01 -2.47510585E+01  0.00000000E+00  1.23755293E+01
  1.23755293E+01 -2.47510585E+01  0.00000000E+00  1.23755293E+01  1.23755293E+01
 -2.47510585E+01  0.00000000E+00  1.23755293E+01  1.23755293E+01 -2.47510585E+01
  0.00000000E+00  1.23755293E+01  1.23755293E+01 -2.47510585E+01  0.00000000E+00
  1.23755293E+01  1.23755293E+01 -2.47510585E+01  0.00000000E+00  1.23755293E+01
  1.23755293E+01 -2.47510585E+01  0.00000000E+00  1.23755293E+01  1.23755293E+01
 -2.47510585E+01  0.00000000E+00  1.23755293E+01  1.23755293E+01 -2.47510585E+01
  0.00000000E+00  1.23755293E+01  1.23755293E+01 -2.47510585E+01  0.00000000E+00
  1.23755293E+01  1.23755293E+01 -2.47510585E+01  0.00000000E+00  1.23755293E+01
  1.23755293E+01 -2.47510585E+01  0.00000000E+00  1.23755293E+01  1.23755293E+01
 -2.47510585E+01  0.00000000E+00  1.23755293E+01  1.23755293E+01 -2.47510585E+01
  0.00000000E+00  1.23755293E+01  1.23755293E+01 -2.47510585E+01  0.00000000E+00
  1.23755293E+01  1.23755293E+01 -2.47510585E+01  0.00000000E+00  1.23755293E+01
  1.23755293E+01 -2.47510585E+01  0.00000000E+00  1.23755293E+01  1.23755293E+01
 -2.47510585E+01  0.00000000E+00  1.23755293E+01  1.23755293E+01 -2.47510585E+01
  0.00000000E+00  1.23755293E+01  1.23755293E+01 -2.47510585E+01  0.00000000E+00
  1.23755293E+01  1.23755293E+01 -2.47510585E+01  0.00000000E+00  1.23755293E+01
  1.23755293E+01 -2.47510585E+01  0.00000000E+00  1.23755293E+01  1.23755293E+01
 -2.47510585E+01  0.00000000E+00  1.23755293E+01  1.23755293E+01 -2.47510585E+01
  0.00000000E+00  1.23755293E+01  1.23755293E+01 -2.47510585E+01  0.00000000E+00
  1.23755293E+01  1.23755293E+01 -2.47510585E+01  0.00000000E+00  1.23755293E+01
  1.23755293E+01 -2.47510585E+01  0.00000000E+00  1.23755293E+01  1.23755293E+01
 -2.47510585E+01  0.00000000E+00  1.23755293E+01  1.23755293E+01 -2.47510585E+01
  0.00000000E+00  1.23755293E+01  1.23755293E+01 -2.47510585E+01  0.00000000E+00
  1.23755293E+01  1.23755293E+01 -2.47510585E+01  0.00000000E+00  1.23755293E+01
  1.23755293E+01 -2.47510585E+01  0.00000000E+00  1.23755293E+01  1.23755293E+01
 -2.47510585E+01  0.00000000E+00  1.23755293E+01  1.23755293E+01 -2.47510585E+01
  0.00000000E+00  1.23755293E+01  1.23755293E+01 -2.47510585E+01  0.00000000E+00
  1.23755293E+01  1.23755293E+01 -2.47510585E+01  0.00000000E+00  1.23755293E+01
  1.23755293E+01 -2.47510585E+01  0.00000000E+00  1.23755293E+01  1.23755293E+01
 -2.47510585E+01  0.00000000E+00  1.23755293E+01  1.23755293E+01 -2.47510585E+01
  0.00000000E+00  1.23755293E+01  1.23755293E+01 -2.47510585E+01  0.00000000E+00
  1.23755293E+01  1.23755293E+01 -2.47510585E+01  0.00000000E+00  1.23755293E+01
  1.23755293E+01 -2.47510585E+01  0.00000000E+00  1.23755293E+01  1.23755293E+01
 -2.47510585E+01  0.00000000E+00  1.23755293E+01  1.23755293E+01 -2.47510585E+01
  0.00000000E+00  1.23755293E+01  1.23755293E+01 -2.47510585E+01  0.00000000E+00
  1.23755293E+01  1.23755293E+01 -2.47510585E+01  0.00000000E+00  1.23755293E+01
  1.23755293E+01 -2.47510585E+01  0.00000000E+00  1.23755293E+01  1.23755293E+01
 -2.47510585E+01  0.00000000E+00  1.23755293E+01  1.23755293E+01 -2.47510585E+01
  0.00000000E+00  1.23755293E+01  1.23755293E+01 -2.47510585E+01  0.00000000E+00
  1.23755293E+01  1.23755293E+01 -2.47510585E+01  0.00000000E+00  1.23755293E+01
  1.23755293E+01 -2.47510585E+01  0.00000000E+00  1.23755293E+01  1.23755293E+01
 -2.47510585E+01  0.00000000E+00  1.23755293E+01  1.23755293E+01 -2.47510585E+01
  0.00000000E+00  1.23755293E+01  1.23755293E+01 -2.47510585E+01  0.00000000E+00
  1.23755293E+01  1.23755293E+01 -2.47510585E+01  0.00000000E+00  1.23755293E+01
  1.23755293E+01 -2.47510585E+01  0.00000000E+00  1.23755293E+01  1.23755293E+01
 -2.47510585E+01  0.00000000E+00  1.23755293E+01  1.23755293E+01 -2.47510585E+01
  0.00000000E+00  1.23755293E+01  1.23755293E+01 -2.47510585E+01  0.00000000E+00
  1.23755293E+01  1.23755293E+01 -2.47510585E+01  0.00000000E+00  1.23755293E+01
  1.23755293E+01 -2.47510585E+01  0.00000000E+00  1.23755293E+01  1.23755293E+01
 -2.47510585E+01  0.00000000E+00  1.23755293E+01  1.23755293E+01 -2.47510585E+01
  0.00000000E+00  1.23755293E+01  1.23755293E+01 -2.47510585E+01  0.00000000E+00
  1.23755293E+01  1.23755293E+01 -2.47510585E+01  0.00000000E+00  1.23755293E+01
  1.23755293E+01 -2.47510585E+01  0.00000000E+00  1.23755293E+01  1.23755293E+01
 -2.47510585E+01  0.00000000E+00  1.23755293E+01  1.23755293E+01 -2.47510585E+01
  0.00000000E+00  1.23755293E+01  1.23755293E+01 -2.47510585E+01  0.00000000E+00
  1.23755293E+01  1.23755293E+01 -2.47510585E+01  0.00000000E+00  1.23755293E+01
  1.23755293E+01 -2.47510585E+01  0.00000000E+00  1.23755293E+01  1.23755293E+01
 -2.47510585E+01  0.00000000E+00  1.23755293E+01  1.23755293E+01 -2.47510585E+01
  0.00000000E+00  1.23755293E+01  1.23755293E+01 -2.47510585E+01  0.00000000E+00
  1.23755293E+01  1.23755293E+01 -2.47510585E+01  0.00000000E+00  1.23755293E+01
  1.23755293E+01 -2.47510585E+01  0.00000000E+00  1.23755293E+01  1.23755293E+01
 -2.47510585E+01  0.00000000E+00  1.23755293E+01  1.23755293E+01 -2.47510585E+01
  0.00000000E+00  1.23755293E+01  1.23755293E+01 -2.47510585E+01  0.00000000E+00
  1.23755293E+01  1.23755293E+01 -2.47510585E+01  0.00000000E+00  1.23755293E+01
  1.23755293E+01 -2.47510585E+01  0.00000000E+00  1.23755293E+01  1.23755293E+01
 -2.47510585E+01  0.00000000E+00  1.23755293E+01  1.23755293E+01 -2.47510585E+01
  0.00000000E+00  1.23755293E+01  1.23755293E+01 -2.47510585E+01  0.00000000E+00
  1.23755293E+01  1.23755293E+01 -2.47510585E+01  0.00000000E+00  1.23755293E+01
  1.23755293E+01 -2.47510585E+01  0.00000000E+00  1.23755293E+01  1.23755293E+01
 -2.47510585E+01  0.00000000E+00  1.23755293E+01  1.23755293E+01 -2.47510585E+01
  0.00000000E+00  1.23755293E+01  1.23755293E+01 -2.47510585E+01  0.00000000E+00
  1.23755293E+01  1.23755293E+01 -2.47510585E+01  0.00000000E+00  1.23755293E+01
  1.23755293E+01 -2.47510585E+01  0.00000000E+00  1.23755293E+01  1.23755293E+01
 -2.47510585E+01  0.00000000E+00  1.23755293E+01  1.23755293E+01 -2.47510585E+01
  0.00000000E+00  1.23755293E+01  1.23755293E+01 -2.47510585E+01  0.00000000E+00
  1.23755293E+01  1.23755293E+01 -2.47510585E+01  0.00000000E+00  1.23755293E+01
  1.23755293E+01 -2.47510585E+01  0.00000000E+00  1.23755293E+01  1.23755293E+01
 -2.47510585E+01  0.00000000E+00  1.23755293E+01  1.23755293E+01 -2.47510585E+01
  0.00000000E+00  1.23755293E+01  1.23755293E+01 -2.47510585E+01  0.00000000E+00
  1.23755293E+01  1.23755293E+01 -2.47510585E+01  0.00000000E+00  1.23755293E+01
  1.23755293E+01 -2.47510585E+01  0.00000000E+00  1.23755293E+01  1.23755293E+01
 -2.47510585E+01  0.00000000E+00  1.23755293E+01  1.23755293E+01 -2.47510585E+01
  0.00000000E+00  1.23755293E+01  1.23755293E+01 -2.47510585E+01  0.00000000E+00
  1.23755293E+01  1.23755293E+01 -2.47510585E+01  0.00000000E+00  1.23755293E+01
  1.23755293E+01 -2.47510585E+01  0.00000000E+00  1.23755293E+01  1.23755293E+01
 -2.47510585E+01  0.00000000E+00  1.23755293E+01  1.23755293E+01 -2.47510585E+01
  0.00000000E+00  1.23755293E+01  1.23755293E+01 -2.47510585E+01  0.00000000E+00
  1.23755293E+01  1.23755293E+01 -2.47510585E+01  0.00000000E+00  1.23755293E+01
  1.23755293E+01 -2.47510585E+01  0.00000000E+00  1.23755293E+01  1.23755293E+01
 -2.47510585E+01  0.00000000E+00  1.23755293E+01  1.23755293E+01 -2.47510585E+01
  0.00000000E+00  1.23755293E+01  1.23755293E+01 -2.47510585E+01  0.00000000E+00
  1.23755293E+01  1.23755293E+01 -2.47510585E+01  0.00000000E+00  1.23755293E+01
  1.23755293E+01 -2.47510585E+01  0.00000000E+00  1.23755293E+01  1.23755293E+01
 -2.47510585E+01  0.00000000E+00  1.23755293E+01  1.23755293E+01 -2.47510585E+01
  0.00000000E+00  1.23755293E+01  1.23755293E+01 -2.47510585E+01  0.00000000E+00
  1.23755293E+01  1.23755293E+01 -2.47510585E+01  0.00000000E+00  1.23755293E+01
  1.23755293E+01 -2.47510585E+01  0.00000000E+00  1.23755293E+01  1.23755293E+01
 -2.47510585E+01  0.00000000E+00  1.23755293E+01  1.23755293E+01 -2.47510585E+01
  0.00000000E+00  1.23755293E+01  1.23755293E+01 -2.47510585E+01  0.00000000E+00
  1.23755293E+01  1.23755293E+01 -2.47510585E+01  0.00000000E+00  1.23755293E+01
  1.23755293E+01 -2.47510585E+01  0.00000000E+00  1.23755293E+01  1.23755293E+01
 -2.47510585E+01  0.00000000E+00  1.23755293E+01  1.23755293E+01 -2.47510585E+01
  0.00000000E+00  1.23755293E+01  1.23755293E+01 -2.47510585E+01  0.00000000E+00
  1.23755293E+01  1.23755293E+01 -2.47510585E+01  0.00000000E+00  1.23755293E+01
  1.23755293E+01 -2.47510585E+01  0.00000000E+00  1.23755293E+01  1.23755293E+01
 -2.47510585E+01  0.00000000E+00  1.23755293E+01  1.23755293E+01 -2.47510585E+01
  0.00000000E+00  1.23755293E+01  1.23755293E+01 -2.47510585E+01  0.00000000E+00
  1.23755293E+01  1.23755293E+01 -2.47510585E+01  0.00000000E+00  1.23755293E+01
  1.23755293E+01 -2.47510585E+01  0.00000000E+00  1.23755293E+01  1.23755293E+01
 -2.47510585E+01  0.00000000E+00  1.23755293E+01  1.23755293E+01 -2.47510585E+01
  0.00000000E+00  1.23755293E+01  1.23755293E+01 -2.47510585E+01  0.00000000E+00
  1.23755293E+01  1.23755293E+01 -2.47510585E+01  0.00000000E+00  1.23755293E+01
  1.23755293E+01 -2.47510585E+01  0.00000000E+00  1.23755293E+01  1.23755293E+01
 -2.47510585E+01  0.00000000E+00  1.23755293E+01  1.23755293E+01 -2.47510585E+01
  0.00000000E+00  1.23755293E+01  1.23755293E+01 -2.47510585E+01  0.00000000E+00
  1.23755293E+01  1.23755293E+01 -2.47510585E+01  0.00000000E+00  1.23755293E+01
  1.23755293E+01 -2.47510585E+01  0.00000000E+00  1.23755293E+01  1.23755293E+01
 -2.47510585E+01  0.00000000E+00  1.23755293E+01  1.23755293E+01 -2.47510585E+01
  0.00000000E+00  1.23755293E+01  1.23755293E+01 -2.47510585E+01  0.00000000E+00
  1.23755293E+01  1.23755293E+01 -2.47510585E+01  0.00000000E+00  1.23755293E+01
  1.23755293E+01 -2.47510585E+01  0.00000000E+00  1.23755293E+01  1.23755293E+01
 -2.47510585E+01  0.00000000E+00  1.23755293E+01  1.23755293E+01 -2.47510585E+01
  0.00000000E+00  1.23755293E+01  1.23755293E+01 -2.47510585E+01  0.00000000E+00
  1.23755293E+01  1.23755293E+01 -2.47510585E+01  0.00000000E+00  1.23755293E+01
  1.23755293E+01 -2.47510585E+01  0.00000000E+00  1.23755293E+01  1.23755293E+01
 -2.47510585E+01  0.00000000E+00  1.23755293E+01  1.23755293E+01 -2.47510585E+01
  0.00000000E+00  1.23755293E+01  1.23755293E+01 -2.47510585E+01  0.00000000E+00
  1.23755293E+01  1.23755293E+01 -2.47510585E+01  0.00000000E+00  1.23755293E+01
  1.23755293E+01 -2.47510585E+01  0.00000000E+00  1.23755293E+01  1.23755293E+01
 -2.47510585E+01  0.00000000E+00  1.23755293E+01  1.23755293E+01 -2.47510585E+01
  0.00000000E+00  1.23755293E+01  1.23755293E+01 -2.47510585E+01  0.00000000E+00
  1.23755293E+01  1.23755293E+01 -2.47510585E+01  0.00000000E+00  1.23755293E+01
  1.23755293E+01 -2.47510585E+01  0.00000000E+00  1.23755293E+01  1.23755293E+01
 -2.47510585E+01  0.00000000E+00  1.23755293E+01  1.23755293E+01 -2.47510585E+01
  0.00000000E+00  1.23755293E+01  1.23755293E+01 -2.47510585E+01  0.00000000E+00
  1.23755293E+01  1.23755293E+01 -2.47510585E+01  0.00000000E+00  1.23755293E+01
  1.23755293E+01 -2.47510585E+01  0.00000000E+00  1.23755293E+01  1.23755293E+01
 -2.47510585E+01  0.00000000E+00  1.23755293E+01  1.23755293E+01 -2.47510585E+01
  0.00000000E+00  1.23755293E+01  1.23755293E+01 -2.47510585E+01  0.00000000E+00
  1.23755293E+01  1.23755293E+01 -2.47510585E+01  0.00000000E+00  1.23755293E+01
  1.23755293E+01 -2.47510585E+01  0.00000000E+00  1.23755293E+01  1.23755293E+01
 -2.47510585E+01  0.00000000E+00  1.23755293E+01  1.23755293E+01 -2.47510585E+01
  0.00000000E+00  1.23755293E+01  1.23755293E+01 -2.47510585E+01  0.00000000E+00
  1.23755293E+01  1.23755293E+01 -2.47510585E+01  0.00000000E+00  1.23755293E+01
  1.23755293E+01 -2.47510585E+01  0.00000000E+00  1.23755293E+01  1.23755293E+01
 -2.47510585E+01  0.00000000E+00  1.23755293E+01  1.23755293E+01 -2.47510585E+01
  0.00000000E+00  1.23755293E+01  1.23755293E+01 -2.47510585E+01  0.00000000E+00
  1.23755293E+01  1.23755293E+01 -2.47510585E+01  0.00000000E+00  1.23755293E+01
  1.23755293E+01 -2.47510585E+01  0.00000000E+00  1.23755293E+01  1.23755293E+01
 -2.47510585E+01  0.00000000E+00  1.23755293E+01  1.23755293E+01 -2.47510585E+01
  0.00000000E+00  1.23755293E+01  1.23755293E+01 -2.47510585E+01  0.00000000E+00
  1.23755293E+01  1.23755293E+01 -2.47510585E+01  0.00000000E+00  1.23755293E+01
  1.23755293E+01 -2.47510585E+01  0.00000000E+00  1.23755293E+01  1.23755293E+01
 -2.47510585E+01  0.00000000E+00  1.23755293E+01  1.23755293E+01 -2.47510585E+01
  0.00000000E+00  1.23755293E+01  1.23755293E+01 -2.47510585E+01  0.00000000E+00
  1.23755293E+01  1.23755293E+01 -2.47510585E+01  0.00000000E+00  1.23755293E+01
  1.23755293E+01 -2.47510585E+01  0.00000000E+00  1.23755293E+01  1.23755293E+01
 -2.47510585E+01  0.00000000E+00  1.23755293E+01  1.23755293E+01 -2.47510585E+01
  0.00000000E+00  1.23755293E+01  1.23755293E+01 -2.47510585E+01  0.00000000E+00
  1.23755293E+01  1.23755293E+01 -2.47510585E+01  0.00000000E+00  1.23755293E+01
  1.23755293E+01 -2.47510585E+01  0.00000000E+00  1.23755293E+01  1.23755293E+01
 -2.47510585E+01  0.00000000E+00  1.23755293E+01  1.23755293E+01 -2.47510585E+01
  0.00000000E+00  1.23755293E+01  1.23755293E+01 -2.47510585E+01  0.00000000E+00
  1.23755293E+01  1.23755293E+01 -2.47510585E+01  0.00000000E+00  1.23755293E+01
  1.23755293E+01 -2.47510585E+01  0.00000000E+00  1.23755293E+01  1.23755293E+01
 -2.47510585E+01  0.00000000E+00  1.23755293E+01  1.23755293E+01 -2.47510585E+01
  0.00000000E+00  1.23755293E+01  1.23755293E+01 -2.47510585E+01  0.00000000E+00
  1.23755293E+01  1.23755293E+01 -2.47510585E+01  0.00000000E+00  1.23755293E+01
  1.23755293E+01 -2.47510585E+01  0.00000000E+00  1.23755293E+01  1.23755293E+01
 -2.47510585E+01  0.00000000E+00  1.23755293E+01  1.23755293E+01 -2.47510585E+01
  0.00000000E+00  1.23755293E+01  1.23755293E+01 -2.47510585E+01  0.00000000E+00
  1.23755293E+01  1.23755293E+01 -2.47510585E+01  0.00000000E+00  1.23755293E+01
  1.23755293E+01 -2.47510585E+01  0.00000000E+00  1.23755293E+01  1.23755293E+01
 -2.47510585E+01  0.00000000E+00  1.23755293E+01  1.23755293E+01 -2.47510585E+01
  0.00000000E+00  1.23755293E+01  1.23755293E+01 -2.47510585E+01  0.00000000E+00
  1.23755293E+01  1.23755293E+01 -2.47510585E+01  0.00000000E+00  1.23755293E+01
  1.23755293E+01 -2.47510585E+01  0.00000000E+00  1.23755293E+01  1.23755293E+01
 -2.47510585E+01  0.00000000E+00  1.23755293E+01  1.23755293E+01 -2.47510585E+01
  0.00000000E+00  1.23755293E+01  1.23755293E+01 -2.47510585E+01  0.00000000E+00
  1.23755293E+01  1.23755293E+01 -2.47510585E+01  0.00000000E+00  1.23755293E+01
  1.23755293E+01 -2.47510585E+01  0.00000000E+00  1.23755293E+01  1.23755293E+01
 -2.47510585E+01  0.00000000E+00  1.23755293E+01  1.23755293E+01 -2.47510585E+01
  0.00000000E+00  1.23755293E+01  1.23755293E+01 -2.47510585E+01  0.00000000E+00
  1.23755293E+01  1.23755293E+01 -2.47510585E+01  0.00000000E+00  1.23755293E+01
  1.23755293E+01 -2.47510585E+01  0.00000000E+00  1.23755293E+01  1.23755293E+01
 -2.47510585E+01  0.00000000E+00  1.23755293E+01  1.23755293E+01 -2.47510585E+01
  0.00000000E+00  1.23755293E+01  1.23755293E+01 -2.47510585E+01  0.00000000E+00
  1.23755293E+01  1.23755293E+01 -2.47510585E+01  0.00000000E+00  1.23755293E+01
  1.23755293E+01 -2.47510585E+01  0.00000000E+00  1.23755293E+01  1.23755293E+01
 -2.47510585E+01  0.00000000E+00  1.23755293E+01  1.23755293E+01 -2.47510585E+01
  0.00000000E+00  1.23755293E+01  1.23755293E+01 -2.47510585E+01  0.00000000E+00
  1.23755293E+01  1.23755293E+01 -2.47510585E+01  0.00000000E+00  1.23755293E+01
  1.23755293E+01 -2.47510585E+01  0.00000000E+00  1.23755293E+01  1.23755293E+01
 -2.47510585E+01  0.00000000E+00  1.23755293E+01  1.23755293E+01 -2.47510585E+01
  0.00000000E+00  1.23755293E+01  1.23755293E+01 -2.47510585E+01  0.00000000E+00
  1.23755293E+01  1.23755293E+01 -2.47510585E+01  0.00000000E+00  1.23755293E+01
  1.23755293E+01 -2.47510585E+01  0.00000000E+00  1.23755293E+01  1.23755293E+01
 -2.47510585E+01  0.00000000E+00  1.23755293E+01  1.23755293E+01 -2.47510585E+01
  0.00000000E+00  1.23755293E+01  1.23755293E+01 -2.47510585E+01  0.00000000E+00
  1.23755293E+01  1.23755293E+01 -2.47510585E+01  0.00000000E+00  1.23755293E+01
  1.23755293E+01 -2.47510585E+01  0.00000000E+00  1.23755293E+01  1.23755293E+01
 -2.47510585E+01  0.00000000E+00  1.23755293E+01  1.23755293E+01 -2.47510585E+01
  0.00000000E+00  1.23755293E+01  1.23755293E+01 -2.47510585E+01  0.00000000E+00
  1.23755293E+01  1.23755293E+01 -2.47510585E+01  0.00000000E+00  1.23755293E+01
  1.23755293E+01 -2.47510585E+01  0.00000000E+00  1.23755293E+01  1.23755293E+01
 -2.47510585E+01  0.00000000E+00  1.23755293E+01  1.23755293E+01 -2.47510585E+01
  0.00000000E+00  1.23755293E+01  1.23755293E+01 -2.47510585E+01  0.00000000E+00
  1.23755293E+01  1.23755293E+01 -2.47510585E+01  0.00000000E+00  1.23755293E+01
  1.23755293E+01 -2.47510585E+01  0.00000000E+00  1.23755293E+01  1.23755293E+01
 -2.47510585E+01  0.00000000E+00  1.23755293E+01  1.23755293E+01 -2.47510585E+01
  0.00000000E+00  1.23755293E+01  1.23755293E+01 -2.47510585E+01  0.00000000E+00
  1.23755293E+01  1.23755293E+01 -2.47510585E+01  0.00000000E+00  1.23755293E+01
  1.23755293E+01 -2.47510585E+01  0.00000000E+00  1.23755293E+01  1.23755293E+01
 -2.47510585E+01  0.00000000E+00  1.23755293E+01  1.23755293E+01 -2.47510585E+01
  0.00000000E+00  1.23755293E+01  1.23755293E+01 -2.47510585E+01  0.00000000E+00
  1.23755293E+01  1.23755293E+01 -2.47510585E+01  0.00000000E+00  1.23755293E+01
  1.23755293E+01 -2.47510585E+01  0.00000000E+00  1.23755293E+01  1.23755293E+01
 -2.47510585E+01  0.00000000E+00  1.23755293E+01  1.23755293E+01 -2.47510585E+01
  0.00000000E+00  1.23755293E+01  1.23755293E+01 -2.47510585E+01  0.00000000E+00
  1.23755293E+01  1.23755293E+01 -2.47510585E+01  0.00000000E+00  1.23755293E+01
  1.23755293E+01 -2.47510585E+01  0.00000000E+00  1.23755293E+01  1.23755293E+01
 -2.47510585E+01  0.00000000E+00  1.23755293E+01  1.23755293E+01 -2.47510585E+01
  0.00000000E+00  1.23755293E+01  1.23755293E+01 -2.47510585E+01  0.00000000E+00
  1.23755293E+01  1.23755293E+01 -2.47510585E+01  0.00000000E+00  1.23755293E+01
  1.23755293E+01 -2.47510585E+01  0.00000000E+00  1.23755293E+01  1.23755293E+01
 -2.47510585E+01  0.00000000E+00  1.23755293E+01  1.23755293E+01 -2.47510585E+01
  0.00000000E+00  1.23755293E+01  1.23755293E+01 -2.47510585E+01  0.00000000E+00
  1.23755293E+01  1.23755293E+01 -2.47510585E+01  0.00000000E+00  1.23755293E+01
  1.23755293E+01 -2.47510585E+01  0.00000000E+00  1.23755293E+01  1.23755293E+01
 -2.47510585E+01  0.00000000E+00  1.23755293E+01  1.23755293E+01 -2.47510585E+01
  0.00000000E+00  1.23755293E+01  1.23755293E+01 -2.47510585E+01  0.00000000E+00
  1.23755293E+01  1.23755293E+01 -2.47510585E+01  0.00000000E+00  1.23755293E+01
  1.23755293E+01 -2.47510585E+01  0.00000000E+00  1.23755293E+01  1.23755293E+01
 -2.47510585E+01  0.00000000E+00  1.23755293E+01  1.23755293E+01 -2.47510585E+01
  0.00000000E+00  1.23755293E+01  1.23755293E+01 -2.47510585E+01  0.00000000E+00
  1.23755293E+01  1.23755293E+01 -2.47510585E+01  0.00000000E+00  1.23755293E+01
  1.23755293E+01 -2.47510585E+01  0.00000000E+00  1.23755293E+01  1.23755293E+01
 -2.47510585E+01  0.00000000E+00  1.23755293E+01  1.23755293E+01 -2.47510585E+01
  0.00000000E+00  1.23755293E+01  1.23755293E+01 -2.47510585E+01  0.00000000E+00
  1.23755293E+01  1.23755293E+01 -2.47510585E+01  0.00000000E+00  1.23755293E+01
  1.23755293E+01 -2.47510585E+01  0.00000000E+00  1.23755293E+01  1.23755293E+01
 -2.47510585E+01  0.00000000E+00  1.23755293E+01  1.23755293E+01 -2.47510585E+01
  0.00000000E+00  1.23755293E+01  1.23755293E+01 -2.47510585E+01  0.00000000E+00
  1.23755293E+01  1.23755293E+01 -2.47510585E+01  0.00000000E+00  1.23755293E+01
  1.23755293E+01 -2.47510585E+01  0.00000000E+00  1.23755293E+01  1.23755293E+01
 -2.47510585E+01  0.00000000E+00  1.23755293E+01  1.23755293E+01 -2.47510585E+01
  0.00000000E+00  1.23755293E+01  1.23755293E+01 -2.47510585E+01  0.00000000E+00
  1.23755293E+01  1.23755293E+01 -2.47510585E+01  0.00000000E+00  1.23755293E+01
  1.23755293E+01 -2.47510585E+01  0.00000000E+00  1.23755293E+01  1.23755293E+01
 -2.47510585E+01  0.00000000E+00  1.23755293E+01  1.23755293E+01 -2.47510585E+01
  0.00000000E+00  1.23755293E+01  1.23755293E+01 -2.47510585E+01  0.00000000E+00
  1.23755293E+01  1.23755293E+01 -2.47510585E+01  0.00000000E+00  1.23755293E+01
  1.23755293E+01 -2.47510585E+01  0.00000000E+00  1.23755293E+01  1.23755293E+01
 -2.47510585E+01  0.00000000E+00  1.23755293E+01  1.23755293E+01 -2.47510585E+01
  0.00000000E+00  1.23755293E+01  1.23755293E+01 -2.47510585E+01  0.00000000E+00
  1.23755293E+01  1.23755293E+01 -2.47510585E+01  0.00000000E+00  1.23755293E+01
  1.23755293E+01 -2.47510585E+01  0.00000000E+00  1.23755293E+01  1.23755293E+01
 -2.47510585E+01  0.00000000E+00  1.23755293E+01  1.23755293E+01 -2.47510585E+01
  0.00000000E+00  1.23755293E+01  1.23755293E+01 -2.47510585E+01  0.00000000E+00
  1.23755293E+01  1.23755293E+01 -2.47510585E+01  0.00000000E+00  1.23755293E+01
  1.23755293E+01 -2.47510585E+01  0.00000000E+00  1.23755293E+01  1.23755293E+01
 -2.47510585E+01  0.00000000E+00  1.23755293E+01  1.23755293E+01 -2.47510585E+01
  0.00000000E+00  1.23755293E+01  1.23755293E+01 -2.47510585E+01  0.00000000E+00
  1.23755293E+01  1.23755293E+01 -2.47510585E+01  0.00000000E+00  1.23755293E+01
  1.23755293E+01 -2.47510585E+01  0.00000000E+00  1.23755293E+01  1.23755293E+01
 -2.47510585E+01  0.00000000E+00  1.23755293E+01  1.23755293E+01 -2.47510585E+01
  0.00000000E+00  1.23755293E+01  1.23755293E+01 -2.47510585E+01  0.00000000E+00
  1.23755293E+01  1.23755293E+01 -2.47510585E+01  0.00000000E+00  1.23755293E+01
  1.23755293E+01 -2.47510585E+01  0.00000000E+00  1.23755293E+01  1.23755293E+01
 -2.47510585E+01  0.00000000E+00  1.23755293E+01  1.23755293E+01 -2.47510585E+01
  0.00000000E+00  1.23755293E+01  1.23755293E+01 -2.47510585E+01  0.00000000E+00
  1.23755293E+01  1.23755293E+01 -2.47510585E+01  0.00000000E+00  1.23755293E+01
  1.23755293E+01 -2.47510585E+01  0.00000000E+00  1.23755293E+01  1.23755293E+01
 -2.47510585E+01  0.00000000E+00  1.23755293E+01  1.23755293E+01 -2.47510585E+01
  0.00000000E+00  1.23755293E+01  1.23755293E+01 -2.47510585E+01  0.00000000E+00
  1.23755293E+01  1.23755293E+01 -2.47510585E+01  0.00000000E+00  1.23755293E+01
  1.23755293E+01 -2.47510585E+01  0.00000000E+00  1.23755293E+01  1.23755293E+01
 -2.47510585E+01  0.00000000E+00  1.23755293E+01  1.23755293E+01 -2.47510585E+01
  0.00000000E+00  1.23755293E+01  1.23755293E+01 -2.47510585E+01  0.00000000E+00
  1.23755293E+01  1.23755293E+01 -2.47510585E+01  0.00000000E+00  1.23755293E+01
  1.23755293E+01 -2.47510585E+01  0.00000000E+00  1.23755293E+01  1.23755293E+01
 -2.47510585E+01  0.00000000E+00  1.23755293E+01  1.23755293E+01 -2.47510585E+01
  0.00000000E+00  1.23755293E+01  1.23755293E+01 -2.47510585E+01  0.00000000E+00
  1.23755293E+01  1.23755293E+01 -2.47510585E+01  0.00000000E+00  1.23755293E+01
  1.23755293E+01 -2.47510585E+01  0.00000000E+00  1.23755293E+01  1.23755293E+01
 -2.47510585E+01  0.00000000E+00  1.23755293E+01  1.23755293E+01 -2.47510585E+01
  0.00000000E+00  1.23755293E+01  1.23755293E+01 -2.47510585E+01  0.00000000E+00
  1.23755293E+01  1.23755293E+01 -2.47510585E+01  0.00000000E+00  1.23755293E+01
  1.23755293E+01 -2.47510585E+01  0.00000000E+00  1.23755293E+01  1.23755293E+01
 -2.47510585E+01  0.00000000E+00  1.23755293E+01  1.23755293E+01 -2.47510585E+01
  0.00000000E+00  1.23755293E+01  1.23755293E+01 -2.47510585E+01  0.00000000E+00
  1.23755293E+01  1.23755293E+01 -2.47510585E+01  0.00000000E+00  1.23755293E+01
  1.23755293E+01 -2.47510585E+01  0.00000000E+00  1.23755293E+01  1.23755293E+01
 -2.47510585E+01  0.00000000E+00  1.23755293E+01  1.23755293E+01 -2.47510585E+01
  0.00000000E+00  1.23755293E+01  1.23755293E+01 -2.47510585E+01  0.00000000E+00
  1.23755293E+01  1.23755293E+01 -2.47510585E+01  0.00000000E+00  1.23755293E+01
  1.23755293E+01 -2.47510585E+01  0.00000000E+00  1.23755293E+01  1.23755293E+01
 -2.47510585E+01  0.00000000E+00  1.23755293E+01  1.23755293E+01 -2.47510585E+01
  0.00000000E+00  1.23755293E+01  1.23755293E+01 -2.47510585E+01  0.00000000E+00
  1.23755293E+01  1.23755293E+01 -2.47510585E+01  0.00000000E+00  1.23755293E+01
  1.23755293E+01 -2.47510585E+01  0.00000000E+00  1.23755293E+01  1.23755293E+01
 -2.47510585E+01  0.00000000E+00  1.23755293E+01  1.23755293E+01 -2.47510585E+01
  0.00000000E+00  1.23755293E+01  1.23755293E+01 -2.47510585E+01  0.00000000E+00
  1.23755293E+01  1.23755293E+01 -2.47510585E+01  0.00000000E+00  1.23755293E+01
  1.23755293E+01 -2.47510585E+01  0.00000000E+00  1.23755293E+01  1.23755293E+01
 -2.47510585E+01  0.00000000E+00  1.23755293E+01  1.23755293E+01 -2.47510585E+01
  0.00000000E+00  1.23755293E+01  1.23755293E+01 -2.47510585E+01  0.00000000E+00
  1.23755293E+01  1.23755293E+01 -2.47510585E+01  0.00000000E+00  1.23755293E+01
  1.23755293E+01 -2.47510585E+01  0.00000000E+00  1.23755293E+01  1.23755293E+01
 -2.47510585E+01  0.00000000E+00  1.23755293E+01  1.23755293E+01 -2.47510585E+01
  0.00000000E+00  1.23755293E+01  1.23755293E+01 -2.47510585E+01  0.00000000E+00
  1.23755293E+01  1.23755293E+01 -2.47510585E+01  0.00000000E+00  1.23755293E+01
  1.23755293E+01 -2.47510585E+01  0.00000000E+00  1.23755293E+01  1.23755293E+01
 -2.47510585E+01  0.00000000E+00  1.23755293E+01  1.23755293E+01 -2.47510585E+01
  0.00000000E+00  1.23755293E+01  1.23755293E+01 -2.47510585E+01  0.00000000E+00
  1.23755293E+01  1.23755293E+01 -2.47510585E+01  0.00000000E+00  1.23755293E+01
  1.23755293E+01 -2.47510585E+01  0.00000000E+00  1.23755293E+01  1.23755293E+01
 -2.47510585E+01  0.00000000E+00  1.23755293E+01  1.23755293E+01 -2.47510585E+01
  0.00000000E+00  1.23755293E+01  1.23755293E+01 -2.47510585E+01  0.00000000E+00
  1.23755293E+01  1.23755293E+01 -2.47510585E+01  0.00000000E+00  1.23755293E+01
  1.23755293E+01 -2.47510585E+01  0.00000000E+00  1.23755293E+01  1.23755293E+01
 -2.47510585E+01  0.00000000E+00  1.23755293E+01  1.23755293E+01 -2.47510585E+01
  0.00000000E+00  1.23755293E+01  1.23755293E+01 -2.47510585E+01  0.00000000E+00
  1.23755293E+01  1.23755293E+01 -2.47510585E+01  0.00000000E+00  1.23755293E+01
  1.23755293E+01 -2.47510585E+01  0.00000000E+00  1.23755293E+01  1.23755293E+01
 -2.47510585E+01  0.00000000E+00  1.23755293E+01  1.23755293E+01 -2.47510585E+01
  0.00000000E+00  1.23755293E+01  1.23755293E+01 -2.47510585E+01  0.00000000E+00
  1.23755293E+01  1.23755293E+01 -2.47510585E+01  0.00000000E+00  1.23755293E+01
  1.23755293E+01 -2.47510585E+01  0.00000000E+00  1.23755293E+01  1.23755293E+01
 -2.47510585E+01  0.00000000E+00  1.23755293E+01  1.23755293E+01 -2.47510585E+01
  0.00000000E+00  1.23755293E+01  1.23755293E+01 -2.47510585E+01  0.00000000E+00
  1.23755293E+01  1.23755293E+01 -2.47510585E+01  0.00000000E+00  1.23755293E+01
  1.23755293E+01 -2.47510585E+01  0.00000000E+00  1.23755293E+01  1.23755293E+01
 -2.47510585E+01  0.00000000E+00  1.23755293E+01  1.23755293E+01 -2.47510585E+01
  0.00000000E+00  1.23755293E+01  1.23755293E+01 -2.47510585E+01  0.00000000E+00
  1.23755293E+01  1.23755293E+01 -2.47510585E+01  0.00000000E+00  1.23755293E+01
  1.23755293E+01 -2.47510585E+01  0.00000000E+00  1.23755293E+01  1.23755293E+01
 -2.47510585E+01  0.00000000E+00  1.23755293E+01  1.23755293E+01 -2.47510585E+01
  0.00000000E+00  1.23755293E+01  1.23755293E+01 -2.47510585E+01  0.00000000E+00
  1.23755293E+01  1.23755293E+01 -2.47510585E+01  0.00000000E+00  1.23755293E+01
  1.23755293E+01 -2.47510585E+01  0.00000000E+00  1.23755293E+01  1.23755293E+01
 -2.47510585E+01  0.00000000E+00  1.23755293E+01  1.23755293E+01 -2.47510585E+01
  0.00000000E+00  1.23755293E+01  1.23755293E+01 -2.47510585E+01  0.00000000E+00
  1.23755293E+01  1.23755293E+01 -2.47510585E+01  0.00000000E+00  1.23755293E+01
  1.23755293E+01 -2.47510585E+01  0.00000000E+00  1.23755293E+01  1.23755293E+01
 -2.47510585E+01  0.00000000E+00  1.23755293E+01  1.23755293E+01 -2.47510585E+01
  0.00000000E+00  1.23755293E+01  1.23755293E+01 -2.47510585E+01  0.00000000E+00
  1.23755293E+01  1.23755293E+01 -2.47510585E+01  0.00000000E+00  1.23755293E+01
  1.23755293E+01 -2.47510585E+01  0.00000000E+00  1.23755293E+01  1.23755293E+01
 -2.47510585E+01  0.00000000E+00  1.23755293E+01  1.23755293E+01 -2.47510585E+01
  0.00000000E+00  1.23755293E+01  1.23755293E+01 -2.47510585E+01  0.00000000E+00
  1.23755293E+01  1.23755293E+01 -2.47510585E+01  0.00000000E+00  1.23755293E+01
  1.23755293E+01 -2.47510585E+01  0.00000000E+00  1.23755293E+01  1.23755293E+01
 -2.47510585E+01  0.00000000E+00  1.23755293E+01  1.23755293E+01 -2.47510585E+01
  0.00000000E+00  1.23755293E+01  1.23755293E+01 -2.47510585E+01  0.00000000E+00
  1.23755293E+01  1.23755293E+01 -2.47510585E+01  0.00000000E+00  1.23755293E+01
  1.23755293E+01 -2.47510585E+01  0.00000000E+00  1.23755293E+01  1.23755293E+01
 -2.47510585E+01  0.00000000E+00  1.23755293E+01  1.23755293E+01 -2.47510585E+01
  0.00000000E+00  1.23755293E+01  1.23755293E+01 -2.47510585E+01  0.00000000E+00
  1.23755293E+01  1.23755293E+01 -2.47510585E+01  0.00000000E+00  1.23755293E+01
  1.23755293E+01 -2.47510585E+01  0.00000000E+00  1.23755293E+01  1.23755293E+01
 -2.47510585E+01  0.00000000E+00  1.23755293E+01  1.23755293E+01 -2.47510585E+01
  0.00000000E+00  1.23755293E+01  1.23755293E+01 -2.47510585E+01  0.00000000E+00
  1.23755293E+01  1.23755293E+01 -2.47510585E+01  0.00000000E+00  1.23755293E+01
  1.23755293E+01 -2.47510585E+01  0.00000000E+00  1.23755293E+01  1.23755293E+01
 -2.47510585E+01  0.00000000E+00  1.23755293E+01  1.23755293E+01 -2.47510585E+01
  0.00000000E+00  1.23755293E+01  1.23755293E+01 -2.47510585E+01  0.00000000E+00
  1.23755293E+01  1.23755293E+01 -2.47510585E+01  0.00000000E+00  1.23755293E+01
  1.23755293E+01 -2.47510585E+01  0.00000000E+00  1.23755293E+01  1.23755293E+01
 -2.47510585E+01  0.00000000E+00  1.23755293E+01  1.23755293E+01 -2.47510585E+01
  0.00000000E+00  1.23755293E+01  1.23755293E+01 -2.47510585E+01  0.00000000E+00
  1.23755293E+01  1.23755293E+01 -2.47510585E+01  0.00000000E+00  1.23755293E+01
  1.23755293E+01 -2.47510585E+01  0.00000000E+00  1.23755293E+01  1.23755293E+01
 -2.47510585E+01  0.00000000E+00  1.23755293E+01  1.23755293E+01 -2.47510585E+01
  0.00000000E+00  1.23755293E+01  1.23755293E+01 -2.47510585E+01  0.00000000E+00
  1.23755293E+01  1.23755293E+01 -2.47510585E+01  0.00000000E+00  1.23755293E+01
  1.23755293E+01 -2.47510585E+01  0.00000000E+00  1.23755293E+01  1.23755293E+01
 -2.47510585E+01  0.00000000E+00  1.23755293E+01  1.23755293E+01 -2.47510585E+01
  0.00000000E+00  1.23755293E+01  1.23755293E+01 -2.47510585E+01  0.00000000E+00
  1.23755293E+01  1.23755293E+01 -2.47510585E+01  0.00000000E+00  1.23755293E+01
  1.23755293E+01 -2.47510585E+01  0.00000000E+00  1.23755293E+01  1.23755293E+01
 -2.47510585E+01  0.00000000E+00  1.23755293E+01  1.23755293E+01 -2.47510585E+01
  0.00000000E+00  1.23755293E+01  1.23755293E+01 -2.47510585E+01  0.00000000E+00
  1.23755293E+01  1.23755293E+01 -2.47510585E+01  0.00000000E+00  1.23755293E+01
  1.23755293E+01 -2.47510585E+01  0.00000000E+00  1.23755293E+01  1.23755293E+01
 -2.47510585E+01  0.00000000E+00  1.23755293E+01  1.23755293E+01 -2.47510585E+01
  0.00000000E+00  1.23755293E+01  1.23755293E+01 -2.47510585E+01  0.00000000E+00
  1.23755293E+01  1.23755293E+01 -2.47510585E+01  0.00000000E+00  1.23755293E+01
  1.23755293E+01 -2.47510585E+01  0.00000000E+00  1.23755293E+01  1.23755293E+01
 -2.47510585E+01  0.00000000E+00  1.23755293E+01  1.23755293E+01 -2.47510585E+01
  0.00000000E+00  1.23755293E+01  1.23755293E+01 -2.47510585E+01  0.00000000E+00
  1.23755293E+01  1.23755293E+01 -2.47510585E+01  0.00000000E+00  1.23755293E+01
  1.23755293E+01 -2.47510585E+01  0.00000000E+00  1.23755293E+01  1.23755293E+01
 -2.47510585E+01  0.00000000E+00  1.23755293E+01  1.23755293E+01 -2.47510585E+01
  0.00000000E+00  1.23755293E+01  1.23755293E+01 -2.47510585E+01  0.00000000E+00
  1.23755293E+01  1.23755293E+01 -2.47510585E+01  0.00000000E+00  1.23755293E+01
  1.23755293E+01 -2.47510585E+01  0.00000000E+00  1.23755293E+01  1.23755293E+01
 -2.47510585E+01  0.00000000E+00  1.23755293E+01  1.23755293E+01 -2.47510585E+01
  0.00000000E+00  1.23755293E+01  1.23755293E+01 -2.47510585E+01  0.00000000E+00
  1.23755293E+01  1.23755293E+01 -2.47510585E+01  0.00000000E+00  1.23755293E+01
  1.23755293E+01 -2.47510585E+01  0.00000000E+00  1.23755293E+01  1.23755293E+01
 -2.47510585E+01  0.00000000E+00  1.23755293E+01  1.23755293E+01 -2.47510585E+01
  0.00000000E+00  1.23755293E+01  1.23755293E+01 -2.47510585E+01  0.00000000E+00
  1.23755293E+01  1.23755293E+01 -2.47510585E+01  0.00000000E+00  1.23755293E+01
  1.23755293E+01 -2.47510585E+01  0.00000000E+00  1.23755293E+01  1.23755293E+01
 -2.47510585E+01  0.00000000E+00  1.23755293E+01  1.23755293E+01 -2.47510585E+01
  0.00000000E+00  1.23755293E+01  1.23755293E+01 -2.47510585E+01  0.00000000E+00
  1.23755293E+01  1.23755293E+01 -2.47510585E+01  0.00000000E+00  1.23755293E+01
  1.23755293E+01 -2.47510585E+01  0.00000000E+00  1.23755293E+01  1.23755293E+01
 -2.47510585E+01  0.00000000E+00  1.23755293E+01  1.23755293E+01 -2.47510585E+01
  0.00000000E+00  1.23755293E+01  1.23755293E+01 -2.47510585E+01  0.00000000E+00
  1.23755293E+01  1.23755293E+01 -2.47510585E+01  0.00000000E+00  1.23755293E+01
  1.23755293E+01 -2.47510585E+01  0.00000000E+00  1.23755293E+01  1.23755293E+01
 -2.47510585E+01  0.00000000E+00  1.23755293E+01  1.23755293E+01 -2.47510585E+01
  0.00000000E+00  1.23755293E+01  1.23755293E+01 -2.47510585E+01  0.00000000E+00
  1.23755293E+01  1.23755293E+01 -2.47510585E+01  0.00000000E+00  1.23755293E+01
  1.23755293E+01 -2.47510585E+01  0.00000000E+00  1.23755293E+01  1.23755293E+01
 -2.47510585E+01  0.00000000E+00  1.23755293E+01  1.23755293E+01 -2.47510585E+01
  0.00000000E+00  1.23755293E+01  1.23755293E+01 -2.47510585E+01  0.00000000E+00
  1.23755293E+01  1.23755293E+01 -2.47510585E+01  0.00000000E+00  1.23755293E+01
  1.23755293E+01 -2.47510585E+01  0.00000000E+00  1.23755293E+01  1.23755293E+01
 -2.47510585E+01  0.00000000E+00  1.23755293E+01  1.23755293E+01 -2.47510585E+01
  0.00000000E+00  1.23755293E+01  1.23755293E+01 -2.47510585E+01  0.00000000E+00
  1.23755293E+01  1.23755293E+01 -2.47510585E+01  0.00000000E+00  1.23755293E+01
  1.23755293E+01 -2.47510585E+01  0.00000000E+00  1.23755293E+01  1.23755293E+01
 -2.47510585E+01  0.00000000E+00  1.23755293E+01  1.23755293E+01 -2.47510585E+01
  0.00000000E+00  1.23755293E+01  1.23755293E+01 -2.47510585E+01  0.00000000E+00
  1.23755293E+01  1.23755293E+01 -2.47510585E+01  0.00000000E+00  1.23755293E+01
  1.23755293E+01 -2.47510585E+01  0.00000000E+00  1.23755293E+01  1.23755293E+01
 -2.47510585E+01  0.00000000E+00  1.23755293E+01  1.23755293E+01 -2.47510585E+01
  0.00000000E+00  1.23755293E+01  1.23755293E+01 -2.47510585E+01  0.00000000E+00
  1.23755293E+01  1.23755293E+01 -2.47510585E+01  0.00000000E+00  1.23755293E+01
  1.23755293E+01 -2.47510585E+01  0.00000000E+00  1.23755293E+01  1.23755293E+01
 -2.47510585E+01  0.00000000E+00  1.23755293E+01  1.23755293E+01 -2.47510585E+01
  0.00000000E+00  1.23755293E+01  1.23755293E+01 -2.47510585E+01  0.00000000E+00
  1.23755293E+01  1.23755293E+01 -2.47510585E+01  0.00000000E+00  1.23755293E+01
  1.23755293E+01 -2.47510585E+01  0.00000000E+00  1.23755293E+01  1.23755293E+01
 -2.47510585E+01  0.00000000E+00  1.23755293E+01  1.23755293E+01 -2.47510585E+01
  0.00000000E+00  1.23755293E+01  1.23755293E+01 -2.47510585E+01  0.00000000E+00
  1.23755293E+01  1.23755293E+01 -2.47510585E+01  0.00000000E+00  1.23755293E+01
  1.23755293E+01 -2.47510585E+01  0.00000000E+00  1.23755293E+01  1.23755293E+01
 -2.47510585E+01  0.00000000E+00  1.23755293E+01  1.23755293E+01 -2.47510585E+01
  0.00000000E+00  1.23755293E+01  1.23755293E+01 -2.47510585E+01  0.00000000E+00
  1.23755293E+01  1.23755293E+01 -2.47510585E+01  0.00000000E+00  1.23755293E+01
  1.23755293E+01 -2.47510585E+01  0.00000000E+00  1.23755293E+01  1.23755293E+01
 -2.47510585E+01  0.00000000E+00  1.23755293E+01  1.23755293E+01 -2.47510585E+01
  0.00000000E+00  1.23755293E+01  1.23755293E+01 -2.47510585E+01  0.00000000E+00
  1.23755293E+01  1.23755293E+01 -2.47510585E+01  0.00000000E+00  1.23755293E+01
  1.23755293E+01 -2.47510585E+01  0.00000000E+00  1.23755293E+01  1.23755293E+01
 -2.47510585E+01  0.00000000E+00  1.23755293E+01  1.23755293E+01 -2.47510585E+01
  0.00000000E+00  1.23755293E+01  1.23755293E+01 -2.47510585E+01  0.00000000E+00
  1.23755293E+01  1.23755293E+01 -2.47510585E+01  0.00000000E+00  1.23755293E+01
  1.23755293E+01 -2.47510585E+01  0.00000000E+00  1.23755293E+01  1.23755293E+01
 -2.47510585E+01  0.00000000E+00  1.23755293E+01  1.23755293E+01 -2.47510585E+01
  0.00000000E+00  1.23755293E+01  1.23755293E+01 -2.47510585E+01  0.00000000E+00
  1.23755293E+01  1.23755293E+01 -2.47510585E+01  0.00000000E+00  1.23755293E+01
  1.23755293E+01 -2.47510585E+01  0.00000000E+00  1.23755293E+01  1.23755293E+01
 -2.47510585E+01  0.00000000E+00  1.23755293E+01  1.23755293E+01 -2.47510585E+01
  0.00000000E+00  1.23755293E+01  1.23755293E+01 -2.47510585E+01  0.00000000E+00
  1.23755293E+01  1.23755293E+01 -2.47510585E+01  0.00000000E+00  1.23755293E+01
  1.23755293E+01 -2.47510585E+01  0.00000000E+00  1.23755293E+01  1.23755293E+01
 -2.47510585E+01  0.00000000E+00  1.23755293E+01  1.23755293E+01 -2.47510585E+01
  0.00000000E+00  1.23755293E+01  1.23755293E+01 -2.47510585E+01  0.00000000E+00
  1.23755293E+01  1.23755293E+01 -2.47510585E+01  0.00000000E+00  1.23755293E+01
  1.23755293E+01 -2.47510585E+01  0.00000000E+00  1.23755293E+01  1.23755293E+01
 -2.47510585E+01  0.00000000E+00  1.23755293E+01  1.23755293E+01 -2.47510585E+01
  0.00000000E+00  1.23755293E+01  1.23755293E+01 -2.47510585E+01  0.00000000E+00
  1.23755293E+01  1.23755293E+01 -2.47510585E+01  0.00000000E+00  1.23755293E+01
  1.23755293E+01 -2.47510585E+01  0.00000000E+00  1.23755293E+01  1.23755293E+01
 -2.47510585E+01  0.00000000E+00  1.23755293E+01  1.23755293E+01 -2.47510585E+01
  0.00000000E+00  1.23755293E+01  1.23755293E+01 -2.47510585E+01  0.00000000E+00
  1.23755293E+01  1.23755293E+01 -2.47510585E+01  0.00000000E+00  1.23755293E+01
  1.23755293E+01 -2.47510585E+01  0.00000000E+00  1.23755293E+01  1.23755293E+01
 -2.47510585E+01  0.00000000E+00  1.23755293E+01  1.23755293E+01 -2.47510585E+01
  0.00000000E+00  1.23755293E+01  1.23755293E+01 -2.47510585E+01  0.00000000E+00
  1.23755293E+01  1.23755293E+01 -2.47510585E+01  0.00000000E+00  1.23755293E+01
  1.23755293E+01 -2.47510585E+01  0.00000000E+00  1.23755293E+01  1.23755293E+01
 -2.47510585E+01  0.00000000E+00  1.23755293E+01  1.23755293E+01 -2.47510585E+01
  0.00000000E+00  1.23755293E+01  1.23755293E+01 -2.47510585E+01  0.00000000E+00
  1.23755293E+01  1.23755293E+01 -2.47510585E+01  0.00000000E+00  1.23755293E+01
  1.23755293E+01 -2.47510585E+01  0.00000000E+00  1.23755293E+01  1.23755293E+01
 -2.47510585E+01  0.00000000E+00  1.23755293E+01  1.23755293E+01 -2.47510585E+01
  0.00000000E+00  1.23755293E+01  1.23755293E+01 -2.47510585E+01  0.00000000E+00
  1.23755293E+01  1.23755293E+01 -2.47510585E+01  0.00000000E+00  1.23755293E+01
  1.23755293E+01 -2.47510585E+01  0.00000000E+00  1.23755293E+01  1.23755293E+01
 -2.47510585E+01  0.00000000E+00  1.23755293E+01  1.23755293E+01 -2.47510585E+01
  0.00000000E+00  1.23755293E+01  1.23755293E+01 -2.47510585E+01  0.00000000E+00
  1.23755293E+01  1.23755293E+01 -2.47510585E+01  0.00000000E+00  1.23755293E+01
  1.23755293E+01 -2.47510585E+01  0.00000000E+00  1.23755293E+01  1.23755293E+01
 -2.47510585E+01  0.00000000E+00  1.23755293E+01  1.23755293E+01 -2.47510585E+01
  0.00000000E+00  1.23755293E+01  1.23755293E+01 -2.47510585E+01  0.00000000E+00
  1.23755293E+01  1.23755293E+01 -2.47510585E+01  0.00000000E+00  1.23755293E+01
  1.23755293E+01 -2.47510585E+01  0.00000000E+00  1.23755293E+01  1.23755293E+01
 -2.47510585E+01  0.00000000E+00  1.23755293E+01  1.23755293E+01 -2.47510585E+01
  0.00000000E+00  1.23755293E+01  1.23755293E+01 -2.47510585E+01  0.00000000E+00
  1.23755293E+01  1.23755293E+01 -2.47510585E+01  0.00000000E+00  1.23755293E+01
  1.23755293E+01 -2.47510585E+01  0.00000000E+00  1.23755293E+01  1.23755293E+01
 -2.47510585E+01  0.00000000E+00  1.23755293E+01  1.23755293E+01 -2.47510585E+01
  0.00000000E+00  1.23755293E+01  1.23755293E+01 -2.47510585E+01  0.00000000E+00
  1.23755293E+01  1.23755293E+01 -2.47510585E+01  0.00000000E+00  1.23755293E+01
  1.23755293E+01 -2.47510585E+01  0.00000000E+00  1.23755293E+01  1.23755293E+01
 -2.47510585E+01  0.00000000E+00  1.23755293E+01  1.23755293E+01 -2.47510585E+01
  0.00000000E+00  1.23755293E+01  1.23755293E+01 -2.47510585E+01  0.00000000E+00
  1.23755293E+01  1.23755293E+01 -2.47510585E+01  0.00000000E+00  1.23755293E+01
  1.23755293E+01 -2.47510585E+01  0.00000000E+00  1.23755293E+01  1.23755293E+01
 -2.47510585E+01  0.00000000E+00  1.23755293E+01  1.23755293E+01 -2.47510585E+01
  0.00000000E+00  1.23755293E+01  1.23755293E+01 -2.47510585E+01  0.00000000E+00
  1.23755293E+01  1.23755293E+01 -2.47510585E+01  0.00000000E+00  1.23755293E+01
  1.23755293E+01 -2.47510585E+01  0.00000000E+00  1.23755293E+01  1.23755293E+01
 -2.47510585E+01  0.00000000E+00  1.23755293E+01  1.23755293E+01 -2.47510585E+01
  0.00000000E+00  1.23755293E+01  1.23755293E+01 -2.47510585E+01  0.00000000E+00
  1.23755293E+01  1.23755293E+01 -2.47510585E+01  0.00000000E+00  1.23755293E+01
  1.23755293E+01 -2.47510585E+01  0.00000000E+00  1.23755293E+01  1.23755293E+01
 -2.47510585E+01  0.00000000E+00  1.23755293E+01  1.23755293E+01 -2.47510585E+01
  0.00000000E+00  1.23755293E+01  1.23755293E+01 -2.47510585E+01  0.00000000E+00
  1.23755293E+01  1.23755293E+01 -2.47510585E+01  0.00000000E+00  1.23755293E+01
  1.23755293E+01 -2.47510585E+01  0.00000000E+00  1.23755293E+01  1.23755293E+01
 -2.47510585E+01  0.00000000E+00  1.23755293E+01  1.23755293E+01 -2.47510585E+01
  0.00000000E+00  1.23755293E+01  1.23755293E+01 -2.47510585E+01  0.00000000E+00
  1.23755293E+01  1.23755293E+01 -2.47510585E+01  0.00000000E+00  1.23755293E+01
  1.23755293E+01 -2.47510585E+01  0.00000000E+00  1.23755293E+01  1.23755293E+01
 -2.47510585E+01  0.00000000E+00  1.23755293E+01  1.23755293E+01 -2.47510585E+01
  0.00000000E+00  1.23755293E+01  1.23755293E+01 -2.47510585E+01  0.00000000E+00
  1.23755293E+01  1.23755293E+01 -2.47510585E+01  0.00000000E+00  1.23755293E+01
  1.23755293E+01 -2.47510585E+01  0.00000000E+00  1.23755293E+01  1.23755293E+01
 -2.47510585E+01  0.00000000E+00  1.23755293E+01  1.23755293E+01 -2.47510585E+01
  0.00000000E+00  1.23755293E+01  1.23755293E+01 -2.47510585E+01  0.00000000E+00
  1.23755293E+01  1.23755293E+01 -2.47510585E+01  0.00000000E+00  1.23755293E+01
  1.23755293E+01 -2.47510585E+01  0.00000000E+00  1.23755293E+01  1.23755293E+01
 -2.47510585E+01  0.00000000E+00  1.23755293E+01  1.23755293E+01 -2.47510585E+01
  0.00000000E+00  1.23755293E+01  1.23755293E+01 -2.47510585E+01  0.00000000E+00
  1.23755293E+01  1.23755293E+01 -2.47510585E+01  0.00000000E+00  1.23755293E+01
  1.23755293E+01 -2.47510585E+01  0.00000000E+00  1.23755293E+01  1.23755293E+01
 -2.47510585E+01  0.00000000E+00  1.23755293E+01  1.23755293E+01 -2.47510585E+01
  0.00000000E+00  1.23755293E+01  1.23755293E+01 -2.47510585E+01  0.00000000E+00
  1.23755293E+01  1.23755293E+01 -2.47510585E+01  0.00000000E+00  1.23755293E+01
  1.23755293E+01 -2.47510585E+01  0.00000000E+00  1.23755293E+01  1.23755293E+01
 -2.47510585E+01  0.00000000E+00  1.23755293E+01  1.23755293E+01 -2.47510585E+01
  0.00000000E+00  1.23755293E+01  1.23755293E+01 -2.47510585E+01  0.00000000E+00
  1.23755293E+01  1.23755293E+01 -2.47510585E+01  0.00000000E+00  1.23755293E+01
  1.23755293E+01 -2.47510585E+01  0.00000000E+00  1.23755293E+01  1.23755293E+01
 -2.47510585E+01  0.00000000E+00  1.23755293E+01  1.23755293E+01 -2.47510585E+01
  0.00000000E+00  1.23755293E+01  1.23755293E+01 -2.47510585E+01  0.00000000E+00
  1.23755293E+01  1.23755293E+01 -2.47510585E+01  0.00000000E+00  1.23755293E+01
  1.23755293E+01 -2.47510585E+01  0.00000000E+00  1.23755293E+01  1.23755293E+01
 -2.47510585E+01  0.00000000E+00  1.23755293E+01  1.23755293E+01 -2.47510585E+01
  0.00000000E+00  1.23755293E+01  1.23755293E+01 -2.47510585E+01  0.00000000E+00
  1.23755293E+01  1.23755293E+01 -2.47510585E+01  0.00000000E+00  1.23755293E+01
  1.23755293E+01 -2.47510585E+01  0.00000000E+00  1.23755293E+01  1.23755293E+01
 -2.47510585E+01  0.00000000E+00  1.23755293E+01  1.23755293E+01 -2.47510585E+01
  0.00000000E+00  1.23755293E+01  1.23755293E+01 -2.47510585E+01  0.00000000E+00
  1.23755293E+01  1.23755293E+01 -2.47510585E+01  0.00000000E+00  1.23755293E+01
  1.23755293E+01 -2.47510585E+01  0.00000000E+00  1.23755293E+01  1.23755293E+01
 -2.47510585E+01  0.00000000E+00  1.23755293E+01  1.23755293E+01 -2.47510585E+01
  0.00000000E+00  1.23755293E+01  1.23755293E+01 -2.47510585E+01  0.00000000E+00
  1.23755293E+01  1.23755293E+01 -2.47510585E+01  0.00000000E+00  1.23755293E+01
  1.23755293E+01 -2.47510585E+01  0.00000000E+00  1.23755293E+01  1.23755293E+01
 -2.47510585E+01  0.00000000E+00  1.23755293E+01  1.23755293E+01 -2.47510585E+01
  0.00000000E+00  1.23755293E+01  1.23755293E+01 -2.47510585E+01  0.00000000E+00
  1.23755293E+01  1.23755293E+01 -2.47510585E+01  0.00000000E+00  1.23755293E+01
  1.23755293E+01 -2.47510585E+01  0.00000000E+00  1.23755293E+01  1.23755293E+01
 -2.47510585E+01  0.00000000E+00  1.23755293E+01  1.23755293E+01 -2.47510585E+01
  0.00000000E+00  1.23755293E+01  1.23755293E+01 -2.47510585E+01  0.00000000E+00
  1.23755293E+01  1.23755293E+01 -2.47510585E+01  0.00000000E+00  1.23755293E+01
  1.23755293E+01 -2.47510585E+01  0.00000000E+00  1.23755293E+01  1.23755293E+01
 -2.47510585E+01  0.00000000E+00  1.23755293E+01  1.23755293E+01 -2.47510585E+01
  0.00000000E+00  1.23755293E+01  1.23755293E+01 -2.47510585E+01  0.00000000E+00
  1.23755293E+01  1.23755293E+01 -2.47510585E+01  0.00000000E+00  1.23755293E+01
  1.23755293E+01 -2.47510585E+01  0.00000000E+00  1.23755293E+01  1.23755293E+01
 -2.47510585E+01  0.00000000E+00  1.23755293E+01  1.23755293E+01 -2.47510585E+01
  0.00000000E+00  1.23755293E+01  1.23755293E+01 -2.47510585E+01  0.00000000E+00
  1.23755293E+01  1.23755293E+01 -2.47510585E+01  0.00000000E+00  1.23755293E+01
  1.23755293E+01 -2.47510585E+01  0.00000000E+00  1.23755293E+01  1.23755293E+01
 -2.47510585E+01  0.00000000E+00  1.23755293E+01  1.23755293E+01 -2.47510585E+01
  0.00000000E+00  1.23755293E+01  1.23755293E+01 -2.47510585E+01  0.00000000E+00
  1.23755293E+01  1.23755293E+01 -2.47510585E+01  0.00000000E+00  1.23755293E+01
  1.23755293E+01 -2.47510585E+01  0.00000000E+00  1.23755293E+01  1.23755293E+01
 -2.47510585E+01  0.00000000E+00  1.23755293E+01  1.23755293E+01 -2.47510585E+01
  0.00000000E+00  1.23755293E+01  1.23755293E+01 -2.47510585E+01  0.00000000E+00
  1.23755293E+01  1.23755293E+01 -2.47510585E+01  0.00000000E+00  1.23755293E+01
  1.23755293E+01 -2.47510585E+01  0.00000000E+00  1.23755293E+01  1.23755293E+01
 -2.47510585E+01  0.00000000E+00  1.23755293E+01  1.23755293E+01 -2.47510585E+01
  0.00000000E+00  1.23755293E+01  1.23755293E+01 -2.47510585E+01  0.00000000E+00
  1.23755293E+01  1.23755293E+01 -2.47510585E+01  0.00000000E+00  1.23755293E+01
  1.23755293E+01 -2.47510585E+01  0.00000000E+00  1.23755293E+01  1.23755293E+01
 -2.47510585E+01  0.00000000E+00  1.23755293E+01  1.23755293E+01 -2.47510585E+01
  0.00000000E+00  1.23755293E+01  1.23755293E+01 -2.47510585E+01  0.00000000E+00
  1.23755293E+01  1.23755293E+01 -2.47510585E+01  0.00000000E+00  1.23755293E+01
  1.23755293E+01 -2.47510585E+01  0.00000000E+00  1.23755293E+01  1.23755293E+01
 -2.47510585E+01  0.00000000E+00  1.23755293E+01  1.23755293E+01 -2.47510585E+01
  0.00000000E+00  1.23755293E+01  1.23755293E+01 -2.47510585E+01  0.00000000E+00
  1.23755293E+01  1.23755293E+01 -2.47510585E+01  0.00000000E+00  1.23755293E+01
  1.23755293E+01 -2.47510585E+01  0.00000000E+00  1.23755293E+01  1.23755293E+01
 -2.47510585E+01  0.00000000E+00  1.23755293E+01  1.23755293E+01 -2.47510585E+01
  0.00000000E+00  1.23755293E+01  1.23755293E+01 -2.47510585E+01  0.00000000E+00
  1.23755293E+01  1.23755293E+01 -2.47510585E+01  0.00000000E+00  1.23755293E+01
  1.23755293E+01 -2.47510585E+01  0.00000000E+00  1.23755293E+01  1.23755293E+01
 -2.47510585E+01  0.00000000E+00  1.23755293E+01  1.23755293E+01 -2.47510585E+01
  0.00000000E+00  1.23755293E+01  1.23755293E+01 -2.47510585E+01  0.00000000E+00
  1.23755293E+01  1.23755293E+01 -2.47510585E+01  0.00000000E+00  1.23755293E+01
  1.23755293E+01 -2.47510585E+01  0.00000000E+00  1.23755293E+01  1.23755293E+01
 -2.47510585E+01  0.00000000E+00  1.23755293E+01  1.23755293E+01 -2.47510585E+01
  0.00000000E+00  1.23755293E+01  1.23755293E+01 -2.47510585E+01  0.00000000E+00
  1.23755293E+01  1.23755293E+01 -2.47510585E+01  0.00000000E+00  1.23755293E+01
  1.23755293E+01 -2.47510585E+01  0.00000000E+00  1.23755293E+01  1.23755293E+01
 -2.47510585E+01  0.00000000E+00  1.23755293E+01  1.23755293E+01 -2.47510585E+01
  0.00000000E+00  1.23755293E+01  1.23755293E+01 -2.47510585E+01  0.00000000E+00
  1.23755293E+01  1.23755293E+01 -2.47510585E+01  0.00000000E+00  1.23755293E+01
  1.23755293E+01 -2.47510585E+01  0.00000000E+00  1.23755293E+01  1.23755293E+01
 -2.47510585E+01  0.00000000E+00  1.23755293E+01  1.23755293E+01 -2.47510585E+01
  0.00000000E+00  1.23755293E+01  1.23755293E+01 -2.47510585E+01  0.00000000E+00
  1.23755293E+01  1.23755293E+01 -2.47510585E+01  0.00000000E+00  1.23755293E+01
  1.23755293E+01 -2.47510585E+01  0.00000000E+00  1.23755293E+01  1.23755293E+01
 -2.47510585E+01  0.00000000E+00  1.23755293E+01  1.23755293E+01 -2.47510585E+01
  0.00000000E+00  1.23755293E+01  1.23755293E+01 -2.47510585E+01  0.00000000E+00
  1.23755293E+01  1.23755293E+01 -2.47510585E+01  0.00000000E+00  1.23755293E+01
  1.23755293E+01 -2.47510585E+01  0.00000000E+00  1.23755293E+01  1.23755293E+01
 -2.47510585E+01  0.00000000E+00  1.23755293E+01  1.23755293E+01 -2.47510585E+01
  0.00000000E+00  1.23755293E+01  1.23755293E+01 -2.47510585E+01  0.00000000E+00
  1.23755293E+01  1.23755293E+01 -2.47510585E+01  0.00000000E+00  1.23755293E+01
  1.23755293E+01 -2.47510585E+01  0.00000000E+00  1.23755293E+01  1.23755293E+01
 -2.47510585E+01  0.00000000E+00  1.23755293E+01  1.23755293E+01 -2.47510585E+01
  0.00000000E+00  1.23755293E+01  1.23755293E+01 -2.47510585E+01  0.00000000E+00
  1.23755293E+01  1.23755293E+01 -2.47510585E+01  0.00000000E+00  1.23755293E+01
  1.23755293E+01 -2.47510585E+01  0.00000000E+00  1.23755293E+01  1.23755293E+01
 -2.47510585E+01  0.00000000E+00  1.23755293E+01  1.23755293E+01 -2.47510585E+01
  0.00000000E+00  1.23755293E+01  1.23755293E+01 -2.47510585E+01  0.00000000E+00
  1.23755293E+01  1.23755293E+01 -2.47510585E+01  0.00000000E+00  1.23755293E+01
  1.23755293E+01 -2.47510585E+01  0.00000000E+00  1.23755293E+01  1.23755293E+01
 -2.47510585E+01  0.00000000E+00  1.23755293E+01  1.23755293E+01 -2.47510585E+01
  0.00000000E+00  1.23755293E+01  1.23755293E+01 -2.47510585E+01  0.00000000E+00
  1.23755293E+01  1.23755293E+01 -2.47510585E+01  0.00000000E+00  1.23755293E+01
  1.23755293E+01 -2.47510585E+01  0.00000000E+00  1.23755293E+01  1.23755293E+01
 -2.47510585E+01  0.00000000E+00  1.23755293E+01  1.23755293E+01 -2.47510585E+01
  0.00000000E+00  1.23755293E+01  1.23755293E+01 -2.47510585E+01  0.00000000E+00
  1.23755293E+01  1.23755293E+01 -2.47510585E+01  0.00000000E+00  1.23755293E+01
  1.23755293E+01 -2.47510585E+01  0.00000000E+00  1.23755293E+01  1.23755293E+01
 -2.47510585E+01  0.00000000E+00  1.23755293E+01  1.23755293E+01 -2.47510585E+01
  0.00000000E+00  1.23755293E+01  1.23755293E+01 -2.47510585E+01  0.00000000E+00
  1.23755293E+01  1.23755293E+01 -2.47510585E+01  0.00000000E+00  1.23755293E+01
  1.23755293E+01 -2.47510585E+01  0.00000000E+00  1.23755293E+01  1.23755293E+01
 -2.47510585E+01  0.00000000E+00  1.23755293E+01  1.23755293E+01 -2.47510585E+01
  0.00000000E+00  1.23755293E+01  1.23755293E+01 -2.47510585E+01  0.00000000E+00
  1.23755293E+01  1.23755293E+01 -2.47510585E+01  0.00000000E+00  1.23755293E+01
  1.23755293E+01 -2.47510585E+01  0.00000000E+00  1.23755293E+01  1.23755293E+01
 -2.47510585E+01  0.00000000E+00  1.23755293E+01  1.23755293E+01 -2.47510585E+01
  0.00000000E+00  1.23755293E+01  1.23755293E+01 -2.47510585E+01  0.00000000E+00
  1.23755293E+01  1.23755293E+01 -2.47510585E+01  0.00000000E+00  1.23755293E+01
  1.23755293E+01 -2.47510585E+01  0.00000000E+00  1.23755293E+01  1.23755293E+01
 -2.47510585E+01  0.00000000E+00  1.23755293E+01  1.23755293E+01 -2.47510585E+01
  0.00000000E+00  1.23755293E+01  1.23755293E+01 -2.47510585E+01  0.00000000E+00
  1.23755293E+01  1.23755293E+01 -2.47510585E+01  0.00000000E+00  1.23755293E+01
  1.23755293E+01 -2.47510585E+01  0.00000000E+00  1.23755293E+01  1.23755293E+01
 -2.47510585E+01  0.00000000E+00  1.23755293E+01  1.23755293E+01 -2.47510585E+01
  0.00000000E+00  1.23755293E+01  1.23755293E+01 -2.47510585E+01  0.00000000E+00
  1.23755293E+01  1.23755293E+01 -2.47510585E+01  0.00000000E+00  1.23755293E+01
  1.23755293E+01 -2.47510585E+01  0.00000000E+00  1.23755293E+01  1.23755293E+01
 -2.47510585E+01  0.00000000E+00  1.23755293E+01  1.23755293E+01 -2.47510585E+01
  0.00000000E+00  1.23755293E+01  1.23755293E+01 -2.47510585E+01  0.00000000E+00
  1.23755293E+01  1.23755293E+01 -2.47510585E+01  0.00000000E+00  1.23755293E+01
  1.23755293E+01 -2.47510585E+01  0.00000000E+00  1.23755293E+01  1.23755293E+01
 -2.47510585E+01  0.00000000E+00  1.23755293E+01  1.23755293E+01 -2.47510585E+01
  0.00000000E+00  1.23755293E+01  1.23755293E+01 -2.47510585E+01  0.00000000E+00
  1.23755293E+01  1.23755293E+01 -2.47510585E+01  0.00000000E+00  1.23755293E+01
  1.23755293E+01 -2.47510585E+01  0.00000000E+00  1.23755293E+01  1.23755293E+01
 -2.47510585E+01  0.00000000E+00  1.23755293E+01  1.23755293E+01 -2.47510585E+01
  0.00000000E+00  1.23755293E+01  1.23755293E+01 -2.47510585E+01  0.00000000E+00
  1.23755293E+01  1.23755293E+01 -2.47510585E+01  0.00000000E+00  1.23755293E+01
  1.23755293E+01 -2.47510585E+01  0.00000000E+00  1.23755293E+01  1.23755293E+01
 -2.47510585E+01  0.00000000E+00  1.23755293E+01  1.23755293E+01 -2.47510585E+01
  0.00000000E+00  1.23755293E+01  1.23755293E+01 -2.47510585E+01  0.00000000E+00
  1.23755293E+01  1.23755293E+01 -2.47510585E+01  0.00000000E+00  1.23755293E+01
  1.23755293E+01 -2.47510585E+01  0.00000000E+00  1.23755293E+01  1.23755293E+01
 -2.47510585E+01  0.00000000E+00  1.23755293E+01  1.23755293E+01 -2.47510585E+01
  0.00000000E+00  1.23755293E+01  1.23755293E+01 -2.47510585E+01  0.00000000E+00
  1.23755293E+01  1.23755293E+01 -2.47510585E+01  0.00000000E+00  1.23755293E+01
  1.23755293E+01 -2.47510585E+01  0.00000000E+00  1.23755293E+01  1.23755293E+01
 -2.47510585E+01  0.00000000E+00  1.23755293E+01  1.23755293E+01 -2.47510585E+01
  0.00000000E+00  1.23755293E+01  1.23755293E+01 -2.47510585E+01  0.00000000E+00
  1.23755293E+01  1.23755293E+01 -2.47510585E+01  0.00000000E+00  1.23755293E+01
  1.23755293E+01 -2.47510585E+01  0.00000000E+00  1.23755293E+01  1.23755293E+01
 -2.47510585E+01  0.00000000E+00  1.23755293E+01  1.23755293E+01 -2.47510585E+01
  0.00000000E+00  1.23755293E+01  1.23755293E+01 -2.47510585E+01  0.00000000E+00
  1.23755293E+01  1.23755293E+01 -2.47510585E+01  0.00000000E+00  1.23755293E+01
  1.23755293E+01 -2.47510585E+01  0.00000000E+00  1.23755293E+01  1.23755293E+01
 -2.47510585E+01  0.00000000E+00  1.23755293E+01  1.23755293E+01 -2.47510585E+01
  0.00000000E+00  1.23755293E+01  1.23755293E+01 -2.47510585E+01  0.00000000E+00
  1.23755293E+01  1.23755293E+01 -2.47510585E+01  0.00000000E+00  1.23755293E+01
  1.23755293E+01 -2.47510585E+01  0.00000000E+00  1.23755293E+01  1.23755293E+01
 -2.47510585E+01  0.00000000E+00  1.23755293E+01  1.23755293E+01 -2.47510585E+01
  0.00000000E+00  1.23755293E+01  1.23755293E+01 -2.47510585E+01  0.00000000E+00
  1.23755293E+01  1.23755293E+01 -2.47510585E+01  0.00000000E+00  1.23755293E+01
  1.23755293E+01 -2.47510585E+01  0.00000000E+00  1.23755293E+01  1.23755293E+01
 -2.47510585E+01  0.00000000E+00  1.23755293E+01  1.23755293E+01 -2.47510585E+01
  0.00000000E+00  1.23755293E+01  1.23755293E+01 -2.47510585E+01  0.00000000E+00
  1.23755293E+01  1.23755293E+01 -2.47510585E+01  0.00000000E+00  1.23755293E+01
  1.23755293E+01 -2.47510585E+01  0.00000000E+00  1.23755293E+01  1.23755293E+01
 -2.47510585E+01  0.00000000E+00  1.23755293E+01  1.23755293E+01 -2.47510585E+01
  0.00000000E+00  1.23755293E+01  1.23755293E+01 -2.47510585E+01  0.00000000E+00
  1.23755293E+01  1.23755293E+01 -2.47510585E+01  0.00000000E+00  1.23755293E+01
  1.23755293E+01 -2.47510585E+01  0.00000000E+00  1.23755293E+01  1.23755293E+01
 -2.47510585E+01  0.00000000E+00  1.23755293E+01  1.23755293E+01 -2.47510585E+01
  0.00000000E+00  1.23755293E+01  1.23755293E+01 -2.47510585E+01  0.00000000E+00
  1.23755293E+01  1.23755293E+01 -2.47510585E+01  0.00000000E+00  1.23755293E+01
  1.23755293E+01 -2.47510585E+01  0.00000000E+00  1.23755293E+01  1.23755293E+01
 -2.47510585E+01  0.00000000E+00  1.23755293E+01  1.23755293E+01 -2.47510585E+01
  0.00000000E+00  1.23755293E+01  1.23755293E+01 -2.47510585E+01  0.00000000E+00
  1.23755293E+01  1.23755293E+01 -2.47510585E+01  0.00000000E+00  1.23755293E+01
  1.23755293E+01 -2.47510585E+01  0.00000000E+00  1.23755293E+01  1.23755293E+01
 -2.47510585E+01  0.00000000E+00  1.23755293E+01  1.23755293E+01 -2.47510585E+01
  0.00000000E+00  1.23755293E+01  1.23755293E+01 -2.47510585E+01  0.00000000E+00
  1.23755293E+01  1.23755293E+01 -2.47510585E+01  0.00000000E+00  1.23755293E+01
  1.23755293E+01 -2.47510585E+01  0.00000000E+00  1.23755293E+01  1.23755293E+01
 -2.47510585E+01  0.00000000E+00  1.23755293E+01  1.23755293E+01 -2.47510585E+01
  0.00000000E+00  1.23755293E+01  1.23755293E+01 -2.47510585E+01  0.00000000E+00
  1.23755293E+01  1.23755293E+01 -2.47510585E+01  0.00000000E+00  1.23755293E+01
  1.23755293E+01 -2.47510585E+01  0.00000000E+00  1.23755293E+01  1.23755293E+01
 -2.47510585E+01  0.00000000E+00  1.23755293E+01  1.23755293E+01 -2.47510585E+01
  0.00000000E+00  1.23755293E+01  1.23755293E+01 -2.47510585E+01  0.00000000E+00
  1.23755293E+01  1.23755293E+01 -2.47510585E+01  0.00000000E+00  1.23755293E+01
  1.23755293E+01 -2.47510585E+01  0.00000000E+00  1.23755293E+01  1.23755293E+01
 -2.47510585E+01  0.00000000E+00  1.23755293E+01  1.23755293E+01 -2.47510585E+01
  0.00000000E+00  1.23755293E+01  1.23755293E+01 -2.47510585E+01  0.00000000E+00
  1.23755293E+01  1.23755293E+01 -2.47510585E+01  0.00000000E+00  1.23755293E+01
  1.23755293E+01 -2.47510585E+01  0.00000000E+00  1.23755293E+01  1.23755293E+01
 -2.47510585E+01  0.00000000E+00  1.23755293E+01  1.23755293E+01 -2.47510585E+01
  0.00000000E+00  1.23755293E+01  1.23755293E+01 -2.47510585E+01  0.00000000E+00
  1.23755293E+01  1.23755293E+01 -2.47510585E+01  0.00000000E+00  1.23755293E+01
  1.23755293E+01 -2.47510585E+01  0.00000000E+00  1.23755293E+01  1.23755293E+01
 -2.47510585E+01  0.00000000E+00  1.23755293E+01  1.23755293E+01 -2.47510585E+01
  0.00000000E+00  1.23755293E+01  1.23755293E+01 -2.47510585E+01  0.00000000E+00
  1.23755293E+01  1.23755293E+01 -2.47510585E+01  0.00000000E+00  1.23755293E+01
  1.23755293E+01 -2.47510585E+01  0.00000000E+00  1.23755293E+01  1.23755293E+01
 -2.47510585E+01  0.00000000E+00  1.23755293E+01  1.23755293E+01 -2.47510585E+01
  0.00000000E+00  1.23755293E+01  1.23755293E+01 -2.47510585E+01  0.00000000E+00
  1.23755293E+01  1.23755293E+01 -2.47510585E+01  0.00000000E+00  1.23755293E+01
  1.23755293E+01 -2.47510585E+01  0.00000000E+00  1.23755293E+01  1.23755293E+01
 -2.47510585E+01  0.00000000E+00  1.23755293E+01  1.23755293E+01 -2.47510585E+01
  0.00000000E+00  1.23755293E+01  1.23755293E+01 -2.47510585E+01  0.00000000E+00
  1.23755293E+01  1.23755293E+01 -2.47510585E+01  0.00000000E+00  1.23755293E+01
  1.23755293E+01 -2.47510585E+01  0.00000000E+00  1.23755293E+01  1.23755293E+01
 -2.47510585E+01  0.00000000E+00  1.23755293E+01  1.23755293E+01 -2.47510585E+01
  0.00000000E+00  1.23755293E+01  1.23755293E+01 -2.47510585E+01  0.00000000E+00
  1.23755293E+01  1.23755293E+01 -2.47510585E+01  0.00000000E+00  1.23755293E+01
  1.23755293E+01 -2.47510585E+01  0.00000000E+00  1.23755293E+01  1.23755293E+01
 -2.47510585E+01  0.00000000E+00  1.23755293E+01  1.23755293E+01 -2.47510585E+01
  0.00000000E+00  1.23755293E+01  1.23755293E+01 -2.47510585E+01  0.00000000E+00
  1.23755293E+01  1.23755293E+01 -2.47510585E+01  0.00000000E+00  1.23755293E+01
  1.23755293E+01 -2.47510585E+01  0.00000000E+00  1.23755293E+01  1.23755293E+01
 -2.47510585E+01  0.00000000E+00  1.23755293E+01  1.23755293E+01 -2.47510585E+01
  0.00000000E+00  1.23755293E+01  1.23755293E+01 -2.47510585E+01  0.00000000E+00
  1.23755293E+01  1.23755293E+01 -2.47510585E+01  0.00000000E+00  1.23755293E+01
  1.23755293E+01 -2.47510585E+01  0.00000000E+00  1.23755293E+01  1.23755293E+01
 -2.47510585E+01  0.00000000E+00  1.23755293E+01  1.23755293E+01 -2.47510585E+01
  0.00000000E+00  1.23755293E+01  1.23755293E+01 -2.47510585E+01  0.00000000E+00
  1.23755293E+01  1.23755293E+01 -2.47510585E+01  0.00000000E+00  1.23755293E+01
  1.23755293E+01 -2.47510585E+01  0.00000000E+00  1.23755293E+01  1.23755293E+01
 -2.47510585E+01  0.00000000E+00  1.23755293E+01  1.23755293E+01 -2.47510585E+01
  0.00000000E+00  1.23755293E+01  1.23755293E+01 -2.47510585E+01  0.00000000E+00
  1.23755293E+01  1.23755293E+01 -2.47510585E+01  0.00000000E+00  1.23755293E+01
  1.23755293E+01 -2.47510585E+01  0.00000000E+00  1.23755293E+01  1.23755293E+01
 -2.47510585E+01  0.00000000E+00  1.23755293E+01  1.23755293E+01 -2.47510585E+01
  0.00000000E+00  1.23755293E+01  1.23755293E+01 -2.47510585E+01  0.00000000E+00
  1.23755293E+01  1.23755293E+01 -2.47510585E+01  0.00000000E+00  1.23755293E+01
  1.23755293E+01 -2.47510585E+01  0.00000000E+00  1.23755293E+01  1.23755293E+01
 -2.47510585E+01  0.00000000E+00  1.23755293E+01  1.23755293E+01 -2.47510585E+01
  0.00000000E+00  1.23755293E+01  1.23755293E+01 -2.47510585E+01  0.00000000E+00
  1.23755293E+01  1.23755293E+01 -2.47510585E+01  0.00000000E+00  1.23755293E+01
  1.23755293E+01 -2.47510585E+01  0.00000000E+00  1.23755293E+01  1.23755293E+01
 -2.47510585E+01  0.00000000E+00  1.23755293E+01  1.23755293E+01 -2.47510585E+01
  0.00000000E+00  1.23755293E+01  1.23755293E+01 -2.47510585E+01  0.00000000E+00
  1.23755293E+01  1.23755293E+01 -2.47510585E+01  0.00000000E+00  1.23755293E+01
  1.23755293E+01 -2.47510585E+01  0.00000000E+00  1.23755293E+01  1.23755293E+01
 -2.47510585E+01  0.00000000E+00  1.23755293E+01  1.23755293E+01 -2.47510585E+01
  0.00000000E+00  1.23755293E+01  1.23755293E+01 -2.47510585E+01  0.00000000E+00
  1.23755293E+01  1.23755293E+01 -2.47510585E+01  0.00000000E+00  1.23755293E+01
  1.23755293E+01 -2.47510585E+01  0.00000000E+00  1.23755293E+01  1.23755293E+01
 -2.47510585E+01  0.00000000E+00  1.23755293E+01  1.23755293E+01 -2.47510585E+01
  0.00000000E+00  1.23755293E+01  1.23755293E+01 -2.47510585E+01  0.00000000E+00
  1.23755293E+01  1.23755293E+01 -2.47510585E+01  0.00000000E+00  1.23755293E+01
  1.23755293E+01 -2.47510585E+01  0.00000000E+00  1.23755293E+01  1.23755293E+01
 -2.47510585E+01  0.00000000E+00  1.23755293E+01  1.23755293E+01 -2.47510585E+01
  0.00000000E+00  1.23755293E+01  1.23755293E+01 -2.47510585E+01  0.00000000E+00
  1.23755293E+01  1.23755293E+01 -2.47510585E+01  0.00000000E+00  1.23755293E+01
  1.23755293E+01 -2.47510585E+01  0.00000000E+00  1.23755293E+01  1.23755293E+01
 -2.47510585E+01  0.00000000E+00  1.23755293E+01  1.23755293E+01 -2.47510585E+01
  0.00000000E+00  1.23755293E+01  1.23755293E+01 -2.47510585E+01  0.00000000E+00
  1.23755293E+01  1.23755293E+01 -2.47510585E+01  0.00000000E+00  1.23755293E+01
  1.23755293E+01 -2.47510585E+01  0.00000000E+00  1.23755293E+01  1.23755293E+01
 -2.47510585E+01  0.00000000E+00  1.23755293E+01  1.23755293E+01 -2.47510585E+01
  0.00000000E+00  1.23755293E+01  1.23755293E+01 -2.47510585E+01  0.00000000E+00
  1.23755293E+01  1.23755293E+01 -2.47510585E+01  0.00000000E+00  1.23755293E+01
  1.23755293E+01 -2.47510585E+01  0.00000000E+00  1.23755293E+01  1.23755293E+01
 -2.47510585E+01  0.00000000E+00  1.23755293E+01  1.23755293E+01 -2.47510585E+01
  0.00000000E+00  1.23755293E+01  1.23755293E+01 -2.47510585E+01  0.00000000E+00
  1.23755293E+01  1.23755293E+01 -2.47510585E+01  0.00000000E+00  1.23755293E+01
  1.23755293E+01 -2.47510585E+01  0.00000000E+00  1.23755293E+01  1.23755293E+01
 -2.47510585E+01  0.00000000E+00  1.23755293E+01  1.23755293E+01 -2.47510585E+01
  0.00000000E+00  1.23755293E+01  1.23755293E+01 -2.47510585E+01  0.00000000E+00
  1.23755293E+01  1.23755293E+01 -2.47510585E+01  0.00000000E+00  1.23755293E+01
  1.23755293E+01 -2.47510585E+01  0.00000000E+00  1.23755293E+01  1.23755293E+01
 -2.47510585E+01  0.00000000E+00  1.23755293E+01  1.23755293E+01 -2.47510585E+01
  0.00000000E+00  1.23755293E+01  1.23755293E+01 -2.47510585E+01  0.00000000E+00
  1.23755293E+01  1.23755293E+01 -2.47510585E+01  0.00000000E+00  1.23755293E+01
  1.23755293E+01 -2.47510585E+01  0.00000000E+00  1.23755293E+01  1.23755293E+01
 -2.47510585E+01  0.00000000E+00  1.23755293E+01  1.23755293E+01 -2.47510585E+01
  0.00000000E+00  1.23755293E+01  1.23755293E+01 -2.47510585E+01  0.00000000E+00
  1.23755293E+01  1.23755293E+01 -2.47510585E+01  0.00000000E+00  1.23755293E+01
  1.23755293E+01 -2.47510585E+01  0.00000000E+00  1.23755293E+01  1.23755293E+01
 -2.47510585E+01  0.00000000E+00  1.23755293E+01  1.23755293E+01 -2.47510585E+01
  0.00000000E+00  1.23755293E+01  1.23755293E+01 -2.47510585E+01  0.00000000E+00
  1.23755293E+01  1.23755293E+01 -2.47510585E+01  0.00000000E+00  1.23755293E+01
  1.23755293E+01 -2.47510585E+01  0.00000000E+00  1.23755293E+01  1.23755293E+01
 -2.47510585E+01  0.00000000E+00  1.23755293E+01  1.23755293E+01 -2.47510585E+01
  0.00000000E+00  1.23755293E+01  1.23755293E+01 -2.47510585E+01  0.00000000E+00
  1.23755293E+01  1.23755293E+01 -2.47510585E+01  0.00000000E+00  1.23755293E+01
  1.23755293E+01 -2.47510585E+01  0.00000000E+00  1.23755293E+01  1.23755293E+01
 -2.47510585E+01  0.00000000E+00  1.23755293E+01  1.23755293E+01 -2.47510585E+01
  0.00000000E+00  1.23755293E+01  1.23755293E+01 -2.47510585E+01  0.00000000E+00
  1.23755293E+01  1.23755293E+01 -2.47510585E+01  0.00000000E+00  1.23755293E+01
  1.23755293E+01 -2.47510585E+01  0.00000000E+00  1.23755293E+01  1.23755293E+01
 -2.47510585E+01  0.00000000E+00  1.23755293E+01  1.23755293E+01 -2.47510585E+01
  0.00000000E+00  1.23755293E+01  1.23755293E+01 -2.47510585E+01  0.00000000E+00
  1.23755293E+01  1.23755293E+01 -2.47510585E+01  0.00000000E+00  1.23755293E+01
  1.23755293E+01 -2.47510585E+01  0.00000000E+00  1.23755293E+01  1.23755293E+01
 -2.47510585E+01  0.00000000E+00  1.23755293E+01  1.23755293E+01 -2.47510585E+01
  0.00000000E+00  1.23755293E+01  1.23755293E+01 -2.47510585E+01  0.00000000E+00
  1.23755293E+01  1.23755293E+01 -2.47510585E+01  0.00000000E+00  1.23755293E+01
  1.23755293E+01 -2.47510585E+01  0.00000000E+00  1.23755293E+01  1.23755293E+01
 -2.47510585E+01  0.00000000E+00  1.23755293E+01  1.23755293E+01 -2.47510585E+01
  0.00000000E+00  1.23755293E+01  1.23755293E+01 -2.47510585E+01  0.00000000E+00
  1.23755293E+01  1.23755293E+01 -2.47510585E+01  0.00000000E+00  1.23755293E+01
  1.23755293E+01 -2.47510585E+01  0.00000000E+00  1.23755293E+01  1.23755293E+01
 -2.47510585E+01  0.00000000E+00  1.23755293E+01  1.23755293E+01 -2.47510585E+01
  0.00000000E+00  1.23755293E+01  1.23755293E+01 -2.47510585E+01  0.00000000E+00
  1.23755293E+01  1.23755293E+01 -2.47510585E+01  0.00000000E+00  1.23755293E+01
  1.23755293E+01 -2.47510585E+01  0.00000000E+00  1.23755293E+01  1.23755293E+01
 -2.47510585E+01  0.00000000E+00  1.23755293E+01  1.23755293E+01 -2.47510585E+01
  0.00000000E+00  1.23755293E+01  1.23755293E+01 -2.47510585E+01  0.00000000E+00
  1.23755293E+01  1.23755293E+01 -2.47510585E+01  0.00000000E+00  1.23755293E+01
  1.23755293E+01 -2.47510585E+01  0.00000000E+00  1.23755293E+01  1.23755293E+01
 -2.47510585E+01  0.00000000E+00  1.23755293E+01  1.23755293E+01 -2.47510585E+01
  0.00000000E+00  1.23755293E+01  1.23755293E+01 -2.47510585E+01  0.00000000E+00
  1.23755293E+01  1.23755293E+01 -2.47510585E+01  0.00000000E+00  1.23755293E+01
  1.23755293E+01 -2.47510585E+01  0.00000000E+00  1.23755293E+01  1.23755293E+01
 -2.47510585E+01  0.00000000E+00  1.23755293E+01  1.23755293E+01 -2.47510585E+01
  0.00000000E+00  1.23755293E+01  1.23755293E+01 -2.47510585E+01  0.00000000E+00
  1.23755293E+01  1.23755293E+01 -2.47510585E+01  0.00000000E+00  1.23755293E+01
  1.23755293E+01 -2.47510585E+01  0.00000000E+00  1.23755293E+01  1.23755293E+01
 -2.47510585E+01  0.00000000E+00  1.23755293E+01  1.23755293E+01 -2.47510585E+01
  0.00000000E+00  1.23755293E+01  1.23755293E+01 -2.47510585E+01  0.00000000E+00
  1.23755293E+01  1.23755293E+01 -2.47510585E+01  0.00000000E+00  1.23755293E+01
  1.23755293E+01 -2.47510585E+01  0.00000000E+00  1.23755293E+01  1.23755293E+01
 -2.47510585E+01  0.00000000E+00  1.23755293E+01  1.23755293E+01 -2.47510585E+01
  0.00000000E+00  1.23755293E+01  1.23755293E+01 -2.47510585E+01  0.00000000E+00
  1.23755293E+01  1.23755293E+01 -2.47510585E+01  0.00000000E+00  1.23755293E+01
  1.23755293E+01 -2.47510585E+01  0.00000000E+00  1.23755293E+01  1.23755293E+01
 -2.47510585E+01  0.00000000E+00  1.23755293E+01  1.23755293E+01 -2.47510585E+01
  0.00000000E+00  1.23755293E+01  1.23755293E+01 -2.47510585E+01  0.00000000E+00
  1.23755293E+01  1.23755293E+01 -2.47510585E+01  0.00000000E+00  1.23755293E+01
  1.23755293E+01 -2.47510585E+01  0.00000000E+00  1.23755293E+01  1.23755293E+01
 -2.47510585E+01  0.00000000E+00  1.23755293E+01  1.23755293E+01 -2.47510585E+01
  0.00000000E+00  1.23755293E+01  1.23755293E+01 -2.47510585E+01  0.00000000E+00
  1.23755293E+01  1.23755293E+01 -2.47510585E+01  0.00000000E+00  1.23755293E+01
  1.23755293E+01 -2.47510585E+01  0.00000000E+00  1.23755293E+01  1.23755293E+01
 -2.47510585E+01  0.00000000E+00  1.23755293E+01  1.23755293E+01 -2.47510585E+01
  0.00000000E+00  1.23755293E+01  1.23755293E+01 -2.47510585E+01  0.00000000E+00
  1.23755293E+01  1.23755293E+01 -2.47510585E+01  0.00000000E+00  1.23755293E+01
  1.23755293E+01 -2.47510585E+01  0.00000000E+00  1.23755293E+01  1.23755293E+01
 -2.47510585E+01  0.00000000E+00  1.23755293E+01  1.23755293E+01 -2.47510585E+01
  0.00000000E+00  1.23755293E+01  1.23755293E+01 -2.47510585E+01  0.00000000E+00
  1.23755293E+01  1.23755293E+01 -2.47510585E+01  0.00000000E+00  1.23755293E+01
  1.23755293E+01 -2.47510585E+01  0.00000000E+00  1.23755293E+01  1.23755293E+01
 -2.47510585E+01  0.00000000E+00  1.23755293E+01  1.23755293E+01 -2.47510585E+01
  0.00000000E+00  1.23755293E+01  1.23755293E+01 -2.47510585E+01  0.00000000E+00
  1.23755293E+01  1.23755293E+01 -2.47510585E+01  0.00000000E+00  1.23755293E+01
  1.23755293E+01 -2.47510585E+01  0.00000000E+00  1.23755293E+01  1.23755293E+01
 -2.47510585E+01  0.00000000E+00  1.23755293E+01  1.23755293E+01 -2.47510585E+01
  0.00000000E+00  1.23755293E+01  1.23755293E+01 -2.47510585E+01  0.00000000E+00
  1.23755293E+01  1.23755293E+01 -2.47510585E+01  0.00000000E+00  1.23755293E+01
  1.23755293E+01 -2.47510585E+01  0.00000000E+00  1.23755293E+01  1.23755293E+01
 -2.47510585E+01  0.00000000E+00  1.23755293E+01  1.23755293E+01 -2.47510585E+01
  0.00000000E+00  1.23755293E+01  1.23755293E+01 -2.47510585E+01  0.00000000E+00
  1.23755293E+01  1.23755293E+01 -2.47510585E+01  0.00000000E+00  1.23755293E+01
  1.23755293E+01 -2.47510585E+01  0.00000000E+00  1.23755293E+01  1.23755293E+01
 -2.47510585E+01  0.00000000E+00  1.23755293E+01  1.23755293E+01 -2.47510585E+01
  0.00000000E+00  1.23755293E+01  1.23755293E+01 -2.47510585E+01  0.00000000E+00
  1.23755293E+01  1.23755293E+01 -2.47510585E+01  0.00000000E+00  1.23755293E+01
  1.23755293E+01 -2.47510585E+01  0.00000000E+00  1.23755293E+01  1.23755293E+01
 -2.47510585E+01  0.00000000E+00  1.23755293E+01  1.23755293E+01 -2.47510585E+01
  0.00000000E+00  1.23755293E+01  1.23755293E+01 -2.47510585E+01  0.00000000E+00
  1.23755293E+01  1.23755293E+01 -2.47510585E+01  0.00000000E+00  1.23755293E+01
  1.23755293E+01 -2.47510585E+01  0.00000000E+00  1.23755293E+01  1.23755293E+01
 -2.47510585E+01  0.00000000E+00  1.23755293E+01  1.23755293E+01 -2.47510585E+01
  0.00000000E+00  1.23755293E+01  1.23755293E+01 -2.47510585E+01  0.00000000E+00
  1.23755293E+01  1.23755293E+01 -2.47510585E+01  0.00000000E+00  1.23755293E+01
  1.23755293E+01 -2.47510585E+01  0.00000000E+00  1.23755293E+01  1.23755293E+01
 -2.47510585E+01  0.00000000E+00  1.23755293E+01  1.23755293E+01 -2.47510585E+01
  0.00000000E+00  1.23755293E+01  1.23755293E+01 -2.47510585E+01  0.00000000E+00
  1.23755293E+01  1.23755293E+01 -2.47510585E+01  0.00000000E+00  1.23755293E+01
  1.23755293E+01 -2.47510585E+01  0.00000000E+00  1.23755293E+01  1.23755293E+01
 -2.47510585E+01  0.00000000E+00  1.23755293E+01  1.23755293E+01 -2.47510585E+01
  0.00000000E+00  1.23755293E+01  1.23755293E+01 -2.47510585E+01  0.00000000E+00
  1.23755293E+01  1.23755293E+01 -2.47510585E+01  0.00000000E+00  1.23755293E+01
  1.23755293E+01 -2.47510585E+01  0.00000000E+00  1.23755293E+01  1.23755293E+01
 -2.47510585E+01  0.00000000E+00  1.23755293E+01  1.23755293E+01 -2.47510585E+01
  0.00000000E+00  1.23755293E+01  1.23755293E+01 -2.47510585E+01  0.00000000E+00
  1.23755293E+01  1.23755293E+01 -2.47510585E+01  0.00000000E+00  1.23755293E+01
  1.23755293E+01 -2.47510585E+01  0.00000000E+00  1.23755293E+01  1.23755293E+01
 -2.47510585E+01  0.00000000E+00  1.23755293E+01  1.23755293E+01 -2.47510585E+01
  0.00000000E+00  1.23755293E+01  1.23755293E+01 -2.47510585E+01  0.00000000E+00
  1.23755293E+01  1.23755293E+01 -2.47510585E+01  0.00000000E+00  1.23755293E+01
  1.23755293E+01 -2.47510585E+01  0.00000000E+00  1.23755293E+01  1.23755293E+01
 -2.47510585E+01  0.00000000E+00  1.23755293E+01  1.23755293E+01 -2.47510585E+01
  0.00000000E+00  1.23755293E+01  1.23755293E+01 -2.47510585E+01  0.00000000E+00
  1.23755293E+01  1.23755293E+01 -2.47510585E+01  0.00000000E+00  1.23755293E+01
  1.23755293E+01 -2.47510585E+01  0.00000000E+00  1.23755293E+01  1.23755293E+01
 -2.47510585E+01  0.00000000E+00  1.23755293E+01  1.23755293E+01 -2.47510585E+01
  0.00000000E+00  1.23755293E+01  1.23755293E+01 -2.47510585E+01  0.00000000E+00
  1.23755293E+01  1.23755293E+01 -2.47510585E+01  0.00000000E+00  1.23755293E+01
  1.23755293E+01 -2.47510585E+01  0.00000000E+00  1.23755293E+01  1.23755293E+01
 -2.47510585E+01  0.00000000E+00  1.23755293E+01  1.23755293E+01 -2.47510585E+01
  0.00000000E+00  1.23755293E+01  1.23755293E+01 -2.47510585E+01  0.00000000E+00
  1.23755293E+01  1.23755293E+01 -2.47510585E+01  0.00000000E+00  1.23755293E+01
  1.23755293E+01 -2.47510585E+01  0.00000000E+00  1.23755293E+01  1.23755293E+01
 -2.47510585E+01  0.00000000E+00  1.23755293E+01  1.23755293E+01 -2.47510585E+01
  0.00000000E+00  1.23755293E+01  1.23755293E+01 -2.47510585E+01  0.00000000E+00
  1.23755293E+01  1.23755293E+01 -2.47510585E+01  0.00000000E+00  1.23755293E+01
  1.23755293E+01 -2.47510585E+01  0.00000000E+00  1.23755293E+01  1.23755293E+01
 -2.47510585E+01  0.00000000E+00  1.23755293E+01  1.23755293E+01 -2.47510585E+01
  0.00000000E+00  1.23755293E+01  1.23755293E+01 -2.47510585E+01  0.00000000E+00
  1.23755293E+01  1.23755293E+01 -2.47510585E+01  0.00000000E+00  1.23755293E+01
  1.23755293E+01 -2.47510585E+01  0.00000000E+00  1.23755293E+01  1.23755293E+01
 -2.47510585E+01  0.00000000E+00  1.23755293E+01  1.23755293E+01 -2.47510585E+01
  0.00000000E+00  1.23755293E+01  1.23755293E+01 -2.47510585E+01  0.00000000E+00
  1.23755293E+01  1.23755293E+01 -2.47510585E+01  0.00000000E+00  1.23755293E+01
  1.23755293E+01 -2.47510585E+01  0.00000000E+00  1.23755293E+01  1.23755293E+01
 -2.47510585E+01  0.00000000E+00  1.23755293E+01  1.23755293E+01 -2.47510585E+01
  0.00000000E+00  1.23755293E+01  1.23755293E+01 -2.47510585E+01  0.00000000E+00
  1.23755293E+01  1.23755293E+01 -2.47510585E+01  0.00000000E+00  1.23755293E+01
  1.23755293E+01 -2.47510585E+01  0.00000000E+00  1.23755293E+01  1.23755293E+01
 -2.47510585E+01  0.00000000E+00  1.23755293E+01  1.23755293E+01 -2.47510585E+01
  0.00000000E+00  1.23755293E+01  1.23755293E+01 -2.47510585E+01  0.00000000E+00
  1.23755293E+01  1.23755293E+01 -2.47510585E+01  0.00000000E+00  1.23755293E+01
  1.23755293E+01 -2.47510585E+01  0.00000000E+00  1.23755293E+01  1.23755293E+01
 -2.47510585E+01  0.00000000E+00  1.23755293E+01  1.23755293E+01 -2.47510585E+01
  0.00000000E+00  1.23755293E+01  1.23755293E+01 -2.47510585E+01  0.00000000E+00
  1.23755293E+01  1.23755293E+01 -2.47510585E+01  0.00000000E+00  1.23755293E+01
  1.23755293E+01 -2.47510585E+01  0.00000000E+00  1.23755293E+01  1.23755293E+01
 -2.47510585E+01  0.00000000E+00  1.23755293E+01  1.23755293E+01 -2.47510585E+01
  0.00000000E+00  1.23755293E+01  1.23755293E+01 -2.47510585E+01  0.00000000E+00
  1.23755293E+01  1.23755293E+01 -2.47510585E+01  0.00000000E+00  1.23755293E+01
  1.23755293E+01 -2.47510585E+01  0.00000000E+00  1.23755293E+01  1.23755293E+01
 -2.47510585E+01  0.00000000E+00  1.23755293E+01  1.23755293E+01 -2.47510585E+01
  0.00000000E+00  1.23755293E+01  1.23755293E+01 -2.47510585E+01  0.00000000E+00
  1.23755293E+01  1.23755293E+01 -2.47510585E+01  0.00000000E+00  1.23755293E+01
  1.23755293E+01 -2.47510585E+01  0.00000000E+00  1.23755293E+01  1.23755293E+01
 -2.47510585E+01  0.00000000E+00  1.23755293E+01  1.23755293E+01 -2.47510585E+01
  0.00000000E+00  1.23755293E+01  1.23755293E+01 -2.47510585E+01  0.00000000E+00
  1.23755293E+01  1.23755293E+01 -2.47510585E+01  0.00000000E+00  1.23755293E+01
  1.23755293E+01 -2.47510585E+01  0.00000000E+00  1.23755293E+01  1.23755293E+01
 -2.47510585E+01  0.00000000E+00  1.23755293E+01  1.23755293E+01 -2.47510585E+01
  0.00000000E+00  1.23755293E+01  1.23755293E+01 -2.47510585E+01  0.00000000E+00
  1.23755293E+01  1.23755293E+01 -2.47510585E+01  0.00000000E+00  1.23755293E+01
  1.23755293E+01 -2.47510585E+01  0.00000000E+00  1.23755293E+01  1.23755293E+01
 -2.47510585E+01  0.00000000E+00  1.23755293E+01  1.23755293E+01 -2.47510585E+01
  0.00000000E+00  1.23755293E+01  1.23755293E+01 -2.47510585E+01  0.00000000E+00
  1.23755293E+01  1.23755293E+01 -2.47510585E+01  0.00000000E+00  1.23755293E+01
  1.23755293E+01 -2.47510585E+01  0.00000000E+00  1.23755293E+01  1.23755293E+01
 -2.47510585E+01  0.00000000E+00  1.23755293E+01  1.23755293E+01 -2.47510585E+01
  0.00000000E+00  1.23755293E+01  1.23755293E+01 -2.47510585E+01  0.00000000E+00
  1.23755293E+01  1.23755293E+01 -2.47510585E+01  0.00000000E+00  1.23755293E+01
  1.23755293E+01 -2.47510585E+01  0.00000000E+00  1.23755293E+01  1.23755293E+01
 -2.47510585E+01  0.00000000E+00  1.23755293E+01  1.23755293E+01 -2.47510585E+01
  0.00000000E+00  1.23755293E+01  1.23755293E+01 -2.47510585E+01  0.00000000E+00
  1.23755293E+01  1.23755293E+01 -2.47510585E+01  0.00000000E+00  1.23755293E+01
  1.23755293E+01 -2.47510585E+01  0.00000000E+00  1.23755293E+01  1.23755293E+01
 -2.47510585E+01  0.00000000E+00  1.23755293E+01  1.23755293E+01 -2.47510585E+01
  0.00000000E+00  1.23755293E+01  1.23755293E+01 -2.47510585E+01  0.00000000E+00
  1.23755293E+01  1.23755293E+01 -2.47510585E+01  0.00000000E+00  1.23755293E+01
  1.23755293E+01 -2.47510585E+01  0.00000000E+00  1.23755293E+01  1.23755293E+01
 -2.47510585E+01  0.00000000E+00  1.23755293E+01  1.23755293E+01 -2.47510585E+01
  0.00000000E+00  1.23755293E+01  1.23755293E+01 -2.47510585E+01  0.00000000E+00
  1.23755293E+01  1.23755293E+01 -2.47510585E+01  0.00000000E+00  1.23755293E+01
  1.23755293E+01 -2.47510585E+01  0.00000000E+00  1.23755293E+01  1.23755293E+01
 -2.47510585E+01  0.00000000E+00  1.23755293E+01  1.23755293E+01 -2.47510585E+01
  0.00000000E+00  1.23755293E+01  1.23755293E+01 -2.47510585E+01  0.00000000E+00
  1.23755293E+01  1.23755293E+01 -2.47510585E+01  0.00000000E+00  1.23755293E+01
  1.23755293E+01 -2.47510585E+01  0.00000000E+00  1.23755293E+01  1.23755293E+01
 -2.47510585E+01  0.00000000E+00  1.23755293E+01  1.23755293E+01 -2.47510585E+01
  0.00000000E+00  1.23755293E+01  1.23755293E+01 -2.47510585E+01  0.00000000E+00
  1.23755293E+01  1.23755293E+01 -2.47510585E+01  0.00000000E+00  1.23755293E+01
  1.23755293E+01 -2.47510585E+01  0.00000000E+00  1.23755293E+01  1.23755293E+01
 -2.47510585E+01  0.00000000E+00  1.23755293E+01  1.23755293E+01 -2.47510585E+01
  0.00000000E+00  1.23755293E+01  1.23755293E+01 -2.47510585E+01  0.00000000E+00
  1.23755293E+01  1.23755293E+01 -2.47510585E+01  0.00000000E+00  1.23755293E+01
  1.23755293E+01 -2.47510585E+01  0.00000000E+00  1.23755293E+01  1.23755293E+01
 -2.47510585E+01  0.00000000E+00  1.23755293E+01  1.23755293E+01 -2.47510585E+01
  0.00000000E+00  1.23755293E+01  1.23755293E+01 -2.47510585E+01  0.00000000E+00
  1.23755293E+01  1.23755293E+01 -2.47510585E+01  0.00000000E+00  1.23755293E+01
  1.23755293E+01 -2.47510585E+01  0.00000000E+00  1.23755293E+01  1.23755293E+01
 -2.47510585E+01  0.00000000E+00  1.23755293E+01  1.23755293E+01 -2.47510585E+01
  0.00000000E+00  1.23755293E+01  1.23755293E+01 -2.47510585E+01  0.00000000E+00
  1.23755293E+01  1.23755293E+01 -2.47510585E+01  0.00000000E+00  1.23755293E+01
  1.23755293E+01 -2.47510585E+01  0.00000000E+00  1.23755293E+01  1.23755293E+01
 -2.47510585E+01  0.00000000E+00  1.23755293E+01  1.23755293E+01 -2.47510585E+01
  0.00000000E+00  1.23755293E+01  1.23755293E+01 -2.47510585E+01  0.00000000E+00
  1.23755293E+01  1.23755293E+01 -2.47510585E+01  0.00000000E+00  1.23755293E+01
  1.23755293E+01 -2.47510585E+01  0.00000000E+00  1.23755293E+01  1.23755293E+01
 -2.47510585E+01  0.00000000E+00  1.23755293E+01  1.23755293E+01 -2.47510585E+01
  0.00000000E+00  1.23755293E+01  1.23755293E+01 -2.47510585E+01  0.00000000E+00
  1.23755293E+01  1.23755293E+01 -2.47510585E+01  0.00000000E+00  1.23755293E+01
  1.23755293E+01 -2.47510585E+01  0.00000000E+00  1.23755293E+01  1.23755293E+01
 -2.47510585E+01  0.00000000E+00  1.23755293E+01  1.23755293E+01 -2.47510585E+01
  0.00000000E+00  1.23755293E+01  1.23755293E+01 -2.47510585E+01  0.00000000E+00
  1.23755293E+01  1.23755293E+01 -2.47510585E+01  0.00000000E+00  1.23755293E+01
  1.23755293E+01 -2.47510585E+01  0.00000000E+00  1.23755293E+01  1.23755293E+01
 -2.47510585E+01  0.00000000E+00  1.23755293E+01  1.23755293E+01 -2.47510585E+01
  0.00000000E+00  1.23755293E+01  1.23755293E+01 -2.47510585E+01  0.00000000E+00
  1.23755293E+01  1.23755293E+01 -2.47510585E+01  0.00000000E+00  1.23755293E+01
  1.23755293E+01 -2.47510585E+01  0.00000000E+00  1.23755293E+01  1.23755293E+01
 -2.47510585E+01  0.00000000E+00  1.23755293E+01  1.23755293E+01 -2.47510585E+01
  0.00000000E+00  1.23755293E+01  1.23755293E+01 -2.47510585E+01  0.00000000E+00
  1.23755293E+01  1.23755293E+01 -2.47510585E+01  0.00000000E+00  1.23755293E+01
  1.23755293E+01 -2.47510585E+01  0.00000000E+00  1.23755293E+01  1.23755293E+01
 -2.47510585E+01  0.00000000E+00  1.23755293E+01  1.23755293E+01 -2.47510585E+01
  0.00000000E+00  1.23755293E+01  1.23755293E+01 -2.47510585E+01  0.00000000E+00
  1.23755293E+01  1.23755293E+01 -2.47510585E+01  0.00000000E+00  1.23755293E+01
  1.23755293E+01 -2.47510585E+01  0.00000000E+00  1.23755293E+01  1.23755293E+01
 -2.47510585E+01  0.00000000E+00  1.23755293E+01  1.23755293E+01 -2.47510585E+01
  0.00000000E+00  1.23755293E+01  1.23755293E+01 -2.47510585E+01  0.00000000E+00
  1.23755293E+01  1.23755293E+01 -2.47510585E+01  0.00000000E+00  1.23755293E+01
  1.23755293E+01 -2.47510585E+01  0.00000000E+00  1.23755293E+01  1.23755293E+01
 -2.47510585E+01  0.00000000E+00  1.23755293E+01  1.23755293E+01 -2.47510585E+01
  0.00000000E+00  1.23755293E+01  1.23755293E+01 -2.47510585E+01  0.00000000E+00
  1.23755293E+01  1.23755293E+01 -2.47510585E+01  0.00000000E+00  1.23755293E+01
  1.23755293E+01 -2.47510585E+01  0.00000000E+00  1.23755293E+01  1.23755293E+01
 -2.47510585E+01  0.00000000E+00  1.23755293E+01  1.23755293E+01 -2.47510585E+01
  0.00000000E+00  1.23755293E+01  1.23755293E+01 -2.47510585E+01  0.00000000E+00
  1.23755293E+01  1.23755293E+01 -2.47510585E+01  0.00000000E+00  1.23755293E+01
  1.23755293E+01 -2.47510585E+01  0.00000000E+00  1.23755293E+01  1.23755293E+01
 -2.47510585E+01  0.00000000E+00  1.23755293E+01  1.23755293E+01 -2.47510585E+01
  0.00000000E+00  1.23755293E+01  1.23755293E+01 -2.47510585E+01  0.00000000E+00
  1.23755293E+01  1.23755293E+01 -2.47510585E+01  0.00000000E+00  1.23755293E+01
  1.23755293E+01 -2.47510585E+01  0.00000000E+00  1.23755293E+01  1.23755293E+01
 -2.47510585E+01  0.00000000E+00  1.23755293E+01  1.23755293E+01 -2.47510585E+01
  0.00000000E+00  1.23755293E+01  1.23755293E+01 -2.47510585E+01  0.00000000E+00
  1.23755293E+01  1.23755293E+01 -2.47510585E+01  0.00000000E+00  1.23755293E+01
  1.23755293E+01 -2.47510585E+01  0.00000000E+00  1.23755293E+01  1.23755293E+01
 -2.47510585E+01  0.00000000E+00  1.23755293E+01  1.23755293E+01 -2.47510585E+01
  0.00000000E+00  1.23755293E+01  1.23755293E+01 -2.47510585E+01  0.00000000E+00
  1.23755293E+01  1.23755293E+01 -2.47510585E+01  0.00000000E+00  1.23755293E+01
  1.23755293E+01 -2.47510585E+01  0.00000000E+00  1.23755293E+01  1.23755293E+01
 -2.47510585E+01  0.00000000E+00  1.23755293E+01  1.23755293E+01 -2.47510585E+01
  0.00000000E+00  1.23755293E+01  1.23755293E+01 -2.47510585E+01  0.00000000E+00
  1.23755293E+01  1.23755293E+01 -2.47510585E+01  0.00000000E+00  1.23755293E+01
  1.23755293E+01 -2.47510585E+01  0.00000000E+00  1.23755293E+01  1.23755293E+01
 -2.47510585E+01  0.00000000E+00  1.23755293E+01  1.23755293E+01 -2.47510585E+01
  0.00000000E+00  1.23755293E+01  1.23755293E+01 -2.47510585E+01  0.00000000E+00
  1.23755293E+01  1.23755293E+01 -2.47510585E+01  0.00000000E+00  1.23755293E+01
  1.23755293E+01 -2.47510585E+01  0.00000000E+00  1.23755293E+01  1.23755293E+01
 -2.47510585E+01  0.00000000E+00  1.23755293E+01  1.23755293E+01 -2.47510585E+01
  0.00000000E+00  1.23755293E+01  1.23755293E+01 -2.47510585E+01  0.00000000E+00
  1.23755293E+01  1.23755293E+01 -2.47510585E+01  0.00000000E+00  1.23755293E+01
  1.23755293E+01 -2.47510585E+01  0.00000000E+00  1.23755293E+01  1.23755293E+01
 -2.47510585E+01  0.00000000E+00  1.23755293E+01  1.23755293E+01 -2.47510585E+01
  0.00000000E+00  1.23755293E+01  1.23755293E+01 -2.47510585E+01  0.00000000E+00
  1.23755293E+01  1.23755293E+01 -2.47510585E+01  0.00000000E+00  1.23755293E+01
  1.23755293E+01 -2.47510585E+01  0.00000000E+00  1.23755293E+01  1.23755293E+01
 -2.47510585E+01  0.00000000E+00  1.23755293E+01  1.23755293E+01 -2.47510585E+01
  0.00000000E+00  1.23755293E+01  1.23755293E+01 -2.47510585E+01  0.00000000E+00
  1.23755293E+01  1.23755293E+01 -2.47510585E+01  0.00000000E+00  1.23755293E+01
  1.23755293E+01 -2.47510585E+01  0.00000000E+00  1.23755293E+01  1.23755293E+01
 -2.47510585E+01  0.00000000E+00  1.23755293E+01  1.23755293E+01 -2.47510585E+01
  0.00000000E+00  1.23755293E+01  1.23755293E+01 -2.47510585E+01  0.00000000E+00
  1.23755293E+01  1.23755293E+01 -2.47510585E+01  0.00000000E+00  1.23755293E+01
  1.23755293E+01 -2.47510585E+01  0.00000000E+00  1.23755293E+01  1.23755293E+01
 -2.47510585E+01  0.00000000E+00  1.23755293E+01  1.23755293E+01 -2.47510585E+01
  0.00000000E+00  1.23755293E+01  1.23755293E+01 -2.47510585E+01  0.00000000E+00
  1.23755293E+01  1.23755293E+01 -2.47510585E+01  0.00000000E+00  1.23755293E+01
  1.23755293E+01 -2.47510585E+01  0.00000000E+00  1.23755293E+01  1.23755293E+01
 -2.47510585E+01  0.00000000E+00  1.23755293E+01  1.23755293E+01 -2.47510585E+01
  0.00000000E+00  1.23755293E+01  1.23755293E+01 -2.47510585E+01  0.00000000E+00
  1.23755293E+01  1.23755293E+01 -2.47510585E+01  0.00000000E+00  1.23755293E+01
  1.23755293E+01 -2.47510585E+01  0.00000000E+00  1.23755293E+01  1.23755293E+01
 -2.47510585E+01  0.00000000E+00  1.23755293E+01  1.23755293E+01 -2.47510585E+01
  0.00000000E+00  1.23755293E+01  1.23755293E+01 -2.47510585E+01  0.00000000E+00
  1.23755293E+01  1.23755293E+01 -2.47510585E+01  0.00000000E+00  1.23755293E+01
  1.23755293E+01 -2.47510585E+01  0.00000000E+00  1.23755293E+01  1.23755293E+01
 -2.47510585E+01  0.00000000E+00  1.23755293E+01  1.23755293E+01 -2.47510585E+01
  0.00000000E+00  1.23755293E+01  1.23755293E+01 -2.47510585E+01  0.00000000E+00
  1.23755293E+01  1.23755293E+01 -2.47510585E+01  0.00000000E+00  1.23755293E+01
  1.23755293E+01 -2.47510585E+01  0.00000000E+00  1.23755293E+01  1.23755293E+01
 -2.47510585E+01  0.00000000E+00  1.23755293E+01  1.23755293E+01 -2.47510585E+01
  0.00000000E+00  1.23755293E+01  1.23755293E+01 -2.47510585E+01  0.00000000E+00
  1.23755293E+01  1.23755293E+01 -2.47510585E+01  0.00000000E+00  1.23755293E+01
  1.23755293E+01 -2.47510585E+01  0.00000000E+00  1.23755293E+01  1.23755293E+01
 -2.47510585E+01  0.00000000E+00  1.23755293E+01  1.23755293E+01 -2.47510585E+01
  0.00000000E+00  1.23755293E+01  1.23755293E+01 -2.47510585E+01  0.00000000E+00
  1.23755293E+01  1.23755293E+01 -2.47510585E+01  0.00000000E+00  1.23755293E+01
  1.23755293E+01 -2.47510585E+01  0.00000000E+00  1.23755293E+01  1.23755293E+01
 -2.47510585E+01  0.00000000E+00  1.23755293E+01  1.23755293E+01 -2.47510585E+01
  0.00000000E+00  1.23755293E+01  1.23755293E+01 -2.47510585E+01  0.00000000E+00
  1.23755293E+01  1.23755293E+01 -2.47510585E+01  0.00000000E+00  1.23755293E+01
  1.23755293E+01 -2.47510585E+01  0.00000000E+00  1.23755293E+01  1.23755293E+01
 -2.47510585E+01  0.00000000E+00  1.23755293E+01  1.23755293E+01 -2.47510585E+01
  0.00000000E+00  1.23755293E+01  1.23755293E+01 -2.47510585E+01  0.00000000E+00
  1.23755293E+01  1.23755293E+01 -2.47510585E+01  0.00000000E+00  1.23755293E+01
  1.23755293E+01 -2.47510585E+01  0.00000000E+00  1.23755293E+01  1.23755293E+01
 -2.47510585E+01  0.00000000E+00  1.23755293E+01  1.23755293E+01 -2.47510585E+01
  0.00000000E+00  1.23755293E+01  1.23755293E+01 -2.47510585E+01  0.00000000E+00
  1.23755293E+01  1.23755293E+01 -2.47510585E+01  0.00000000E+00  1.23755293E+01
  1.23755293E+01 -2.47510585E+01  0.00000000E+00  1.23755293E+01  1.23755293E+01
 -2.47510585E+01  0.00000000E+00  1.23755293E+01  1.23755293E+01 -2.47510585E+01
  0.00000000E+00  1.23755293E+01  1.23755293E+01 -2.47510585E+01  0.00000000E+00
  1.23755293E+01  1.23755293E+01 -2.47510585E+01  0.00000000E+00  1.23755293E+01
  1.23755293E+01 -2.47510585E+01  0.00000000E+00  1.23755293E+01  1.23755293E+01
 -2.47510585E+01  0.00000000E+00  1.23755293E+01  1.23755293E+01 -2.47510585E+01
  0.00000000E+00  1.23755293E+01  1.23755293E+01 -2.47510585E+01  0.00000000E+00
  1.23755293E+01  1.23755293E+01 -2.47510585E+01  0.00000000E+00  1.23755293E+01
  1.23755293E+01 -2.47510585E+01  0.00000000E+00  1.23755293E+01  1.23755293E+01
 -2.47510585E+01  0.00000000E+00  1.23755293E+01  1.23755293E+01 -2.47510585E+01
  0.00000000E+00  1.23755293E+01  1.23755293E+01 -2.47510585E+01  0.00000000E+00
  1.23755293E+01  1.23755293E+01 -2.47510585E+01  0.00000000E+00  1.23755293E+01
  1.23755293E+01 -2.47510585E+01  0.00000000E+00  1.23755293E+01  1.23755293E+01
 -2.47510585E+01  0.00000000E+00  1.23755293E+01  1.23755293E+01 -2.47510585E+01
  0.00000000E+00  1.23755293E+01  1.23755293E+01 -2.47510585E+01  0.00000000E+00
  1.23755293E+01  1.23755293E+01 -2.47510585E+01  0.00000000E+00  1.23755293E+01
  1.23755293E+01 -2.47510585E+01  0.00000000E+00  1.23755293E+01  1.23755293E+01
 -2.47510585E+01  0.00000000E+00  1.23755293E+01  1.23755293E+01 -2.47510585E+01
  0.00000000E+00  1.23755293E+01  1.23755293E+01 -2.47510585E+01  0.00000000E+00
  1.23755293E+01  1.23755293E+01 -2.47510585E+01  0.00000000E+00  1.23755293E+01
  1.23755293E+01 -2.47510585E+01  0.00000000E+00  1.23755293E+01  1.23755293E+01
 -2.47510585E+01  0.00000000E+00  1.23755293E+01  1.23755293E+01 -2.47510585E+01
  0.00000000E+00  1.23755293E+01  1.23755293E+01 -2.47510585E+01  0.00000000E+00
  1.23755293E+01  1.23755293E+01 -2.47510585E+01  0.00000000E+00  1.23755293E+01
  1.23755293E+01 -2.47510585E+01  0.00000000E+00  1.23755293E+01  1.23755293E+01
 -2.47510585E+01  0.00000000E+00  1.23755293E+01  1.23755293E+01 -2.47510585E+01
  0.00000000E+00  1.23755293E+01  1.23755293E+01 -2.47510585E+01  0.00000000E+00
  1.23755293E+01  1.23755293E+01 -2.47510585E+01  0.00000000E+00  1.23755293E+01
  1.23755293E+01 -2.47510585E+01  0.00000000E+00  1.23755293E+01  1.23755293E+01
 -2.47510585E+01  0.00000000E+00  1.23755293E+01  1.23755293E+01 -2.47510585E+01
  0.00000000E+00  1.23755293E+01  1.23755293E+01 -2.47510585E+01  0.00000000E+00
  1.23755293E+01  1.23755293E+01 -2.47510585E+01  0.00000000E+00  1.23755293E+01
  1.23755293E+01 -2.47510585E+01  0.00000000E+00  1.23755293E+01  1.23755293E+01
 -2.47510585E+01  0.00000000E+00  1.23755293E+01  1.23755293E+01 -2.47510585E+01
  0.00000000E+00  1.23755293E+01  1.23755293E+01 -2.47510585E+01  0.00000000E+00
  1.23755293E+01  1.23755293E+01 -2.47510585E+01  0.00000000E+00  1.23755293E+01
  1.23755293E+01 -2.47510585E+01  0.00000000E+00  1.23755293E+01  1.23755293E+01
 -2.47510585E+01  0.00000000E+00  1.23755293E+01  1.23755293E+01 -2.47510585E+01
  0.00000000E+00  1.23755293E+01  1.23755293E+01 -2.47510585E+01  0.00000000E+00
  1.23755293E+01  1.23755293E+01 -2.47510585E+01  0.00000000E+00  1.23755293E+01
  1.23755293E+01 -2.47510585E+01  0.00000000E+00  1.23755293E+01  1.23755293E+01
 -2.47510585E+01  0.00000000E+00  1.23755293E+01  1.23755293E+01 -2.47510585E+01
  0.00000000E+00  1.23755293E+01  1.23755293E+01 -2.47510585E+01  0.00000000E+00
  1.23755293E+01  1.23755293E+01 -2.47510585E+01  0.00000000E+00  1.23755293E+01
  1.23755293E+01 -2.47510585E+01  0.00000000E+00  1.23755293E+01  1.23755293E+01
 -2.47510585E+01  0.00000000E+00  1.23755293E+01  1.23755293E+01 -2.47510585E+01
  0.00000000E+00  1.23755293E+01  1.23755293E+01 -2.47510585E+01  0.00000000E+00
  1.23755293E+01  1.23755293E+01 -2.47510585E+01  0.00000000E+00  1.23755293E+01
  1.23755293E+01 -2.47510585E+01  0.00000000E+00  1.23755293E+01  1.23755293E+01
 -2.47510585E+01  0.00000000E+00  1.23755293E+01  1.23755293E+01 -2.47510585E+01
  0.00000000E+00  1.23755293E+01  1.23755293E+01 -2.47510585E+01  0.00000000E+00
  1.23755293E+01  1.23755293E+01 -2.47510585E+01  0.00000000E+00  1.23755293E+01
  1.23755293E+01 -2.47510585E+01  0.00000000E+00  1.23755293E+01  1.23755293E+01
 -2.47510585E+01  0.00000000E+00  1.23755293E+01  1.23755293E+01 -2.47510585E+01
  0.00000000E+00  1.23755293E+01  1.23755293E+01 -2.47510585E+01  0.00000000E+00
  1.23755293E+01  1.23755293E+01 -2.47510585E+01  0.00000000E+00  1.23755293E+01
  1.23755293E+01 -2.47510585E+01  0.00000000E+00  1.23755293E+01  1.23755293E+01
 -2.47510585E+01  0.00000000E+00  1.23755293E+01  1.23755293E+01 -2.47510585E+01
  0.00000000E+00  1.23755293E+01  1.23755293E+01 -2.47510585E+01  0.00000000E+00
  1.23755293E+01  1.23755293E+01 -2.47510585E+01  0.00000000E+00  1.23755293E+01
  1.23755293E+01 -2.47510585E+01  0.00000000E+00  1.23755293E+01  1.23755293E+01
 -2.47510585E+01  0.00000000E+00  1.23755293E+01  1.23755293E+01 -2.47510585E+01
  0.00000000E+00  1.23755293E+01  1.23755293E+01 -2.47510585E+01  0.00000000E+00
  1.23755293E+01  1.23755293E+01 -2.47510585E+01  0.00000000E+00  1.23755293E+01
  1.23755293E+01 -2.47510585E+01  0.00000000E+00  1.23755293E+01  1.23755293E+01
 -2.47510585E+01  0.00000000E+00  1.23755293E+01  1.23755293E+01 -2.47510585E+01
  0.00000000E+00  1.23755293E+01  1.23755293E+01 -2.47510585E+01  0.00000000E+00
  1.23755293E+01  1.23755293E+01 -2.47510585E+01  0.00000000E+00  1.23755293E+01
  1.23755293E+01 -2.47510585E+01  0.00000000E+00  1.23755293E+01  1.23755293E+01
 -2.47510585E+01  0.00000000E+00  1.23755293E+01  1.23755293E+01 -2.47510585E+01
  0.00000000E+00  1.23755293E+01  1.23755293E+01 -2.47510585E+01  0.00000000E+00
  1.23755293E+01  1.23755293E+01 -2.47510585E+01  0.00000000E+00  1.23755293E+01
  1.23755293E+01 -2.47510585E+01  0.00000000E+00  1.23755293E+01  1.23755293E+01
 -2.47510585E+01  0.00000000E+00  1.23755293E+01  1.23755293E+01 -2.47510585E+01
  0.00000000E+00  1.23755293E+01  1.23755293E+01 -2.47510585E+01  0.00000000E+00
  1.23755293E+01  1.23755293E+01 -2.47510585E+01  0.00000000E+00  1.23755293E+01
  1.23755293E+01 -2.47510585E+01  0.00000000E+00  1.23755293E+01  1.23755293E+01
 -2.47510585E+01  0.00000000E+00  1.23755293E+01  1.23755293E+01 -2.47510585E+01
  0.00000000E+00  1.23755293E+01  1.23755293E+01 -2.47510585E+01  0.00000000E+00
  1.23755293E+01  1.23755293E+01 -2.47510585E+01  0.00000000E+00  1.23755293E+01
  1.23755293E+01 -2.47510585E+01  0.00000000E+00  1.23755293E+01  1.23755293E+01
 -2.47510585E+01  0.00000000E+00  1.23755293E+01  1.23755293E+01 -2.47510585E+01
  0.00000000E+00  1.23755293E+01  1.23755293E+01 -2.47510585E+01  0.00000000E+00
  1.23755293E+01  1.23755293E+01 -2.47510585E+01  0.00000000E+00  1.23755293E+01
  1.23755293E+01 -2.47510585E+01  0.00000000E+00  1.23755293E+01  1.23755293E+01
 -2.47510585E+01  0.00000000E+00  1.23755293E+01  1.23755293E+01 -2.47510585E+01
  0.00000000E+00  1.23755293E+01  1.23755293E+01 -2.47510585E+01  0.00000000E+00
  1.23755293E+01  1.23755293E+01 -2.47510585E+01  0.00000000E+00  1.23755293E+01
  1.23755293E+01 -2.47510585E+01  0.00000000E+00  1.23755293E+01  1.23755293E+01
 -2.47510585E+01  0.00000000E+00  1.23755293E+01  1.23755293E+01 -2.47510585E+01
  0.00000000E+00  1.23755293E+01  1.23755293E+01 -2.47510585E+01  0.00000000E+00
  1.23755293E+01  1.23755293E+01 -2.47510585E+01  0.00000000E+00  1.23755293E+01
  1.23755293E+01 -2.47510585E+01  0.00000000E+00  1.23755293E+01  1.23755293E+01
 -2.47510585E+01  0.00000000E+00  1.23755293E+01  1.23755293E+01 -2.47510585E+01
  0.00000000E+00  1.23755293E+01  1.23755293E+01 -2.47510585E+01  0.00000000E+00
  1.23755293E+01  1.23755293E+01 -2.47510585E+01  0.00000000E+00  1.23755293E+01
  1.23755293E+01 -2.47510585E+01  0.00000000E+00  1.23755293E+01  1.23755293E+01
 -2.47510585E+01  0.00000000E+00  1.23755293E+01  1.23755293E+01 -2.47510585E+01
  0.00000000E+00  1.23755293E+01  1.23755293E+01 -2.47510585E+01  0.00000000E+00
  1.23755293E+01  1.23755293E+01 -2.47510585E+01  0.00000000E+00  1.23755293E+01
  1.23755293E+01 -2.47510585E+01  0.00000000E+00  1.23755293E+01  1.23755293E+01
 -2.47510585E+01  0.00000000E+00  1.23755293E+01  1.23755293E+01 -2.47510585E+01
  0.00000000E+00  1.23755293E+01  1.23755293E+01 -2.47510585E+01  0.00000000E+00
  1.23755293E+01  1.23755293E+01 -2.47510585E+01  0.00000000E+00  1.23755293E+01
  1.23755293E+01 -2.47510585E+01  0.00000000E+00  1.23755293E+01  1.23755293E+01
 -2.47510585E+01  0.00000000E+00  1.23755293E+01  1.23755293E+01 -2.47510585E+01
  0.00000000E+00  1.23755293E+01  1.23755293E+01 -2.47510585E+01  0.00000000E+00
  1.23755293E+01  1.23755293E+01 -2.47510585E+01  0.00000000E+00  1.23755293E+01
  1.23755293E+01 -2.47510585E+01  0.00000000E+00  1.23755293E+01  1.23755293E+01
 -2.47510585E+01  0.00000000E+00  1.23755293E+01  1.23755293E+01 -2.47510585E+01
  0.00000000E+00  1.23755293E+01  1.23755293E+01 -2.47510585E+01  0.00000000E+00
  1.23755293E+01  1.23755293E+01 -2.47510585E+01  0.00000000E+00  1.23755293E+01
  1.23755293E+01 -2.47510585E+01  0.00000000E+00  1.23755293E+01  1.23755293E+01
 -2.47510585E+01  0.00000000E+00  1.23755293E+01  1.23755293E+01 -2.47510585E+01
  0.00000000E+00  1.23755293E+01  1.23755293E+01 -2.47510585E+01  0.00000000E+00
  1.23755293E+01  1.23755293E+01 -2.47510585E+01  0.00000000E+00  1.23755293E+01
  1.23755293E+01 -2.47510585E+01  0.00000000E+00  1.23755293E+01  1.23755293E+01
 -2.47510585E+01  0.00000000E+00  1.23755293E+01  1.23755293E+01 -2.47510585E+01
  0.00000000E+00  1.23755293E+01  1.23755293E+01 -2.47510585E+01  0.00000000E+00
  1.23755293E+01  1.23755293E+01 -2.47510585E+01  0.00000000E+00  1.23755293E+01
  1.23755293E+01 -2.47510585E+01  0.00000000E+00  1.23755293E+01  1.23755293E+01
 -2.47510585E+01  0.00000000E+00  1.23755293E+01  1.23755293E+01 -2.47510585E+01
  0.00000000E+00  1.23755293E+01  1.23755293E+01 -2.47510585E+01  0.00000000E+00
  1.23755293E+01  1.23755293E+01 -2.47510585E+01  0.00000000E+00  1.23755293E+01
  1.23755293E+01 -2.47510585E+01  0.00000000E+00  1.23755293E+01  1.23755293E+01
 -2.47510585E+01  0.00000000E+00  1.23755293E+01  1.23755293E+01 -2.47510585E+01
  0.00000000E+00  1.23755293E+01  1.23755293E+01 -2.47510585E+01  0.00000000E+00
  1.23755293E+01  1.23755293E+01 -2.47510585E+01  0.00000000E+00  1.23755293E+01
  1.23755293E+01 -2.47510585E+01  0.00000000E+00  1.23755293E+01  1.23755293E+01
 -2.47510585E+01  0.00000000E+00  1.23755293E+01  1.23755293E+01 -2.47510585E+01
  0.00000000E+00  1.23755293E+01  1.23755293E+01 -2.47510585E+01  0.00000000E+00
  1.23755293E+01  1.23755293E+01 -2.47510585E+01  0.00000000E+00  1.23755293E+01
  1.23755293E+01 -2.47510585E+01  0.00000000E+00  1.23755293E+01  1.23755293E+01
 -2.47510585E+01  0.00000000E+00  1.23755293E+01  1.23755293E+01 -2.47510585E+01
  0.00000000E+00  1.23755293E+01  1.23755293E+01 -2.47510585E+01  0.00000000E+00
  1.23755293E+01  1.23755293E+01 -2.47510585E+01  0.00000000E+00  1.23755293E+01
  1.23755293E+01 -2.47510585E+01  0.00000000E+00  1.23755293E+01  1.23755293E+01
 -2.47510585E+01  0.00000000E+00  1.23755293E+01  1.23755293E+01 -2.47510585E+01
  0.00000000E+00  1.23755293E+01  1.23755293E+01 -2.47510585E+01  0.00000000E+00
  1.23755293E+01  1.23755293E+01 -2.47510585E+01  0.00000000E+00  1.23755293E+01
  1.23755293E+01 -2.47510585E+01  0.00000000E+00  1.23755293E+01  1.23755293E+01
 -2.47510585E+01  0.00000000E+00  1.23755293E+01  1.23755293E+01 -2.47510585E+01
  0.00000000E+00  1.23755293E+01  1.23755293E+01 -2.47510585E+01  0.00000000E+00
  1.23755293E+01  1.23755293E+01 -2.47510585E+01  0.00000000E+00  1.23755293E+01
  1.23755293E+01 -2.47510585E+01  0.00000000E+00  1.23755293E+01  1.23755293E+01
 -2.47510585E+01  0.00000000E+00  1.23755293E+01  1.23755293E+01 -2.47510585E+01
  0.00000000E+00  1.23755293E+01  1.23755293E+01 -2.47510585E+01  0.00000000E+00
  1.23755293E+01  1.23755293E+01 -2.47510585E+01  0.00000000E+00  1.23755293E+01
  1.23755293E+01 -2.47510585E+01  0.00000000E+00  1.23755293E+01  1.23755293E+01
 -2.47510585E+01  0.00000000E+00  1.23755293E+01  1.23755293E+01 -2.47510585E+01
  0.00000000E+00  1.23755293E+01  1.23755293E+01 -2.47510585E+01  0.00000000E+00
  1.23755293E+01  1.23755293E+01 -2.47510585E+01  0.00000000E+00  1.23755293E+01
  1.23755293E+01 -2.47510585E+01  0.00000000E+00  1.23755293E+01  1.23755293E+01
 -2.47510585E+01  0.00000000E+00  1.23755293E+01  1.23755293E+01 -2.47510585E+01
  0.00000000E+00  1.23755293E+01  1.23755293E+01 -2.47510585E+01  0.00000000E+00
  1.23755293E+01  1.23755293E+01 -2.47510585E+01  0.00000000E+00  1.23755293E+01
  1.23755293E+01 -2.47510585E+01  0.00000000E+00  1.23755293E+01  1.23755293E+01
 -2.47510585E+01  0.00000000E+00  1.23755293E+01  1.23755293E+01 -2.47510585E+01
  0.00000000E+00  1.23755293E+01  1.23755293E+01 -2.47510585E+01  0.00000000E+00
  1.23755293E+01  1.23755293E+01 -2.47510585E+01  0.00000000E+00  1.23755293E+01
  1.23755293E+01 -2.47510585E+01  0.00000000E+00  1.23755293E+01  1.23755293E+01
 -2.47510585E+01  0.00000000E+00  1.23755293E+01  1.23755293E+01 -2.47510585E+01
  0.00000000E+00  1.23755293E+01  1.23755293E+01 -2.47510585E+01  0.00000000E+00
  1.23755293E+01  1.23755293E+01 -2.47510585E+01  0.00000000E+00  1.23755293E+01
  1.23755293E+01 -2.47510585E+01  0.00000000E+00  1.23755293E+01  1.23755293E+01
 -2.47510585E+01  0.00000000E+00  1.23755293E+01  1.23755293E+01 -2.47510585E+01
  0.00000000E+00  1.23755293E+01  1.23755293E+01 -2.47510585E+01  0.00000000E+00
  1.23755293E+01  1.23755293E+01 -2.47510585E+01  0.00000000E+00  1.23755293E+01
  1.23755293E+01 -2.47510585E+01  0.00000000E+00  1.23755293E+01  1.23755293E+01
 -2.47510585E+01  0.00000000E+00  1.23755293E+01  1.23755293E+01 -2.47510585E+01
  0.00000000E+00  1.23755293E+01  1.23755293E+01 -2.47510585E+01  0.00000000E+00
  1.23755293E+01  1.23755293E+01 -2.47510585E+01  0.00000000E+00  1.23755293E+01
  1.23755293E+01 -2.47510585E+01  0.00000000E+00  1.23755293E+01  1.23755293E+01
 -2.47510585E+01  0.00000000E+00  1.23755293E+01  1.23755293E+01 -2.47510585E+01
  0.00000000E+00  1.23755293E+01  1.23755293E+01 -2.47510585E+01  0.00000000E+00
  1.23755293E+01  1.23755293E+01 -2.47510585E+01  0.00000000E+00  1.23755293E+01
  1.23755293E+01 -2.47510585E+01  0.00000000E+00  1.23755293E+01  1.23755293E+01
 -2.47510585E+01  0.00000000E+00  1.23755293E+01  1.23755293E+01 -2.47510585E+01
  0.00000000E+00  1.23755293E+01  1.23755293E+01 -2.47510585E+01  0.00000000E+00
  1.23755293E+01  1.23755293E+01 -2.47510585E+01  0.00000000E+00  1.23755293E+01
  1.23755293E+01 -2.47510585E+01  0.00000000E+00  1.23755293E+01  1.23755293E+01
 -2.47510585E+01  0.00000000E+00  1.23755293E+01  1.23755293E+01 -2.47510585E+01
  0.00000000E+00  1.23755293E+01  1.23755293E+01 -2.47510585E+01  0.00000000E+00
  1.23755293E+01  1.23755293E+01 -2.47510585E+01  0.00000000E+00  1.23755293E+01
  1.23755293E+01 -2.47510585E+01  0.00000000E+00  1.23755293E+01  1.23755293E+01
 -2.47510585E+01  0.00000000E+00  1.23755293E+01  1.23755293E+01 -2.47510585E+01
  0.00000000E+00  1.23755293E+01  1.23755293E+01 -2.47510585E+01  0.00000000E+00
  1.23755293E+01  1.23755293E+01 -2.47510585E+01  0.00000000E+00  1.23755293E+01
  1.23755293E+01 -2.47510585E+01  0.00000000E+00  1.23755293E+01  1.23755293E+01
 -2.47510585E+01  0.00000000E+00  1.23755293E+01  1.23755293E+01 -2.47510585E+01
  0.00000000E+00  1.23755293E+01  1.23755293E+01 -2.47510585E+01  0.00000000E+00
  1.23755293E+01  1.23755293E+01 -2.47510585E+01  0.00000000E+00  1.23755293E+01
  1.23755293E+01 -2.47510585E+01  0.00000000E+00  1.23755293E+01  1.23755293E+01
 -2.47510585E+01  0.00000000E+00  1.23755293E+01  1.23755293E+01 -2.47510585E+01
  0.00000000E+00  1.23755293E+01  1.23755293E+01 -2.47510585E+01  0.00000000E+00
  1.23755293E+01  1.23755293E+01 -2.47510585E+01  0.00000000E+00  1.23755293E+01
  1.23755293E+01 -2.47510585E+01  0.00000000E+00  1.23755293E+01  1.23755293E+01
 -2.47510585E+01  0.00000000E+00  1.23755293E+01  1.23755293E+01 -2.47510585E+01
  0.00000000E+00  1.23755293E+01  1.23755293E+01 -2.47510585E+01  0.00000000E+00
  1.23755293E+01  1.23755293E+01 -2.47510585E+01  0.00000000E+00  1.23755293E+01
  1.23755293E+01 -2.47510585E+01  0.00000000E+00  1.23755293E+01  1.23755293E+01
 -2.47510585E+01  0.00000000E+00  1.23755293E+01  1.23755293E+01 -2.47510585E+01
  0.00000000E+00  1.23755293E+01  1.23755293E+01 -2.47510585E+01  0.00000000E+00
  1.23755293E+01  1.23755293E+01 -2.47510585E+01  0.00000000E+00  1.23755293E+01
  1.23755293E+01 -2.47510585E+01  0.00000000E+00  1.23755293E+01  1.23755293E+01
 -2.47510585E+01  0.00000000E+00  1.23755293E+01  1.23755293E+01 -2.47510585E+01
  0.00000000E+00  1.23755293E+01  1.23755293E+01 -2.47510585E+01  0.00000000E+00
  1.23755293E+01  1.23755293E+01 -2.47510585E+01  0.00000000E+00  1.23755293E+01
  1.23755293E+01 -2.47510585E+01  0.00000000E+00  1.23755293E+01  1.23755293E+01
 -2.47510585E+01  0.00000000E+00  1.23755293E+01  1.23755293E+01 -2.47510585E+01
  0.00000000E+00  1.23755293E+01  1.23755293E+01 -2.47510585E+01  0.00000000E+00
  1.23755293E+01  1.23755293E+01 -2.47510585E+01  0.00000000E+00  1.23755293E+01
  1.23755293E+01 -2.47510585E+01  0.00000000E+00  1.23755293E+01  1.23755293E+01
 -2.47510585E+01  0.00000000E+00  1.23755293E+01  1.23755293E+01 -2.47510585E+01
  0.00000000E+00  1.23755293E+01  1.23755293E+01 -2.47510585E+01  0.00000000E+00
  1.23755293E+01  1.23755293E+01 -2.47510585E+01  0.00000000E+00  1.23755293E+01
  1.23755293E+01 -2.47510585E+01  0.00000000E+00  1.23755293E+01  1.23755293E+01
 -2.47510585E+01  0.00000000E+00  1.23755293E+01  1.23755293E+01 -2.47510585E+01
  0.00000000E+00  1.23755293E+01  1.23755293E+01 -2.47510585E+01  0.00000000E+00
  1.23755293E+01  1.23755293E+01 -2.47510585E+01  0.00000000E+00  1.23755293E+01
  1.23755293E+01 -2.47510585E+01  0.00000000E+00  1.23755293E+01  1.23755293E+01
 -2.47510585E+01  0.00000000E+00  1.23755293E+01  1.23755293E+01 -2.47510585E+01
  0.00000000E+00  1.23755293E+01  1.23755293E+01 -2.47510585E+01  0.00000000E+00
  1.23755293E+01  1.23755293E+01 -2.47510585E+01  0.00000000E+00  1.23755293E+01
  1.23755293E+01 -2.47510585E+01  0.00000000E+00  1.23755293E+01  1.23755293E+01
 -2.47510585E+01  0.00000000E+00  1.23755293E+01  1.23755293E+01 -2.47510585E+01
  0.00000000E+00  1.23755293E+01  1.23755293E+01 -2.47510585E+01  0.00000000E+00
  1.23755293E+01  1.23755293E+01 -2.47510585E+01  0.00000000E+00  1.23755293E+01
  1.23755293E+01 -2.47510585E+01  0.00000000E+00  1.23755293E+01  1.23755293E+01
 -2.47510585E+01  0.00000000E+00  1.23755293E+01  1.23755293E+01 -2.47510585E+01
  0.00000000E+00  1.23755293E+01  1.23755293E+01 -2.47510585E+01  0.00000000E+00
  1.23755293E+01  1.23755293E+01 -2.47510585E+01  0.00000000E+00  1.23755293E+01
  1.23755293E+01 -2.47510585E+01  0.00000000E+00  1.23755293E+01  1.23755293E+01
 -2.47510585E+01  0.00000000E+00  1.23755293E+01  1.23755293E+01 -2.47510585E+01
  0.00000000E+00  1.23755293E+01  1.23755293E+01 -2.47510585E+01  0.00000000E+00
  1.23755293E+01  1.23755293E+01 -2.47510585E+01  0.00000000E+00  1.23755293E+01
  1.23755293E+01 -2.47510585E+01  0.00000000E+00  1.23755293E+01  1.23755293E+01
 -2.47510585E+01  0.00000000E+00  1.23755293E+01  1.23755293E+01 -2.47510585E+01
  0.00000000E+00  1.23755293E+01  1.23755293E+01 -2.47510585E+01  0.00000000E+00
  1.23755293E+01  1.23755293E+01 -2.47510585E+01  0.00000000E+00  1.23755293E+01
  1.23755293E+01 -2.47510585E+01  0.00000000E+00  1.23755293E+01  1.23755293E+01
 -2.47510585E+01  0.00000000E+00  1.23755293E+01  1.23755293E+01 -2.47510585E+01
  0.00000000E+00  1.23755293E+01  1.23755293E+01 -2.47510585E+01  0.00000000E+00
  1.23755293E+01  1.23755293E+01 -2.47510585E+01  0.00000000E+00  1.23755293E+01
  1.23755293E+01 -2.47510585E+01  0.00000000E+00  1.23755293E+01  1.23755293E+01
 -2.47510585E+01  0.00000000E+00  1.23755293E+01  1.23755293E+01 -2.47510585E+01
  0.00000000E+00  1.23755293E+01  1.23755293E+01 -2.47510585E+01  0.00000000E+00
  1.23755293E+01  1.23755293E+01 -2.47510585E+01  0.00000000E+00  1.23755293E+01
  1.23755293E+01 -2.47510585E+01  0.00000000E+00  1.23755293E+01  1.23755293E+01
 -2.47510585E+01  0.00000000E+00  1.23755293E+01  1.23755293E+01 -2.47510585E+01
  0.00000000E+00  1.23755293E+01  1.23755293E+01 -2.47510585E+01  0.00000000E+00
  1.23755293E+01  1.23755293E+01 -2.47510585E+01  0.00000000E+00  1.23755293E+01
  1.23755293E+01 -2.47510585E+01  0.00000000E+00  1.23755293E+01  1.23755293E+01
 -2.47510585E+01  0.00000000E+00  1.23755293E+01  1.23755293E+01 -2.47510585E+01
  0.00000000E+00  1.23755293E+01  1.23755293E+01 -2.47510585E+01  0.00000000E+00
  1.23755293E+01  1.23755293E+01 -2.47510585E+01  0.00000000E+00  1.23755293E+01
  1.23755293E+01 -2.47510585E+01  0.00000000E+00  1.23755293E+01  1.23755293E+01
 -2.47510585E+01  0.00000000E+00  1.23755293E+01  1.23755293E+01 -2.47510585E+01
  0.00000000E+00  1.23755293E+01  1.23755293E+01 -2.47510585E+01  0.00000000E+00
  1.23755293E+01  1.23755293E+01 -2.47510585E+01  0.00000000E+00  1.23755293E+01
  1.23755293E+01 -2.47510585E+01  0.00000000E+00  1.23755293E+01  1.23755293E+01
 -2.47510585E+01  0.00000000E+00  1.23755293E+01  1.23755293E+01 -2.47510585E+01
  0.00000000E+00  1.23755293E+01  1.23755293E+01 -2.47510585E+01  0.00000000E+00
  1.23755293E+01  1.23755293E+01 -2.47510585E+01  0.00000000E+00  1.23755293E+01
  1.23755293E+01 -2.47510585E+01  0.00000000E+00  1.23755293E+01  1.23755293E+01
 -2.47510585E+01  0.00000000E+00  1.23755293E+01  1.23755293E+01 -2.47510585E+01
  0.00000000E+00  1.23755293E+01  1.23755293E+01 -2.47510585E+01  0.00000000E+00
  1.23755293E+01  1.23755293E+01 -2.47510585E+01  0.00000000E+00  1.23755293E+01
  1.23755293E+01 -2.47510585E+01  0.00000000E+00  1.23755293E+01  1.23755293E+01
 -2.47510585E+01  0.00000000E+00  1.23755293E+01  1.23755293E+01 -2.47510585E+01
  0.00000000E+00  1.23755293E+01  1.23755293E+01 -2.47510585E+01  0.00000000E+00
  1.23755293E+01  1.23755293E+01 -2.47510585E+01  0.00000000E+00  1.23755293E+01
  1.23755293E+01 -2.47510585E+01  0.00000000E+00  1.23755293E+01  1.23755293E+01
 -2.47510585E+01  0.00000000E+00  1.23755293E+01  1.23755293E+01 -2.47510585E+01
  0.00000000E+00  1.23755293E+01  1.23755293E+01 -2.47510585E+01  0.00000000E+00
  1.23755293E+01  1.23755293E+01 -2.47510585E+01  0.00000000E+00  1.23755293E+01
  1.23755293E+01 -2.47510585E+01  0.00000000E+00  1.23755293E+01  1.23755293E+01
 -2.47510585E+01  0.00000000E+00  1.23755293E+01  1.23755293E+01 -2.47510585E+01
  0.00000000E+00  1.23755293E+01  1.23755293E+01 -2.47510585E+01  0.00000000E+00
  1.23755293E+01  1.23755293E+01 -2.47510585E+01  0.00000000E+00  1.23755293E+01
  1.23755293E+01 -2.47510585E+01  0.00000000E+00  1.23755293E+01  1.23755293E+01
 -2.47510585E+01  0.00000000E+00  1.23755293E+01  1.23755293E+01 -2.47510585E+01
  0.00000000E+00  1.23755293E+01  1.23755293E+01 -2.47510585E+01  0.00000000E+00
  1.23755293E+01  1.23755293E+01 -2.47510585E+01  0.00000000E+00  1.23755293E+01
  1.23755293E+01 -2.47510585E+01  0.00000000E+00  1.23755293E+01  1.23755293E+01
 -2.47510585E+01  0.00000000E+00  1.23755293E+01  1.23755293E+01 -2.47510585E+01
  0.00000000E+00  1.23755293E+01  1.23755293E+01 -2.47510585E+01  0.00000000E+00
  1.23755293E+01  1.23755293E+01 -2.47510585E+01  0.00000000E+00  1.23755293E+01
  1.23755293E+01 -2.47510585E+01  0.00000000E+00  1.23755293E+01  1.23755293E+01
 -2.47510585E+01  0.00000000E+00  1.23755293E+01  1.23755293E+01 -2.47510585E+01
  0.00000000E+00  1.23755293E+01  1.23755293E+01 -2.47510585E+01  0.00000000E+00
  1.23755293E+01  1.23755293E+01 -2.47510585E+01  0.00000000E+00  1.23755293E+01
  1.23755293E+01 -2.47510585E+01  0.00000000E+00  1.23755293E+01  1.23755293E+01
 -2.47510585E+01  0.00000000E+00  1.23755293E+01  1.23755293E+01 -2.47510585E+01
  0.00000000E+00  1.23755293E+01  1.23755293E+01 -2.47510585E+01  0.00000000E+00
  1.23755293E+01  1.23755293E+01 -2.47510585E+01  0.00000000E+00  1.23755293E+01
  1.23755293E+01 -2.47510585E+01  0.00000000E+00  1.23755293E+01  1.23755293E+01
 -2.47510585E+01  0.00000000E+00  1.23755293E+01  1.23755293E+01 -2.47510585E+01
  0.00000000E+00  1.23755293E+01  1.23755293E+01 -2.47510585E+01  0.00000000E+00
  1.23755293E+01  1.23755293E+01 -2.47510585E+01  0.00000000E+00  1.23755293E+01
  1.23755293E+01 -2.47510585E+01  0.00000000E+00  1.23755293E+01  1.23755293E+01
 -2.47510585E+01  0.00000000E+00  1.23755293E+01  1.23755293E+01 -2.47510585E+01
  0.00000000E+00  1.23755293E+01  1.23755293E+01 -2.47510585E+01  0.00000000E+00
  1.23755293E+01  1.23755293E+01 -2.47510585E+01  0.00000000E+00  1.23755293E+01
  1.23755293E+01 -2.47510585E+01  0.00000000E+00  1.23755293E+01  1.23755293E+01
 -2.47510585E+01  0.00000000E+00  1.23755293E+01  1.23755293E+01 -2.47510585E+01
  0.00000000E+00  1.23755293E+01  1.23755293E+01 -2.47510585E+01  0.00000000E+00
  1.23755293E+01  1.23755293E+01 -2.47510585E+01  0.00000000E+00  1.23755293E+01
  1.23755293E+01 -2.47510585E+01  0.00000000E+00  1.23755293E+01  1.23755293E+01
 -2.47510585E+01  0.00000000E+00  1.23755293E+01  1.23755293E+01 -2.47510585E+01
  0.00000000E+00  1.23755293E+01  1.23755293E+01 -2.47510585E+01  0.00000000E+00
  1.23755293E+01  1.23755293E+01 -2.47510585E+01  0.00000000E+00  1.23755293E+01
  1.23755293E+01 -2.47510585E+01  0.00000000E+00  1.23755293E+01  1.23755293E+01
 -2.47510585E+01  0.00000000E+00  1.23755293E+01  1.23755293E+01 -2.47510585E+01
  0.00000000E+00  1.23755293E+01  1.23755293E+01 -2.47510585E+01  0.00000000E+00
  1.23755293E+01  1.23755293E+01 -2.47510585E+01  0.00000000E+00  1.23755293E+01
  1.23755293E+01 -2.47510585E+01  0.00000000E+00  1.23755293E+01  1.23755293E+01
 -2.47510585E+01  0.00000000E+00  1.23755293E+01  1.23755293E+01 -2.47510585E+01
  0.00000000E+00  1.23755293E+01  1.23755293E+01 -2.47510585E+01  0.00000000E+00
  1.23755293E+01  1.23755293E+01 -2.47510585E+01  0.00000000E+00  1.23755293E+01
  1.23755293E+01 -2.47510585E+01  0.00000000E+00  1.23755293E+01  1.23755293E+01
 -2.47510585E+01  0.00000000E+00  1.23755293E+01  1.23755293E+01 -2.47510585E+01
  0.00000000E+00  1.23755293E+01  1.23755293E+01 -2.47510585E+01  0.00000000E+00
  1.23755293E+01  1.23755293E+01 -2.47510585E+01  0.00000000E+00  1.23755293E+01
  1.23755293E+01 -2.47510585E+01  0.00000000E+00  1.23755293E+01  1.23755293E+01
 -2.47510585E+01  0.00000000E+00  1.23755293E+01  1.23755293E+01 -2.47510585E+01
  0.00000000E+00  1.23755293E+01  1.23755293E+01 -2.47510585E+01  0.00000000E+00
  1.23755293E+01  1.23755293E+01 -2.47510585E+01  0.00000000E+00  1.23755293E+01
  1.23755293E+01 -2.47510585E+01  0.00000000E+00  1.23755293E+01  1.23755293E+01
 -2.47510585E+01  0.00000000E+00  1.23755293E+01  1.23755293E+01 -2.47510585E+01
  0.00000000E+00  1.23755293E+01  1.23755293E+01 -2.47510585E+01  0.00000000E+00
  1.23755293E+01  1.23755293E+01 -2.47510585E+01  0.00000000E+00  1.23755293E+01
  1.23755293E+01 -2.47510585E+01  0.00000000E+00  1.23755293E+01  1.23755293E+01
 -2.47510585E+01  0.00000000E+00  1.23755293E+01  1.23755293E+01 -2.47510585E+01
  0.00000000E+00  1.23755293E+01  1.23755293E+01 -2.47510585E+01  0.00000000E+00
  1.23755293E+01  1.23755293E+01 -2.47510585E+01  0.00000000E+00  1.23755293E+01
  1.23755293E+01 -2.47510585E+01  0.00000000E+00  1.23755293E+01  1.23755293E+01
 -2.47510585E+01  0.00000000E+00  1.23755293E+01  1.23755293E+01 -2.47510585E+01
  0.00000000E+00  1.23755293E+01  1.23755293E+01 -2.47510585E+01  0.00000000E+00
  1.23755293E+01  1.23755293E+01 -2.47510585E+01  0.00000000E+00  1.23755293E+01
  1.23755293E+01 -2.47510585E+01  0.00000000E+00  1.23755293E+01  1.23755293E+01
 -2.47510585E+01  0.00000000E+00  1.23755293E+01  1.23755293E+01 -2.47510585E+01
  0.00000000E+00  1.23755293E+01  1.23755293E+01 -2.47510585E+01  0.00000000E+00
  1.23755293E+01  1.23755293E+01 -2.47510585E+01  0.00000000E+00  1.23755293E+01
  1.23755293E+01 -2.47510585E+01  0.00000000E+00  1.23755293E+01  1.23755293E+01
 -2.47510585E+01  0.00000000E+00  1.23755293E+01  1.23755293E+01 -2.47510585E+01
  0.00000000E+00  1.23755293E+01  1.23755293E+01 -2.47510585E+01  0.00000000E+00
  1.23755293E+01  1.23755293E+01 -2.47510585E+01  0.00000000E+00  1.23755293E+01
  1.23755293E+01 -2.47510585E+01  0.00000000E+00  1.23755293E+01  1.23755293E+01
 -2.47510585E+01  0.00000000E+00  1.23755293E+01  1.23755293E+01 -2.47510585E+01
  0.00000000E+00  1.23755293E+01  1.23755293E+01 -2.47510585E+01  0.00000000E+00
  1.23755293E+01  1.23755293E+01 -2.47510585E+01  0.00000000E+00  1.23755293E+01
  1.23755293E+01 -2.47510585E+01  0.00000000E+00  1.23755293E+01  1.23755293E+01
 -2.47510585E+01  0.00000000E+00  1.23755293E+01  1.23755293E+01 -2.47510585E+01
  0.00000000E+00  1.23755293E+01  1.23755293E+01 -2.47510585E+01  0.00000000E+00
  1.23755293E+01  1.23755293E+01 -2.47510585E+01  0.00000000E+00  1.23755293E+01
  1.23755293E+01 -2.47510585E+01  0.00000000E+00  1.23755293E+01  1.23755293E+01
 -2.47510585E+01  0.00000000E+00  1.23755293E+01  1.23755293E+01 -2.47510585E+01
  0.00000000E+00  1.23755293E+01  1.23755293E+01 -2.47510585E+01  0.00000000E+00
  1.23755293E+01  1.23755293E+01 -2.47510585E+01  0.00000000E+00  1.23755293E+01
  1.23755293E+01 -2.47510585E+01  0.00000000E+00  1.23755293E+01  1.23755293E+01
 -2.47510585E+01  0.00000000E+00  1.23755293E+01  1.23755293E+01 -2.47510585E+01
  0.00000000E+00  1.23755293E+01  1.23755293E+01 -2.47510585E+01  0.00000000E+00
  1.23755293E+01  1.23755293E+01 -2.47510585E+01  0.00000000E+00  1.23755293E+01
  1.23755293E+01 -2.47510585E+01  0.00000000E+00  1.23755293E+01  1.23755293E+01
 -2.47510585E+01  0.00000000E+00  1.23755293E+01  1.23755293E+01 -2.47510585E+01
  0.00000000E+00  1.23755293E+01  1.23755293E+01 -2.47510585E+01  0.00000000E+00
  1.23755293E+01  1.23755293E+01 -2.47510585E+01  0.00000000E+00  1.23755293E+01
  1.23755293E+01 -2.47510585E+01  0.00000000E+00  1.23755293E+01  1.23755293E+01
 -2.47510585E+01  0.00000000E+00  1.23755293E+01  1.23755293E+01 -2.47510585E+01
  0.00000000E+00  1.23755293E+01  1.23755293E+01 -2.47510585E+01  0.00000000E+00
  1.23755293E+01  1.23755293E+01 -2.47510585E+01  0.00000000E+00  1.23755293E+01
  1.23755293E+01 -2.47510585E+01  0.00000000E+00  1.23755293E+01  1.23755293E+01
 -2.47510585E+01  0.00000000E+00  1.23755293E+01  1.23755293E+01 -2.47510585E+01
  0.00000000E+00  1.23755293E+01  1.23755293E+01 -2.47510585E+01  0.00000000E+00
  1.23755293E+01  1.23755293E+01 -2.47510585E+01  0.00000000E+00  1.23755293E+01
  1.23755293E+01 -2.47510585E+01  0.00000000E+00  1.23755293E+01  1.23755293E+01
 -2.47510585E+01  0.00000000E+00  1.23755293E+01  1.23755293E+01 -2.47510585E+01
  0.00000000E+00  1.23755293E+01  1.23755293E+01 -2.47510585E+01  0.00000000E+00
  1.23755293E+01  1.23755293E+01 -2.47510585E+01  0.00000000E+00  1.23755293E+01
  1.23755293E+01 -2.47510585E+01  0.00000000E+00  1.23755293E+01  1.23755293E+01
 -2.47510585E+01  0.00000000E+00  1.23755293E+01  1.23755293E+01 -2.47510585E+01
  0.00000000E+00  1.23755293E+01  1.23755293E+01 -2.47510585E+01  0.00000000E+00
  1.23755293E+01  1.23755293E+01 -2.47510585E+01  0.00000000E+00  1.23755293E+01
  1.23755293E+01 -2.47510585E+01  0.00000000E+00  1.23755293E+01  1.23755293E+01
 -2.47510585E+01  0.00000000E+00  1.23755293E+01  1.23755293E+01 -2.47510585E+01
  0.00000000E+00  1.23755293E+01  1.23755293E+01 -2.47510585E+01  0.00000000E+00
  1.23755293E+01  1.23755293E+01 -2.47510585E+01  0.00000000E+00  1.23755293E+01
  1.23755293E+01 -2.47510585E+01  0.00000000E+00  1.23755293E+01  1.23755293E+01
 -2.47510585E+01  0.00000000E+00  1.23755293E+01  1.23755293E+01 -2.47510585E+01
  0.00000000E+00  1.23755293E+01  1.23755293E+01 -2.47510585E+01  0.00000000E+00
  1.23755293E+01  1.23755293E+01 -2.47510585E+01  0.00000000E+00  1.23755293E+01
  1.23755293E+01 -2.47510585E+01  0.00000000E+00  1.23755293E+01  1.23755293E+01
 -2.47510585E+01  0.00000000E+00  1.23755293E+01  1.23755293E+01 -2.47510585E+01
  0.00000000E+00  1.23755293E+01  1.23755293E+01 -2.47510585E+01  0.00000000E+00
  1.23755293E+01  1.23755293E+01 -2.47510585E+01  0.00000000E+00  1.23755293E+01
  1.23755293E+01 -2.47510585E+01  0.00000000E+00  1.23755293E+01  1.23755293E+01
 -2.47510585E+01  0.00000000E+00  1.23755293E+01  1.23755293E+01 -2.47510585E+01
  0.00000000E+00  1.23755293E+01  1.23755293E+01 -2.47510585E+01  0.00000000E+00
  1.23755293E+01  1.23755293E+01 -2.47510585E+01  0.00000000E+00  1.23755293E+01
  1.23755293E+01 -2.47510585E+01  0.00000000E+00  1.23755293E+01  1.23755293E+01
 -2.47510585E+01  0.00000000E+00  1.23755293E+01  1.23755293E+01 -2.47510585E+01
  0.00000000E+00  1.23755293E+01  1.23755293E+01 -2.47510585E+01  0.00000000E+00
  1.23755293E+01  1.23755293E+01 -2.47510585E+01  0.00000000E+00  1.23755293E+01
  1.23755293E+01 -2.47510585E+01  0.00000000E+00  1.23755293E+01  1.23755293E+01
 -2.47510585E+01  0.00000000E+00  1.23755293E+01  1.23755293E+01 -2.47510585E+01
  0.00000000E+00  1.23755293E+01  1.23755293E+01 -2.47510585E+01  0.00000000E+00
  1.23755293E+01  1.23755293E+01 -2.47510585E+01  0.00000000E+00  1.23755293E+01
  1.23755293E+01 -2.47510585E+01  0.00000000E+00  1.23755293E+01  1.23755293E+01
 -2.47510585E+01  0.00000000E+00  1.23755293E+01  1.23755293E+01 -2.47510585E+01
  0.00000000E+00  1.23755293E+01  1.23755293E+01 -2.47510585E+01  0.00000000E+00
  1.23755293E+01  1.23755293E+01 -2.47510585E+01  0.00000000E+00  1.23755293E+01
  1.23755293E+01 -2.47510585E+01  0.00000000E+00  1.23755293E+01  1.23755293E+01
 -2.47510585E+01  0.00000000E+00  1.23755293E+01  1.23755293E+01 -2.47510585E+01
  0.00000000E+00  1.23755293E+01  1.23755293E+01 -2.47510585E+01  0.00000000E+00
  1.23755293E+01  1.23755293E+01 -2.47510585E+01  0.00000000E+00  1.23755293E+01
  1.23755293E+01 -2.47510585E+01  0.00000000E+00  1.23755293E+01  1.23755293E+01
 -2.47510585E+01  0.00000000E+00  1.23755293E+01  1.23755293E+01 -2.47510585E+01
  0.00000000E+00  1.23755293E+01  1.23755293E+01 -2.47510585E+01  0.00000000E+00
  1.23755293E+01  1.23755293E+01 -2.47510585E+01  0.00000000E+00  1.23755293E+01
  1.23755293E+01 -2.47510585E+01  0.00000000E+00  1.23755293E+01  1.23755293E+01
 -2.47510585E+01  0.00000000E+00  1.23755293E+01  1.23755293E+01 -2.47510585E+01
  0.00000000E+00  1.23755293E+01  1.23755293E+01 -2.47510585E+01  0.00000000E+00
  1.23755293E+01  1.23755293E+01 -2.47510585E+01  0.00000000E+00  1.23755293E+01
  1.23755293E+01 -2.47510585E+01  0.00000000E+00  1.23755293E+01  1.23755293E+01
 -2.47510585E+01  0.00000000E+00  1.23755293E+01  1.23755293E+01 -2.47510585E+01
  0.00000000E+00  1.23755293E+01  1.23755293E+01 -2.47510585E+01  0.00000000E+00
  1.23755293E+01  1.23755293E+01 -2.47510585E+01  0.00000000E+00  1.23755293E+01
  1.23755293E+01 -2.47510585E+01  0.00000000E+00  1.23755293E+01  1.23755293E+01
 -2.47510585E+01  0.00000000E+00  1.23755293E+01  1.23755293E+01 -2.47510585E+01
  0.00000000E+00  1.23755293E+01  1.23755293E+01 -2.47510585E+01  0.00000000E+00
  1.23755293E+01  1.23755293E+01 -2.47510585E+01  0.00000000E+00  1.23755293E+01
  1.23755293E+01 -2.47510585E+01  0.00000000E+00  1.23755293E+01  1.23755293E+01
 -2.47510585E+01  0.00000000E+00  1.23755293E+01  1.23755293E+01 -2.47510585E+01
  0.00000000E+00  1.23755293E+01  1.23755293E+01 -2.47510585E+01  0.00000000E+00
  1.23755293E+01  1.23755293E+01 -2.47510585E+01  0.00000000E+00  1.23755293E+01
  1.23755293E+01 -2.47510585E+01  0.00000000E+00  1.23755293E+01  1.23755293E+01
 -2.47510585E+01  0.00000000E+00  1.23755293E+01  1.23755293E+01 -2.47510585E+01
  0.00000000E+00  1.23755293E+01  1.23755293E+01 -2.47510585E+01  0.00000000E+00
  1.23755293E+01  1.23755293E+01 -2.47510585E+01  0.00000000E+00  1.23755293E+01
  1.23755293E+01 -2.47510585E+01  0.00000000E+00  1.23755293E+01  1.23755293E+01
 -2.47510585E+01  0.00000000E+00  1.23755293E+01  1.23755293E+01 -2.47510585E+01
  0.00000000E+00  1.23755293E+01  1.23755293E+01 -2.47510585E+01  0.00000000E+00
  1.23755293E+01  1.23755293E+01 -2.47510585E+01  0.00000000E+00  1.23755293E+01
  1.23755293E+01 -2.47510585E+01  0.00000000E+00  1.23755293E+01  1.23755293E+01
 -2.47510585E+01  0.00000000E+00  1.23755293E+01  1.23755293E+01 -2.47510585E+01
  0.00000000E+00  1.23755293E+01  1.23755293E+01 -2.47510585E+01  0.00000000E+00
  1.23755293E+01  1.23755293E+01 -2.47510585E+01  0.00000000E+00  1.23755293E+01
  1.23755293E+01 -2.47510585E+01  0.00000000E+00  1.23755293E+01  1.23755293E+01
 -2.47510585E+01  0.00000000E+00  1.23755293E+01  1.23755293E+01 -2.47510585E+01
  0.00000000E+00  1.23755293E+01  1.23755293E+01 -2.47510585E+01  0.00000000E+00
  1.23755293E+01  1.23755293E+01 -2.47510585E+01  0.00000000E+00  1.23755293E+01
  1.23755293E+01 -2.47510585E+01  0.00000000E+00  1.23755293E+01  1.23755293E+01
 -2.47510585E+01  0.00000000E+00  1.23755293E+01  1.23755293E+01 -2.47510585E+01
  0.00000000E+00  1.23755293E+01  1.23755293E+01 -2.47510585E+01  0.00000000E+00
  1.23755293E+01  1.23755293E+01 -2.47510585E+01  0.00000000E+00  1.23755293E+01
  1.23755293E+01 -2.47510585E+01  0.00000000E+00  1.23755293E+01  1.23755293E+01
 -2.47510585E+01  0.00000000E+00  1.23755293E+01  1.23755293E+01 -2.47510585E+01
  0.00000000E+00  1.23755293E+01  1.23755293E+01 -2.47510585E+01  0.00000000E+00
  1.23755293E+01  1.23755293E+01 -2.47510585E+01  0.00000000E+00  1.23755293E+01
  1.23755293E+01 -2.47510585E+01  0.00000000E+00  1.23755293E+01  1.23755293E+01
 -2.47510585E+01  0.00000000E+00  1.23755293E+01  1.23755293E+01 -2.47510585E+01
  0.00000000E+00  1.23755293E+01  1.23755293E+01 -2.47510585E+01  0.00000000E+00
  1.23755293E+01  1.23755293E+01 -2.47510585E+01  0.00000000E+00  1.23755293E+01
  1.23755293E+01 -2.47510585E+01  0.00000000E+00  1.23755293E+01  1.23755293E+01
 -2.47510585E+01  0.00000000E+00  1.23755293E+01  1.23755293E+01 -2.47510585E+01
  0.00000000E+00  1.23755293E+01  1.23755293E+01 -2.47510585E+01  0.00000000E+00
  1.23755293E+01  1.23755293E+01 -2.47510585E+01  0.00000000E+00  1.23755293E+01
  1.23755293E+01 -2.47510585E+01  0.00000000E+00  1.23755293E+01  1.23755293E+01
 -2.47510585E+01  0.00000000E+00  1.23755293E+01  1.23755293E+01 -2.47510585E+01
  0.00000000E+00  1.23755293E+01  1.23755293E+01 -2.47510585E+01  0.00000000E+00
  1.23755293E+01  1.23755293E+01 -2.47510585E+01  0.00000000E+00  1.23755293E+01
  1.23755293E+01 -2.47510585E+01  0.00000000E+00  1.23755293E+01  1.23755293E+01
 -2.47510585E+01  0.00000000E+00  1.23755293E+01  1.23755293E+01 -2.47510585E+01
  0.00000000E+00  1.23755293E+01  1.23755293E+01 -2.47510585E+01  0.00000000E+00
  1.23755293E+01  1.23755293E+01 -2.47510585E+01  0.00000000E+00  1.23755293E+01
  1.23755293E+01 -2.47510585E+01  0.00000000E+00  1.23755293E+01  1.23755293E+01
 -2.47510585E+01  0.00000000E+00  1.23755293E+01  1.23755293E+01 -2.47510585E+01
  0.00000000E+00  1.23755293E+01  1.23755293E+01 -2.47510585E+01  0.00000000E+00
  1.23755293E+01  1.23755293E+01 -2.47510585E+01  0.00000000E+00  1.23755293E+01
  1.23755293E+01 -2.47510585E+01  0.00000000E+00  1.23755293E+01  1.23755293E+01
 -2.47510585E+01  0.00000000E+00  1.23755293E+01  1.23755293E+01 -2.47510585E+01
  0.00000000E+00  1.23755293E+01  1.23755293E+01 -2.47510585E+01  0.00000000E+00
  1.23755293E+01  1.23755293E+01 -2.47510585E+01  0.00000000E+00  1.23755293E+01
  1.23755293E+01 -2.47510585E+01  0.00000000E+00  1.23755293E+01  1.23755293E+01
 -2.47510585E+01  0.00000000E+00  1.23755293E+01  1.23755293E+01 -2.47510585E+01
  0.00000000E+00  1.23755293E+01  1.23755293E+01 -2.47510585E+01  0.00000000E+00
  1.23755293E+01  1.23755293E+01 -2.47510585E+01  0.00000000E+00  1.23755293E+01
  1.23755293E+01 -2.47510585E+01  0.00000000E+00  1.23755293E+01  1.23755293E+01
 -2.47510585E+01  0.00000000E+00  1.23755293E+01  1.23755293E+01 -2.47510585E+01
  0.00000000E+00  1.23755293E+01  1.23755293E+01 -2.47510585E+01  0.00000000E+00
  1.23755293E+01  1.23755293E+01 -2.47510585E+01  0.00000000E+00  1.23755293E+01
  1.23755293E+01 -2.47510585E+01  0.00000000E+00  1.23755293E+01  1.23755293E+01
 -2.47510585E+01  0.00000000E+00  1.23755293E+01  1.23755293E+01 -2.47510585E+01
  0.00000000E+00  1.23755293E+01  1.23755293E+01 -2.47510585E+01  0.00000000E+00
  1.23755293E+01  1.23755293E+01 -2.47510585E+01  0.00000000E+00  1.23755293E+01
  1.23755293E+01 -2.47510585E+01  0.00000000E+00  1.23755293E+01  1.23755293E+01
 -2.47510585E+01  0.00000000E+00  1.23755293E+01  1.23755293E+01 -2.47510585E+01
  0.00000000E+00  1.23755293E+01  1.23755293E+01 -2.47510585E+01  0.00000000E+00
  1.23755293E+01  1.23755293E+01 -2.47510585E+01  0.00000000E+00  1.23755293E+01
  1.23755293E+01 -2.47510585E+01  0.00000000E+00  1.23755293E+01  1.23755293E+01
 -2.47510585E+01  0.00000000E+00  1.23755293E+01  1.23755293E+01 -2.47510585E+01
  0.00000000E+00  1.23755293E+01  1.23755293E+01 -2.47510585E+01  0.00000000E+00
  1.23755293E+01  1.23755293E+01 -2.47510585E+01  0.00000000E+00  1.23755293E+01
  1.23755293E+01 -2.47510585E+01  0.00000000E+00  1.23755293E+01  1.23755293E+01
 -2.47510585E+01  0.00000000E+00  1.23755293E+01  1.23755293E+01 -2.47510585E+01
  0.00000000E+00  1.23755293E+01  1.23755293E+01 -2.47510585E+01  0.00000000E+00
  1.23755293E+01  1.23755293E+01 -2.47510585E+01  0.00000000E+00  1.23755293E+01
  1.23755293E+01 -2.47510585E+01  0.00000000E+00  1.23755293E+01  1.23755293E+01
 -2.47510585E+01  0.00000000E+00  1.23755293E+01  1.23755293E+01 -2.47510585E+01
  0.00000000E+00  1.23755293E+01  1.23755293E+01 -2.47510585E+01  0.00000000E+00
  1.23755293E+01  1.23755293E+01 -2.47510585E+01  0.00000000E+00  1.23755293E+01
  1.23755293E+01 -2.47510585E+01  0.00000000E+00  1.23755293E+01  1.23755293E+01
 -2.47510585E+01  0.00000000E+00  1.23755293E+01  1.23755293E+01 -2.47510585E+01
  0.00000000E+00  1.23755293E+01  1.23755293E+01 -2.47510585E+01  0.00000000E+00
  1.23755293E+01  1.23755293E+01 -2.47510585E+01  0.00000000E+00  1.23755293E+01
  1.23755293E+01 -2.47510585E+01  0.00000000E+00  1.23755293E+01  1.23755293E+01
 -2.47510585E+01  0.00000000E+00  1.23755293E+01  1.23755293E+01 -2.47510585E+01
  0.00000000E+00  1.23755293E+01  1.23755293E+01 -2.47510585E+01  0.00000000E+00
  1.23755293E+01  1.23755293E+01 -2.47510585E+01  0.00000000E+00  1.23755293E+01
  1.23755293E+01 -2.47510585E+01  0.00000000E+00  1.23755293E+01  1.23755293E+01
 -2.47510585E+01  0.00000000E+00  1.23755293E+01  1.23755293E+01 -2.47510585E+01
  0.00000000E+00  1.23755293E+01  1.23755293E+01 -2.47510585E+01  0.00000000E+00
  1.23755293E+01  1.23755293E+01 -2.47510585E+01  0.00000000E+00  1.23755293E+01
  1.23755293E+01 -2.47510585E+01  0.00000000E+00  1.23755293E+01  1.23755293E+01
 -2.47510585E+01  0.00000000E+00  1.23755293E+01  1.23755293E+01 -2.47510585E+01
  0.00000000E+00  1.23755293E+01  1.23755293E+01 -2.47510585E+01  0.00000000E+00
  1.23755293E+01  1.23755293E+01 -2.47510585E+01  0.00000000E+00  1.23755293E+01
  1.23755293E+01 -2.47510585E+01  0.00000000E+00  1.23755293E+01  1.23755293E+01
 -2.47510585E+01  0.00000000E+00  1.23755293E+01  1.23755293E+01 -2.47510585E+01
  0.00000000E+00  1.23755293E+01  1.23755293E+01 -2.47510585E+01  0.00000000E+00
  1.23755293E+01  1.23755293E+01 -2.47510585E+01  0.00000000E+00  1.23755293E+01
  1.23755293E+01 -2.47510585E+01  0.00000000E+00  1.23755293E+01  1.23755293E+01
 -2.47510585E+01  0.00000000E+00  1.23755293E+01  1.23755293E+01 -2.47510585E+01
  0.00000000E+00  1.23755293E+01  1.23755293E+01 -2.47510585E+01  0.00000000E+00
  1.23755293E+01  1.23755293E+01 -2.47510585E+01  0.00000000E+00  1.23755293E+01
  1.23755293E+01 -2.47510585E+01  0.00000000E+00  1.23755293E+01  1.23755293E+01
 -2.47510585E+01  0.00000000E+00  1.23755293E+01  1.23755293E+01 -2.47510585E+01
  0.00000000E+00  1.23755293E+01  1.23755293E+01 -2.47510585E+01  0.00000000E+00
  1.23755293E+01  1.23755293E+01 -2.47510585E+01  0.00000000E+00  1.23755293E+01
  1.23755293E+01 -2.47510585E+01  0.00000000E+00  1.23755293E+01  1.23755293E+01
 -2.47510585E+01  0.00000000E+00  1.23755293E+01  1.23755293E+01 -2.47510585E+01
  0.00000000E+00  1.23755293E+01  1.23755293E+01 -2.47510585E+01  0.00000000E+00
  1.23755293E+01  1.23755293E+01 -2.47510585E+01  0.00000000E+00  1.23755293E+01
  1.23755293E+01 -2.47510585E+01  0.00000000E+00  1.23755293E+01  1.23755293E+01
 -2.47510585E+01  0.00000000E+00  1.23755293E+01  1.23755293E+01 -2.47510585E+01
  0.00000000E+00  1.23755293E+01  1.23755293E+01 -2.47510585E+01  0.00000000E+00
  1.23755293E+01  1.23755293E+01 -2.47510585E+01  0.00000000E+00  1.23755293E+01
  1.23755293E+01 -2.47510585E+01  0.00000000E+00  1.23755293E+01  1.23755293E+01
 -2.47510585E+01  0.00000000E+00  1.23755293E+01  1.23755293E+01 -2.47510585E+01
  0.00000000E+00  1.23755293E+01  1.23755293E+01 -2.47510585E+01  0.00000000E+00
  1.23755293E+01  1.23755293E+01 -2.47510585E+01  0.00000000E+00  1.23755293E+01
  1.23755293E+01 -2.47510585E+01  0.00000000E+00  1.23755293E+01  1.23755293E+01
 -2.47510585E+01  0.00000000E+00  1.23755293E+01  1.23755293E+01 -2.47510585E+01
  0.00000000E+00  1.23755293E+01  1.23755293E+01 -2.47510585E+01  0.00000000E+00
  1.23755293E+01  1.23755293E+01 -2.47510585E+01  0.00000000E+00  1.23755293E+01
  1.23755293E+01 -2.47510585E+01  0.00000000E+00  1.23755293E+01  1.23755293E+01
 -2.47510585E+01  0.00000000E+00  1.23755293E+01  1.23755293E+01 -2.47510585E+01
  0.00000000E+00  1.23755293E+01  1.23755293E+01 -2.47510585E+01  0.00000000E+00
  1.23755293E+01  1.23755293E+01 -2.47510585E+01  0.00000000E+00  1.23755293E+01
  1.23755293E+01 -2.47510585E+01  0.00000000E+00  1.23755293E+01  1.23755293E+01
 -2.47510585E+01  0.00000000E+00  1.23755293E+01  1.23755293E+01 -2.47510585E+01
  0.00000000E+00  1.23755293E+01  1.23755293E+01 -2.47510585E+01  0.00000000E+00
  1.23755293E+01  1.23755293E+01 -2.47510585E+01  0.00000000E+00  1.23755293E+01
  1.23755293E+01 -2.47510585E+01  0.00000000E+00  1.23755293E+01  1.23755293E+01
 -2.47510585E+01  0.00000000E+00  1.23755293E+01  1.23755293E+01 -2.47510585E+01
  0.00000000E+00  1.23755293E+01  1.23755293E+01 -2.47510585E+01  0.00000000E+00
  1.23755293E+01  1.23755293E+01 -2.47510585E+01  0.00000000E+00  1.23755293E+01
  1.23755293E+01 -2.47510585E+01  0.00000000E+00  1.23755293E+01  1.23755293E+01
 -2.47510585E+01  0.00000000E+00  1.23755293E+01  1.23755293E+01 -2.47510585E+01
  0.00000000E+00  1.23755293E+01  1.23755293E+01 -2.47510585E+01  0.00000000E+00
  1.23755293E+01  1.23755293E+01 -2.47510585E+01  0.00000000E+00  1.23755293E+01
  1.23755293E+01 -2.47510585E+01  0.00000000E+00  1.23755293E+01  1.23755293E+01
 -2.47510585E+01  0.00000000E+00  1.23755293E+01  1.23755293E+01 -2.47510585E+01
  0.00000000E+00  1.23755293E+01  1.23755293E+01 -2.47510585E+01  0.00000000E+00
  1.23755293E+01  1.23755293E+01 -2.47510585E+01  0.00000000E+00  1.23755293E+01
  1.23755293E+01 -2.47510585E+01  0.00000000E+00  1.23755293E+01  1.23755293E+01
 -2.47510585E+01  0.00000000E+00  1.23755293E+01  1.23755293E+01 -2.47510585E+01
  0.00000000E+00  1.23755293E+01  1.23755293E+01 -2.47510585E+01  0.00000000E+00
  1.23755293E+01  1.23755293E+01 -2.47510585E+01  0.00000000E+00  1.23755293E+01
  1.23755293E+01 -2.47510585E+01  0.00000000E+00  1.23755293E+01  1.23755293E+01
 -2.47510585E+01  0.00000000E+00  1.23755293E+01  1.23755293E+01 -2.47510585E+01
  0.00000000E+00  1.23755293E+01  1.23755293E+01 -2.47510585E+01  0.00000000E+00
  1.23755293E+01  1.23755293E+01 -2.47510585E+01  0.00000000E+00  1.23755293E+01
  1.23755293E+01 -2.47510585E+01  0.00000000E+00  1.23755293E+01  1.23755293E+01
 -2.47510585E+01  0.00000000E+00  1.23755293E+01  1.23755293E+01 -2.47510585E+01
  0.00000000E+00  1.23755293E+01  1.23755293E+01 -2.47510585E+01  0.00000000E+00
  1.23755293E+01  1.23755293E+01 -2.47510585E+01  0.00000000E+00  1.23755293E+01
  1.23755293E+01 -2.47510585E+01  0.00000000E+00  1.23755293E+01  1.23755293E+01
 -2.47510585E+01  0.00000000E+00  1.23755293E+01  1.23755293E+01 -2.47510585E+01
  0.00000000E+00  1.23755293E+01  1.23755293E+01 -2.47510585E+01  0.00000000E+00
  1.23755293E+01  1.23755293E+01 -2.47510585E+01  0.00000000E+00  1.23755293E+01
  1.23755293E+01 -2.47510585E+01  0.00000000E+00  1.23755293E+01  1.23755293E+01
 -2.47510585E+01  0.00000000E+00  1.23755293E+01  1.23755293E+01 -2.47510585E+01
  0.00000000E+00  1.23755293E+01  1.23755293E+01 -2.47510585E+01  0.00000000E+00
  1.23755293E+01  1.23755293E+01 -2.47510585E+01  0.00000000E+00  1.23755293E+01
  1.23755293E+01 -2.47510585E+01  0.00000000E+00  1.23755293E+01  1.23755293E+01
 -2.47510585E+01  0.00000000E+00  1.23755293E+01  1.23755293E+01 -2.47510585E+01
  0.00000000E+00  1.23755293E+01  1.23755293E+01 -2.47510585E+01  0.00000000E+00
  1.23755293E+01  1.23755293E+01 -2.47510585E+01  0.00000000E+00  1.23755293E+01
  1.23755293E+01 -2.47510585E+01  0.00000000E+00  1.23755293E+01  1.23755293E+01
 -2.47510585E+01  0.00000000E+00  1.23755293E+01  1.23755293E+01 -2.47510585E+01
  0.00000000E+00  1.23755293E+01  1.23755293E+01 -2.47510585E+01  0.00000000E+00
  1.23755293E+01  1.23755293E+01 -2.47510585E+01  0.00000000E+00  1.23755293E+01
  1.23755293E+01 -2.47510585E+01  0.00000000E+00  1.23755293E+01  1.23755293E+01
 -2.47510585E+01  0.00000000E+00  1.23755293E+01  1.23755293E+01 -2.47510585E+01
  0.00000000E+00  1.23755293E+01  1.23755293E+01 -2.47510585E+01  0.00000000E+00
  1.23755293E+01  1.23755293E+01 -2.47510585E+01  0.00000000E+00  1.23755293E+01
  1.23755293E+01 -2.47510585E+01  0.00000000E+00  1.23755293E+01  1.23755293E+01
 -2.47510585E+01  0.00000000E+00  1.23755293E+01  1.23755293E+01 -2.47510585E+01
  0.00000000E+00  1.23755293E+01  1.23755293E+01 -2.47510585E+01  0.00000000E+00
  1.23755293E+01  1.23755293E+01 -2.47510585E+01  0.00000000E+00  1.23755293E+01
  1.23755293E+01 -2.47510585E+01  0.00000000E+00  1.23755293E+01  1.23755293E+01
 -2.47510585E+01  0.00000000E+00  1.23755293E+01  1.23755293E+01 -2.47510585E+01
  0.00000000E+00  1.23755293E+01  1.23755293E+01 -2.47510585E+01  0.00000000E+00
  1.23755293E+01  1.23755293E+01 -2.47510585E+01  0.00000000E+00  1.23755293E+01
  1.23755293E+01 -2.47510585E+01  0.00000000E+00  1.23755293E+01  1.23755293E+01
 -2.47510585E+01  0.00000000E+00  1.23755293E+01  1.23755293E+01 -2.47510585E+01
  0.00000000E+00  1.23755293E+01  1.23755293E+01 -2.47510585E+01  0.00000000E+00
  1.23755293E+01  1.23755293E+01 -2.47510585E+01  0.00000000E+00  1.23755293E+01
  1.23755293E+01 -2.47510585E+01  0.00000000E+00  1.23755293E+01  1.23755293E+01
 -2.47510585E+01  0.00000000E+00  1.23755293E+01  1.23755293E+01 -2.47510585E+01
  0.00000000E+00  1.23755293E+01  1.23755293E+01 -2.47510585E+01  0.00000000E+00
  1.23755293E+01  1.23755293E+01 -2.47510585E+01  0.00000000E+00  1.23755293E+01
  1.23755293E+01 -2.47510585E+01  0.00000000E+00  1.23755293E+01  1.23755293E+01
 -2.47510585E+01  0.00000000E+00  1.23755293E+01  1.23755293E+01 -2.47510585E+01
  0.00000000E+00  1.23755293E+01  1.23755293E+01 -2.47510585E+01  0.00000000E+00
  1.23755293E+01  1.23755293E+01 -2.47510585E+01  0.00000000E+00  1.23755293E+01
  1.23755293E+01 -2.47510585E+01  0.00000000E+00  1.23755293E+01  1.23755293E+01
 -2.47510585E+01  0.00000000E+00  1.23755293E+01  1.23755293E+01 -2.47510585E+01
  0.00000000E+00  1.23755293E+01  1.23755293E+01 -2.47510585E+01  0.00000000E+00
  1.23755293E+01  1.23755293E+01 -2.47510585E+01  0.00000000E+00  1.23755293E+01
  1.23755293E+01 -2.47510585E+01  0.00000000E+00  1.23755293E+01  1.23755293E+01
 -2.47510585E+01  0.00000000E+00  1.23755293E+01  1.23755293E+01 -2.47510585E+01
  0.00000000E+00  1.23755293E+01  1.23755293E+01 -2.47510585E+01  0.00000000E+00
  1.23755293E+01  1.23755293E+01 -2.47510585E+01  0.00000000E+00  1.23755293E+01
  1.23755293E+01 -2.47510585E+01  0.00000000E+00  1.23755293E+01  1.23755293E+01
 -2.47510585E+01  0.00000000E+00  1.23755293E+01  1.23755293E+01 -2.47510585E+01
  0.00000000E+00  1.23755293E+01  1.23755293E+01 -2.47510585E+01  0.00000000E+00
  1.23755293E+01  1.23755293E+01 -2.47510585E+01  0.00000000E+00  1.23755293E+01
  1.23755293E+01 -2.47510585E+01  0.00000000E+00  1.23755293E+01  1.23755293E+01
 -2.47510585E+01  0.00000000E+00  1.23755293E+01  1.23755293E+01 -2.47510585E+01
  0.00000000E+00  1.23755293E+01  1.23755293E+01 -2.47510585E+01  0.00000000E+00
  1.23755293E+01  1.23755293E+01 -2.47510585E+01  0.00000000E+00  1.23755293E+01
  1.23755293E+01 -2.47510585E+01  0.00000000E+00  1.23755293E+01  1.23755293E+01
 -2.47510585E+01  0.00000000E+00  1.23755293E+01  1.23755293E+01 -2.47510585E+01
  0.00000000E+00  1.23755293E+01  1.23755293E+01 -2.47510585E+01  0.00000000E+00
  1.23755293E+01  1.23755293E+01 -2.47510585E+01  0.00000000E+00  1.23755293E+01
  1.23755293E+01 -2.47510585E+01  0.00000000E+00  1.23755293E+01  1.23755293E+01
 -2.47510585E+01  0.00000000E+00  1.23755293E+01  1.23755293E+01 -2.47510585E+01
  0.00000000E+00  1.23755293E+01  1.23755293E+01 -2.47510585E+01  0.00000000E+00
  1.23755293E+01  1.23755293E+01 -2.47510585E+01  0.00000000E+00  1.23755293E+01
  1.23755293E+01 -2.47510585E+01  0.00000000E+00  1.23755293E+01  1.23755293E+01
 -2.47510585E+01  0.00000000E+00  1.23755293E+01  1.23755293E+01 -2.47510585E+01
  0.00000000E+00  1.23755293E+01  1.23755293E+01 -2.47510585E+01  0.00000000E+00
  1.23755293E+01  1.23755293E+01 -2.47510585E+01  0.00000000E+00  1.23755293E+01
  1.23755293E+01 -2.47510585E+01  0.00000000E+00  1.23755293E+01  1.23755293E+01
 -2.47510585E+01  0.00000000E+00  1.23755293E+01  1.23755293E+01 -2.47510585E+01
  0.00000000E+00  1.23755293E+01  1.23755293E+01 -2.47510585E+01  0.00000000E+00
  1.23755293E+01  1.23755293E+01 -2.47510585E+01  0.00000000E+00  1.23755293E+01
  1.23755293E+01 -2.47510585E+01  0.00000000E+00  1.23755293E+01  1.23755293E+01
 -2.47510585E+01  0.00000000E+00  1.23755293E+01  1.23755293E+01 -2.47510585E+01
  0.00000000E+00  1.23755293E+01  1.23755293E+01 -2.47510585E+01  0.00000000E+00
  1.23755293E+01  1.23755293E+01 -2.47510585E+01  0.00000000E+00  1.23755293E+01
  1.23755293E+01 -2.47510585E+01  0.00000000E+00  1.23755293E+01  1.23755293E+01
 -2.47510585E+01  0.00000000E+00  1.23755293E+01  1.23755293E+01 -2.47510585E+01
  0.00000000E+00  1.23755293E+01  1.23755293E+01 -2.47510585E+01  0.00000000E+00
  1.23755293E+01  1.23755293E+01 -2.47510585E+01  0.00000000E+00  1.23755293E+01
  1.23755293E+01 -2.47510585E+01  0.00000000E+00  1.23755293E+01  1.23755293E+01
 -2.47510585E+01  0.00000000E+00  1.23755293E+01  1.23755293E+01 -2.47510585E+01
  0.00000000E+00  1.23755293E+01  1.23755293E+01 -2.47510585E+01  0.00000000E+00
  1.23755293E+01  1.23755293E+01 -2.47510585E+01  0.00000000E+00  1.23755293E+01
  1.23755293E+01 -2.47510585E+01  0.00000000E+00  1.23755293E+01  1.23755293E+01
 -2.47510585E+01  0.00000000E+00  1.23755293E+01  1.23755293E+01 -2.47510585E+01
  0.00000000E+00  1.23755293E+01  1.23755293E+01 -2.47510585E+01  0.00000000E+00
  1.23755293E+01  1.23755293E+01 -2.47510585E+01  0.00000000E+00  1.23755293E+01
  1.23755293E+01 -2.47510585E+01  0.00000000E+00  1.23755293E+01  1.23755293E+01
 -2.47510585E+01  0.00000000E+00  1.23755293E+01  1.23755293E+01 -2.47510585E+01
  0.00000000E+00  1.23755293E+01  1.23755293E+01 -2.47510585E+01  0.00000000E+00
  1.23755293E+01  1.23755293E+01 -2.47510585E+01  0.00000000E+00  1.23755293E+01
  1.23755293E+01 -2.47510585E+01  0.00000000E+00  1.23755293E+01  1.23755293E+01
 -2.47510585E+01  0.00000000E+00  1.23755293E+01  1.23755293E+01 -2.47510585E+01
  0.00000000E+00  1.23755293E+01  1.23755293E+01 -2.47510585E+01  0.00000000E+00
  1.23755293E+01  1.23755293E+01 -2.47510585E+01  0.00000000E+00  1.23755293E+01
  1.23755293E+01 -2.47510585E+01  0.00000000E+00  1.23755293E+01  1.23755293E+01
 -2.47510585E+01  0.00000000E+00  1.23755293E+01  1.23755293E+01 -2.47510585E+01
  0.00000000E+00  1.23755293E+01  1.23755293E+01 -2.47510585E+01  0.00000000E+00
  1.23755293E+01  1.23755293E+01 -2.47510585E+01  0.00000000E+00  1.23755293E+01
  1.23755293E+01 -2.47510585E+01  0.00000000E+00  1.23755293E+01  1.23755293E+01
 -2.47510585E+01  0.00000000E+00  1.23755293E+01  1.23755293E+01 -2.47510585E+01
  0.00000000E+00  1.23755293E+01  1.23755293E+01 -2.47510585E+01  0.00000000E+00
  1.23755293E+01  1.23755293E+01 -2.47510585E+01  0.00000000E+00  1.23755293E+01
  1.23755293E+01 -2.47510585E+01  0.00000000E+00  1.23755293E+01  1.23755293E+01
 -2.47510585E+01  0.00000000E+00  1.23755293E+01  1.23755293E+01 -2.47510585E+01
  0.00000000E+00  1.23755293E+01  1.23755293E+01 -2.47510585E+01  0.00000000E+00
  1.23755293E+01  1.23755293E+01 -2.47510585E+01  0.00000000E+00  1.23755293E+01
  1.23755293E+01 -2.47510585E+01  0.00000000E+00  1.23755293E+01  1.23755293E+01
 -2.47510585E+01  0.00000000E+00  1.23755293E+01  1.23755293E+01 -2.47510585E+01
  0.00000000E+00  1.23755293E+01  1.23755293E+01 -2.47510585E+01  0.00000000E+00
  1.23755293E+01  1.23755293E+01 -2.47510585E+01  0.00000000E+00  1.23755293E+01
  1.23755293E+01 -2.47510585E+01  0.00000000E+00  1.23755293E+01  1.23755293E+01
 -2.47510585E+01  0.00000000E+00  1.23755293E+01  1.23755293E+01 -2.47510585E+01
  0.00000000E+00  1.23755293E+01  1.23755293E+01 -2.47510585E+01  0.00000000E+00
  1.23755293E+01  1.23755293E+01 -2.47510585E+01  0.00000000E+00  1.23755293E+01
  1.23755293E+01 -2.47510585E+01  0.00000000E+00  1.23755293E+01  1.23755293E+01
 -2.47510585E+01  0.00000000E+00  1.23755293E+01  1.23755293E+01 -2.47510585E+01
  0.00000000E+00  1.23755293E+01  1.23755293E+01 -2.47510585E+01  0.00000000E+00
  1.23755293E+01  1.23755293E+01 -2.47510585E+01  0.00000000E+00  1.23755293E+01
  1.23755293E+01 -2.47510585E+01  0.00000000E+00  1.23755293E+01  1.23755293E+01
 -2.47510585E+01  0.00000000E+00  1.23755293E+01  1.23755293E+01 -2.47510585E+01
  0.00000000E+00  1.23755293E+01  1.23755293E+01 -2.47510585E+01  0.00000000E+00
  1.23755293E+01  1.23755293E+01 -2.47510585E+01  0.00000000E+00  1.23755293E+01
  1.23755293E+01 -2.47510585E+01  0.00000000E+00  1.23755293E+01  1.23755293E+01
 -2.47510585E+01  0.00000000E+00  1.23755293E+01  1.23755293E+01 -2.47510585E+01
  0.00000000E+00  1.23755293E+01  1.23755293E+01 -2.47510585E+01  0.00000000E+00
  1.23755293E+01  1.23755293E+01 -2.47510585E+01  0.00000000E+00  1.23755293E+01
  1.23755293E+01 -2.47510585E+01  0.00000000E+00  1.23755293E+01  1.23755293E+01
 -2.47510585E+01  0.00000000E+00  1.23755293E+01  1.23755293E+01 -2.47510585E+01
  0.00000000E+00  1.23755293E+01  1.23755293E+01 -2.47510585E+01  0.00000000E+00
  1.23755293E+01  1.23755293E+01 -2.47510585E+01  0.00000000E+00  1.23755293E+01
  1.23755293E+01 -2.47510585E+01  0.00000000E+00  1.23755293E+01  1.23755293E+01
 -2.47510585E+01  0.00000000E+00  1.23755293E+01  1.23755293E+01 -2.47510585E+01
  0.00000000E+00  1.23755293E+01  1.23755293E+01 -2.47510585E+01  0.00000000E+00
  1.23755293E+01  1.23755293E+01 -2.47510585E+01  0.00000000E+00  1.23755293E+01
  1.23755293E+01 -2.47510585E+01  0.00000000E+00  1.23755293E+01  1.23755293E+01
 -2.47510585E+01  0.00000000E+00  1.23755293E+01  1.23755293E+01 -2.47510585E+01
  0.00000000E+00  1.23755293E+01  1.23755293E+01 -2.47510585E+01  0.00000000E+00
  1.23755293E+01  1.23755293E+01 -2.47510585E+01  0.00000000E+00  1.23755293E+01
  1.23755293E+01 -2.47510585E+01  0.00000000E+00  1.23755293E+01  1.23755293E+01
 -2.47510585E+01  0.00000000E+00  1.23755293E+01  1.23755293E+01 -2.47510585E+01
  0.00000000E+00  1.23755293E+01  1.23755293E+01 -2.47510585E+01  0.00000000E+00
  1.23755293E+01  1.23755293E+01 -2.47510585E+01  0.00000000E+00  1.23755293E+01
  1.23755293E+01 -2.47510585E+01  0.00000000E+00  1.23755293E+01  1.23755293E+01
 -2.47510585E+01  0.00000000E+00  1.23755293E+01  1.23755293E+01 -2.47510585E+01
  0.00000000E+00  1.23755293E+01  1.23755293E+01 -2.47510585E+01  0.00000000E+00
  1.23755293E+01  1.23755293E+01 -2.47510585E+01  0.00000000E+00  1.23755293E+01
  1.23755293E+01 -2.47510585E+01  0.00000000E+00  1.23755293E+01  1.23755293E+01
 -2.47510585E+01  0.00000000E+00  1.23755293E+01  1.23755293E+01 -2.47510585E+01
  0.00000000E+00  1.23755293E+01  1.23755293E+01 -2.47510585E+01  0.00000000E+00
  1.23755293E+01  1.23755293E+01 -2.47510585E+01  0.00000000E+00  1.23755293E+01
  1.23755293E+01 -2.47510585E+01  0.00000000E+00  1.23755293E+01  1.23755293E+01
 -2.47510585E+01  0.00000000E+00  1.23755293E+01  1.23755293E+01 -2.47510585E+01
  0.00000000E+00  1.23755293E+01  1.23755293E+01 -2.47510585E+01  0.00000000E+00
  1.23755293E+01  1.23755293E+01 -2.47510585E+01  0.00000000E+00  1.23755293E+01
  1.23755293E+01 -2.47510585E+01  0.00000000E+00  1.23755293E+01  1.23755293E+01
 -2.47510585E+01  0.00000000E+00  1.23755293E+01  1.23755293E+01 -2.47510585E+01
  0.00000000E+00  1.23755293E+01  1.23755293E+01 -2.47510585E+01  0.00000000E+00
  1.23755293E+01  1.23755293E+01 -2.47510585E+01  0.00000000E+00  1.23755293E+01
  1.23755293E+01 -2.47510585E+01  0.00000000E+00  1.23755293E+01  1.23755293E+01
 -2.47510585E+01  0.00000000E+00  1.23755293E+01  1.23755293E+01 -2.47510585E+01
  0.00000000E+00  1.23755293E+01  1.23755293E+01 -2.47510585E+01  0.00000000E+00
  1.23755293E+01  1.23755293E+01 -2.47510585E+01  0.00000000E+00  1.23755293E+01
  1.23755293E+01 -2.47510585E+01  0.00000000E+00  1.23755293E+01  1.23755293E+01
 -2.47510585E+01  0.00000000E+00  1.23755293E+01  1.23755293E+01 -2.47510585E+01
  0.00000000E+00  1.23755293E+01  1.23755293E+01 -2.47510585E+01  0.00000000E+00
  1.23755293E+01  1.23755293E+01 -2.47510585E+01  0.00000000E+00  1.23755293E+01
  1.23755293E+01 -2.47510585E+01  0.00000000E+00  1.23755293E+01  1.23755293E+01
 -2.47510585E+01  0.00000000E+00  1.23755293E+01  1.23755293E+01 -2.47510585E+01
  0.00000000E+00  1.23755293E+01  1.23755293E+01 -2.47510585E+01  0.00000000E+00
  1.23755293E+01  1.23755293E+01 -2.47510585E+01  0.00000000E+00  1.23755293E+01
  1.23755293E+01 -2.47510585E+01  0.00000000E+00  1.23755293E+01  1.23755293E+01
 -2.47510585E+01  0.00000000E+00  1.23755293E+01  1.23755293E+01 -2.47510585E+01
  0.00000000E+00  1.23755293E+01  1.23755293E+01 -2.47510585E+01  0.00000000E+00
  1.23755293E+01  1.23755293E+01 -2.47510585E+01  0.00000000E+00  1.23755293E+01
  1.23755293E+01 -2.47510585E+01  0.00000000E+00  1.23755293E+01  1.23755293E+01
 -2.47510585E+01  0.00000000E+00  1.23755293E+01  1.23755293E+01 -2.47510585E+01
  0.00000000E+00  1.23755293E+01  1.23755293E+01 -2.47510585E+01  0.00000000E+00
  1.23755293E+01  1.23755293E+01 -2.47510585E+01  0.00000000E+00  1.23755293E+01
  1.23755293E+01 -2.47510585E+01  0.00000000E+00  1.23755293E+01  1.23755293E+01
 -2.47510585E+01  0.00000000E+00  1.23755293E+01  1.23755293E+01 -2.47510585E+01
  0.00000000E+00  1.23755293E+01  1.23755293E+01 -2.47510585E+01  0.00000000E+00
  1.23755293E+01  1.23755293E+01 -2.47510585E+01  0.00000000E+00  1.23755293E+01
  1.23755293E+01 -2.47510585E+01  0.00000000E+00  1.23755293E+01  1.23755293E+01
 -2.47510585E+01  0.00000000E+00  1.23755293E+01  1.23755293E+01 -2.47510585E+01
  0.00000000E+00  1.23755293E+01  1.23755293E+01 -2.47510585E+01  0.00000000E+00
  1.23755293E+01  1.23755293E+01 -2.47510585E+01  0.00000000E+00  1.23755293E+01
  1.23755293E+01 -2.47510585E+01  0.00000000E+00  1.23755293E+01  1.23755293E+01
 -2.47510585E+01  0.00000000E+00  1.23755293E+01  1.23755293E+01 -2.47510585E+01
  0.00000000E+00  1.23755293E+01  1.23755293E+01 -2.47510585E+01  0.00000000E+00
  1.23755293E+01  1.23755293E+01 -2.47510585E+01  0.00000000E+00  1.23755293E+01
  1.23755293E+01 -2.47510585E+01  0.00000000E+00  1.23755293E+01  1.23755293E+01
 -2.47510585E+01  0.00000000E+00  1.23755293E+01  1.23755293E+01 -2.47510585E+01
  0.00000000E+00  1.23755293E+01  1.23755293E+01 -2.47510585E+01  0.00000000E+00
  1.23755293E+01  1.23755293E+01 -2.47510585E+01  0.00000000E+00  1.23755293E+01
  1.23755293E+01 -2.47510585E+01  0.00000000E+00  1.23755293E+01  1.23755293E+01
 -2.47510585E+01  0.00000000E+00  1.23755293E+01  1.23755293E+01 -2.47510585E+01
  0.00000000E+00  1.23755293E+01  1.23755293E+01 -2.47510585E+01  0.00000000E+00
  1.23755293E+01  1.23755293E+01 -2.47510585E+01  0.00000000E+00  1.23755293E+01
  1.23755293E+01 -2.47510585E+01  0.00000000E+00  1.23755293E+01  1.23755293E+01
 -2.47510585E+01  0.00000000E+00  1.23755293E+01  1.23755293E+01 -2.47510585E+01
  0.00000000E+00  1.23755293E+01  1.23755293E+01 -2.47510585E+01  0.00000000E+00
  1.23755293E+01  1.23755293E+01 -2.47510585E+01  0.00000000E+00  1.23755293E+01
  1.23755293E+01 -2.47510585E+01  0.00000000E+00  1.23755293E+01  1.23755293E+01
 -2.47510585E+01  0.00000000E+00  1.23755293E+01  1.23755293E+01 -2.47510585E+01
  0.00000000E+00  1.23755293E+01  1.23755293E+01 -2.47510585E+01  0.00000000E+00
  1.23755293E+01  1.23755293E+01 -2.47510585E+01  0.00000000E+00  1.23755293E+01
  1.23755293E+01 -2.47510585E+01  0.00000000E+00  1.23755293E+01  1.23755293E+01
 -2.47510585E+01  0.00000000E+00  1.23755293E+01  1.23755293E+01 -2.47510585E+01
  0.00000000E+00  1.23755293E+01  1.23755293E+01 -2.47510585E+01  0.00000000E+00
  1.23755293E+01  1.23755293E+01 -2.47510585E+01  0.00000000E+00  1.23755293E+01
  1.23755293E+01 -2.47510585E+01  0.00000000E+00  1.23755293E+01  1.23755293E+01
 -2.47510585E+01  0.00000000E+00  1.23755293E+01  1.23755293E+01 -2.47510585E+01
  0.00000000E+00  1.23755293E+01  1.23755293E+01 -2.47510585E+01  0.00000000E+00
  1.23755293E+01  1.23755293E+01 -2.47510585E+01  0.00000000E+00  1.23755293E+01
  1.23755293E+01 -2.47510585E+01  0.00000000E+00  1.23755293E+01  1.23755293E+01
 -2.47510585E+01  0.00000000E+00  1.23755293E+01  1.23755293E+01 -2.47510585E+01
  0.00000000E+00  1.23755293E+01  1.23755293E+01 -2.47510585E+01  0.00000000E+00
  1.23755293E+01  1.23755293E+01 -2.47510585E+01  0.00000000E+00  1.23755293E+01
  1.23755293E+01 -2.47510585E+01  0.00000000E+00  1.23755293E+01  1.23755293E+01
 -2.47510585E+01  0.00000000E+00  1.23755293E+01  1.23755293E+01 -2.47510585E+01
  0.00000000E+00  1.23755293E+01  1.23755293E+01 -2.47510585E+01  0.00000000E+00
  1.23755293E+01  1.23755293E+01 -2.47510585E+01  0.00000000E+00  1.23755293E+01
  1.23755293E+01 -2.47510585E+01  0.00000000E+00  1.23755293E+01  1.23755293E+01
 -2.47510585E+01  0.00000000E+00  1.23755293E+01  1.23755293E+01 -2.47510585E+01
  0.00000000E+00  1.23755293E+01  1.23755293E+01 -2.47510585E+01  0.00000000E+00
  1.23755293E+01  1.23755293E+01 -2.47510585E+01  0.00000000E+00  1.23755293E+01
  1.23755293E+01 -2.47510585E+01  0.00000000E+00  1.23755293E+01  1.23755293E+01
 -2.47510585E+01  0.00000000E+00  1.23755293E+01  1.23755293E+01 -2.47510585E+01
  0.00000000E+00  1.23755293E+01  1.23755293E+01 -2.47510585E+01  0.00000000E+00
  1.23755293E+01  1.23755293E+01 -2.47510585E+01  0.00000000E+00  1.23755293E+01
  1.23755293E+01 -2.47510585E+01  0.00000000E+00  1.23755293E+01  1.23755293E+01
 -2.47510585E+01  0.00000000E+00  1.23755293E+01  1.23755293E+01 -2.47510585E+01
  0.00000000E+00  1.23755293E+01  1.23755293E+01 -2.47510585E+01  0.00000000E+00
  1.23755293E+01  1.23755293E+01 -2.47510585E+01  0.00000000E+00  1.23755293E+01
  1.23755293E+01 -2.47510585E+01  0.00000000E+00  1.23755293E+01  1.23755293E+01
 -2.47510585E+01  0.00000000E+00  1.23755293E+01  1.23755293E+01 -2.47510585E+01
  0.00000000E+00  1.23755293E+01  1.23755293E+01 -2.47510585E+01  0.00000000E+00
  1.23755293E+01  1.23755293E+01 -2.47510585E+01  0.00000000E+00  1.23755293E+01
  1.23755293E+01 -2.47510585E+01  0.00000000E+00  1.23755293E+01  1.23755293E+01
 -2.47510585E+01  0.00000000E+00  1.23755293E+01  1.23755293E+01 -2.47510585E+01
  0.00000000E+00  1.23755293E+01  1.23755293E+01 -2.47510585E+01  0.00000000E+00
  1.23755293E+01  1.23755293E+01 -2.47510585E+01  0.00000000E+00  1.23755293E+01
  1.23755293E+01 -2.47510585E+01  0.00000000E+00  1.23755293E+01  1.23755293E+01
 -2.47510585E+01  0.00000000E+00  1.23755293E+01  1.23755293E+01 -2.47510585E+01
  0.00000000E+00  1.23755293E+01  1.23755293E+01 -2.47510585E+01  0.00000000E+00
  1.23755293E+01  1.23755293E+01 -2.47510585E+01  0.00000000E+00  1.23755293E+01
  1.23755293E+01 -2.47510585E+01  0.00000000E+00  1.23755293E+01  1.23755293E+01
 -2.47510585E+01  0.00000000E+00  1.23755293E+01  1.23755293E+01 -2.47510585E+01
  0.00000000E+00  1.23755293E+01  1.23755293E+01 -2.47510585E+01  0.00000000E+00
  1.23755293E+01  1.23755293E+01 -2.47510585E+01  0.00000000E+00  1.23755293E+01
  1.23755293E+01 -2.47510585E+01  0.00000000E+00  1.23755293E+01  1.23755293E+01
 -2.47510585E+01  0.00000000E+00  1.23755293E+01  1.23755293E+01 -2.47510585E+01
  0.00000000E+00  1.23755293E+01  1.23755293E+01 -2.47510585E+01  0.00000000E+00
  1.23755293E+01  1.23755293E+01 -2.47510585E+01  0.00000000E+00  1.23755293E+01
  1.23755293E+01 -2.47510585E+01  0.00000000E+00  1.23755293E+01  1.23755293E+01
 -2.47510585E+01  0.00000000E+00  1.23755293E+01  1.23755293E+01 -2.47510585E+01
  0.00000000E+00  1.23755293E+01  1.23755293E+01 -2.47510585E+01  0.00000000E+00
  1.23755293E+01  1.23755293E+01 -2.47510585E+01  0.00000000E+00  1.23755293E+01
  1.23755293E+01 -2.47510585E+01  0.00000000E+00  1.23755293E+01  1.23755293E+01
 -2.47510585E+01  0.00000000E+00  1.23755293E+01  1.23755293E+01 -2.47510585E+01
  0.00000000E+00  1.23755293E+01  1.23755293E+01 -2.47510585E+01  0.00000000E+00
  1.23755293E+01  1.23755293E+01 -2.47510585E+01  0.00000000E+00  1.23755293E+01
  1.23755293E+01 -2.47510585E+01  0.00000000E+00  1.23755293E+01  1.23755293E+01
 -2.47510585E+01  0.00000000E+00  1.23755293E+01  1.23755293E+01 -2.47510585E+01
  0.00000000E+00  1.23755293E+01  1.23755293E+01 -2.47510585E+01  0.00000000E+00
  1.23755293E+01  1.23755293E+01 -2.47510585E+01  0.00000000E+00  1.23755293E+01
  1.23755293E+01 -2.47510585E+01  0.00000000E+00  1.23755293E+01  1.23755293E+01
 -2.47510585E+01  0.00000000E+00  1.23755293E+01  1.23755293E+01 -2.47510585E+01
  0.00000000E+00  1.23755293E+01  1.23755293E+01 -2.47510585E+01  0.00000000E+00
  1.23755293E+01  1.23755293E+01 -2.47510585E+01  0.00000000E+00  1.23755293E+01
  1.23755293E+01 -2.47510585E+01  0.00000000E+00  1.23755293E+01  1.23755293E+01
 -2.47510585E+01  0.00000000E+00  1.23755293E+01  1.23755293E+01 -2.47510585E+01
  0.00000000E+00  1.23755293E+01  1.23755293E+01 -2.47510585E+01  0.00000000E+00
  1.23755293E+01  1.23755293E+01 -2.47510585E+01  0.00000000E+00  1.23755293E+01
  1.23755293E+01 -2.47510585E+01  0.00000000E+00  1.23755293E+01  1.23755293E+01
 -2.47510585E+01  0.00000000E+00  1.23755293E+01  1.23755293E+01 -2.47510585E+01
  0.00000000E+00  1.23755293E+01  1.23755293E+01 -2.47510585E+01  0.00000000E+00
  1.23755293E+01  1.23755293E+01 -2.47510585E+01  0.00000000E+00  1.23755293E+01
  1.23755293E+01 -2.47510585E+01  0.00000000E+00  1.23755293E+01  1.23755293E+01
 -2.47510585E+01  0.00000000E+00  1.23755293E+01  1.23755293E+01 -2.47510585E+01
  0.00000000E+00  1.23755293E+01  1.23755293E+01 -2.47510585E+01  0.00000000E+00
  1.23755293E+01  1.23755293E+01 -2.47510585E+01  0.00000000E+00  1.23755293E+01
  1.23755293E+01 -2.47510585E+01  0.00000000E+00  1.23755293E+01  1.23755293E+01
 -2.47510585E+01  0.00000000E+00  1.23755293E+01  1.23755293E+01 -2.47510585E+01
  0.00000000E+00  1.23755293E+01  1.23755293E+01 -2.47510585E+01  0.00000000E+00
  1.23755293E+01  1.23755293E+01 -2.47510585E+01  0.00000000E+00  1.23755293E+01
  1.23755293E+01 -2.47510585E+01  0.00000000E+00  1.23755293E+01  1.23755293E+01
 -2.47510585E+01  0.00000000E+00  1.23755293E+01  1.23755293E+01 -2.47510585E+01
  0.00000000E+00  1.23755293E+01  1.23755293E+01 -2.47510585E+01  0.00000000E+00
  1.23755293E+01  1.23755293E+01 -2.47510585E+01  0.00000000E+00  1.23755293E+01
  1.23755293E+01 -2.47510585E+01  0.00000000E+00  1.23755293E+01  1.23755293E+01
 -2.47510585E+01  0.00000000E+00  1.23755293E+01  1.23755293E+01 -2.47510585E+01
  0.00000000E+00  1.23755293E+01  1.23755293E+01 -2.47510585E+01  0.00000000E+00
  1.23755293E+01  1.23755293E+01 -2.47510585E+01  0.00000000E+00  1.23755293E+01
  1.23755293E+01 -2.47510585E+01  0.00000000E+00  1.23755293E+01  1.23755293E+01
 -2.47510585E+01  0.00000000E+00  1.23755293E+01  1.23755293E+01 -2.47510585E+01
  0.00000000E+00  1.23755293E+01  1.23755293E+01 -2.47510585E+01  0.00000000E+00
  1.23755293E+01  1.23755293E+01 -2.47510585E+01  0.00000000E+00  1.23755293E+01
  1.23755293E+01 -2.47510585E+01  0.00000000E+00  1.23755293E+01  1.23755293E+01
 -2.47510585E+01  0.00000000E+00  1.23755293E+01  1.23755293E+01 -2.47510585E+01
  0.00000000E+00  1.23755293E+01  1.23755293E+01 -2.47510585E+01  0.00000000E+00
  1.23755293E+01  1.23755293E+01 -2.47510585E+01  0.00000000E+00  1.23755293E+01
  1.23755293E+01 -2.47510585E+01  0.00000000E+00  1.23755293E+01  1.23755293E+01
 -2.47510585E+01  0.00000000E+00  1.23755293E+01  1.23755293E+01 -2.47510585E+01
  0.00000000E+00  1.23755293E+01  1.23755293E+01 -2.47510585E+01  0.00000000E+00
  1.23755293E+01  1.23755293E+01 -2.47510585E+01  0.00000000E+00  1.23755293E+01
  1.23755293E+01 -2.47510585E+01  0.00000000E+00  1.23755293E+01  1.23755293E+01
 -2.47510585E+01  0.00000000E+00  1.23755293E+01  1.23755293E+01 -2.47510585E+01
  0.00000000E+00  1.23755293E+01  1.23755293E+01 -2.47510585E+01  0.00000000E+00
  1.23755293E+01  1.23755293E+01 -2.47510585E+01  0.00000000E+00  1.23755293E+01
  1.23755293E+01 -2.47510585E+01  0.00000000E+00  1.23755293E+01  1.23755293E+01
 -2.47510585E+01  0.00000000E+00  1.23755293E+01  1.23755293E+01 -2.47510585E+01
  0.00000000E+00  1.23755293E+01  1.23755293E+01 -2.47510585E+01  0.00000000E+00
  1.23755293E+01  1.23755293E+01 -2.47510585E+01  0.00000000E+00  1.23755293E+01
  1.23755293E+01 -2.47510585E+01  0.00000000E+00  1.23755293E+01  1.23755293E+01
 -2.47510585E+01  0.00000000E+00  1.23755293E+01  1.23755293E+01 -2.47510585E+01
  0.00000000E+00  1.23755293E+01  1.23755293E+01 -2.47510585E+01  0.00000000E+00
  1.23755293E+01  1.23755293E+01 -2.47510585E+01  0.00000000E+00  1.23755293E+01
  1.23755293E+01 -2.47510585E+01  0.00000000E+00  1.23755293E+01  1.23755293E+01
 -2.47510585E+01  0.00000000E+00  1.23755293E+01  1.23755293E+01 -2.47510585E+01
  0.00000000E+00  1.23755293E+01  1.23755293E+01 -2.47510585E+01  0.00000000E+00
  1.23755293E+01  1.23755293E+01 -2.47510585E+01  0.00000000E+00  1.23755293E+01
  1.23755293E+01 -2.47510585E+01  0.00000000E+00  1.23755293E+01  1.23755293E+01
 -2.47510585E+01  0.00000000E+00  1.23755293E+01  1.23755293E+01 -2.47510585E+01
  0.00000000E+00  1.23755293E+01  1.23755293E+01 -2.47510585E+01  0.00000000E+00
  1.23755293E+01  1.23755293E+01 -2.47510585E+01  0.00000000E+00  1.23755293E+01
  1.23755293E+01 -2.47510585E+01  0.00000000E+00  1.23755293E+01  1.23755293E+01
 -2.47510585E+01  0.00000000E+00  1.23755293E+01  1.23755293E+01 -2.47510585E+01
  0.00000000E+00  1.23755293E+01  1.23755293E+01 -2.47510585E+01  0.00000000E+00
  1.23755293E+01  1.23755293E+01 -2.47510585E+01  0.00000000E+00  1.23755293E+01
  1.23755293E+01 -2.47510585E+01  0.00000000E+00  1.23755293E+01  1.23755293E+01
 -2.47510585E+01  0.00000000E+00  1.23755293E+01  1.23755293E+01 -2.47510585E+01
  0.00000000E+00  1.23755293E+01  1.23755293E+01 -2.47510585E+01  0.00000000E+00
  1.23755293E+01  1.23755293E+01 -2.47510585E+01  0.00000000E+00  1.23755293E+01
  1.23755293E+01 -2.47510585E+01  0.00000000E+00  1.23755293E+01  1.23755293E+01
 -2.47510585E+01  0.00000000E+00  1.23755293E+01  1.23755293E+01 -2.47510585E+01
  0.00000000E+00  1.23755293E+01  1.23755293E+01 -2.47510585E+01  0.00000000E+00
  1.23755293E+01  1.23755293E+01 -2.47510585E+01  0.00000000E+00  1.23755293E+01
  1.23755293E+01 -2.47510585E+01  0.00000000E+00  1.23755293E+01  1.23755293E+01
 -2.47510585E+01  0.00000000E+00  1.23755293E+01  1.23755293E+01 -2.47510585E+01
  0.00000000E+00  1.23755293E+01  1.23755293E+01 -2.47510585E+01  0.00000000E+00
  1.23755293E+01  1.23755293E+01 -2.47510585E+01  0.00000000E+00  1.23755293E+01
  1.23755293E+01 -2.47510585E+01  0.00000000E+00  1.23755293E+01  1.23755293E+01
 -2.47510585E+01  0.00000000E+00  1.23755293E+01  1.23755293E+01 -2.47510585E+01
  0.00000000E+00  1.23755293E+01  1.23755293E+01 -2.47510585E+01  0.00000000E+00
  1.23755293E+01  1.23755293E+01 -2.47510585E+01  0.00000000E+00  1.23755293E+01
  1.23755293E+01 -2.47510585E+01  0.00000000E+00  1.23755293E+01  1.23755293E+01
 -2.47510585E+01  0.00000000E+00  1.23755293E+01  1.23755293E+01 -2.47510585E+01
  0.00000000E+00  1.23755293E+01  1.23755293E+01 -2.47510585E+01  0.00000000E+00
  1.23755293E+01  1.23755293E+01 -2.47510585E+01  0.00000000E+00  1.23755293E+01
  1.23755293E+01 -2.47510585E+01  0.00000000E+00  1.23755293E+01  1.23755293E+01
 -2.47510585E+01  0.00000000E+00  1.23755293E+01  1.23755293E+01 -2.47510585E+01
  0.00000000E+00  1.23755293E+01  1.23755293E+01 -2.47510585E+01  0.00000000E+00
  1.23755293E+01  1.23755293E+01 -2.47510585E+01  0.00000000E+00  1.23755293E+01
  1.23755293E+01 -2.47510585E+01  0.00000000E+00  1.23755293E+01  1.23755293E+01
 -2.47510585E+01  0.00000000E+00  1.23755293E+01  1.23755293E+01 -2.47510585E+01
  0.00000000E+00  1.23755293E+01  1.23755293E+01 -2.47510585E+01  0.00000000E+00
  1.23755293E+01  1.23755293E+01 -2.47510585E+01  0.00000000E+00  1.23755293E+01
  1.23755293E+01 -2.47510585E+01  0.00000000E+00  1.23755293E+01  1.23755293E+01
 -2.47510585E+01  0.00000000E+00  1.23755293E+01  1.23755293E+01 -2.47510585E+01
  0.00000000E+00  1.23755293E+01  1.23755293E+01 -2.47510585E+01  0.00000000E+00
  1.23755293E+01  1.23755293E+01 -2.47510585E+01  0.00000000E+00  1.23755293E+01
  1.23755293E+01 -2.47510585E+01  0.00000000E+00  1.23755293E+01  1.23755293E+01
 -2.47510585E+01  0.00000000E+00  1.23755293E+01  1.23755293E+01 -2.47510585E+01
  0.00000000E+00  1.23755293E+01  1.23755293E+01 -2.47510585E+01  0.00000000E+00
  1.23755293E+01  1.23755293E+01 -2.47510585E+01  0.00000000E+00  1.23755293E+01
  1.23755293E+01 -2.47510585E+01  0.00000000E+00  1.23755293E+01  1.23755293E+01
 -2.47510585E+01  0.00000000E+00  1.23755293E+01  1.23755293E+01 -2.47510585E+01
  0.00000000E+00  1.23755293E+01  1.23755293E+01 -2.47510585E+01  0.00000000E+00
  1.23755293E+01  1.23755293E+01 -2.47510585E+01  0.00000000E+00  1.23755293E+01
  1.23755293E+01 -2.47510585E+01  0.00000000E+00  1.23755293E+01  1.23755293E+01
 -2.47510585E+01  0.00000000E+00  1.23755293E+01  1.23755293E+01 -2.47510585E+01
  0.00000000E+00  1.23755293E+01  1.23755293E+01 -2.47510585E+01  0.00000000E+00
  1.23755293E+01  1.23755293E+01 -2.47510585E+01  0.00000000E+00  1.23755293E+01
  1.23755293E+01 -2.47510585E+01  0.00000000E+00  1.23755293E+01  1.23755293E+01
 -2.47510585E+01  0.00000000E+00  1.23755293E+01  1.23755293E+01 -2.47510585E+01
  0.00000000E+00  1.23755293E+01  1.23755293E+01 -2.47510585E+01  0.00000000E+00
  1.23755293E+01  1.23755293E+01 -2.47510585E+01  0.00000000E+00  1.23755293E+01
  1.23755293E+01 -2.47510585E+01  0.00000000E+00  1.23755293E+01  1.23755293E+01
 -2.47510585E+01  0.00000000E+00  1.23755293E+01  1.23755293E+01 -2.47510585E+01
  0.00000000E+00  1.23755293E+01  1.23755293E+01 -2.47510585E+01  0.00000000E+00
  1.23755293E+01  1.23755293E+01 -2.47510585E+01  0.00000000E+00  1.23755293E+01
  1.23755293E+01 -2.47510585E+01  0.00000000E+00  1.23755293E+01  1.23755293E+01
 -2.47510585E+01  0.00000000E+00  1.23755293E+01  1.23755293E+01 -2.47510585E+01
  0.00000000E+00  1.23755293E+01  1.23755293E+01 -2.47510585E+01  0.00000000E+00
  1.23755293E+01  1.23755293E+01 -2.47510585E+01  0.00000000E+00  1.23755293E+01
  1.23755293E+01 -2.47510585E+01  0.00000000E+00  1.23755293E+01  1.23755293E+01
 -2.47510585E+01  0.00000000E+00  1.23755293E+01  1.23755293E+01 -2.47510585E+01
  0.00000000E+00  1.23755293E+01  1.23755293E+01 -2.47510585E+01  0.00000000E+00
  1.23755293E+01  1.23755293E+01 -2.47510585E+01  0.00000000E+00  1.23755293E+01
  1.23755293E+01 -2.47510585E+01  0.00000000E+00  1.23755293E+01  1.23755293E+01
 -2.47510585E+01  0.00000000E+00  1.23755293E+01  1.23755293E+01 -2.47510585E+01
  0.00000000E+00  1.23755293E+01  1.23755293E+01 -2.47510585E+01  0.00000000E+00
  1.23755293E+01  1.23755293E+01 -2.47510585E+01  0.00000000E+00  1.23755293E+01
  1.23755293E+01 -2.47510585E+01  0.00000000E+00  1.23755293E+01  1.23755293E+01
 -2.47510585E+01  0.00000000E+00  1.23755293E+01  1.23755293E+01 -2.47510585E+01
  0.00000000E+00  1.23755293E+01  1.23755293E+01 -2.47510585E+01  0.00000000E+00
  1.23755293E+01  1.23755293E+01 -2.47510585E+01  0.00000000E+00  1.23755293E+01
  1.23755293E+01 -2.47510585E+01  0.00000000E+00  1.23755293E+01  1.23755293E+01
 -2.47510585E+01  0.00000000E+00  1.23755293E+01  1.23755293E+01 -2.47510585E+01
  0.00000000E+00  1.23755293E+01  1.23755293E+01 -2.47510585E+01  0.00000000E+00
  1.23755293E+01  1.23755293E+01 -2.47510585E+01  0.00000000E+00  1.23755293E+01
  1.23755293E+01 -2.47510585E+01  0.00000000E+00  1.23755293E+01  1.23755293E+01
 -2.47510585E+01  0.00000000E+00  1.23755293E+01  1.23755293E+01 -2.47510585E+01
  0.00000000E+00  1.23755293E+01  1.23755293E+01 -2.47510585E+01  0.00000000E+00
  1.23755293E+01  1.23755293E+01 -2.47510585E+01  0.00000000E+00  1.23755293E+01
  1.23755293E+01 -2.47510585E+01  0.00000000E+00  1.23755293E+01  1.23755293E+01
 -2.47510585E+01  0.00000000E+00  1.23755293E+01  1.23755293E+01 -2.47510585E+01
  0.00000000E+00  1.23755293E+01  1.23755293E+01 -2.47510585E+01  0.00000000E+00
  1.23755293E+01  1.23755293E+01 -2.47510585E+01  0.00000000E+00  1.23755293E+01
  1.23755293E+01 -2.47510585E+01  0.00000000E+00  1.23755293E+01  1.23755293E+01
 -2.47510585E+01  0.00000000E+00  1.23755293E+01  1.23755293E+01 -2.47510585E+01
  0.00000000E+00  1.23755293E+01  1.23755293E+01 -2.47510585E+01  0.00000000E+00
  1.23755293E+01  1.23755293E+01 -2.47510585E+01  0.00000000E+00  1.23755293E+01
  1.23755293E+01 -2.47510585E+01  0.00000000E+00  1.23755293E+01  1.23755293E+01
 -2.47510585E+01  0.00000000E+00  1.23755293E+01  1.23755293E+01 -2.47510585E+01
  0.00000000E+00  1.23755293E+01  1.23755293E+01 -2.47510585E+01  0.00000000E+00
  1.23755293E+01  1.23755293E+01 -2.47510585E+01  0.00000000E+00  1.23755293E+01
  1.23755293E+01 -2.47510585E+01  0.00000000E+00  1.23755293E+01  1.23755293E+01
 -2.47510585E+01  0.00000000E+00  1.23755293E+01  1.23755293E+01 -2.47510585E+01
  0.00000000E+00  1.23755293E+01  1.23755293E+01 -2.47510585E+01  0.00000000E+00
  1.23755293E+01  1.23755293E+01 -2.47510585E+01  0.00000000E+00  1.23755293E+01
  1.23755293E+01 -2.47510585E+01  0.00000000E+00  1.23755293E+01  1.23755293E+01
 -2.47510585E+01  0.00000000E+00  1.23755293E+01  1.23755293E+01 -2.47510585E+01
  0.00000000E+00  1.23755293E+01  1.23755293E+01 -2.47510585E+01  0.00000000E+00
  1.23755293E+01  1.23755293E+01 -2.47510585E+01  0.00000000E+00  1.23755293E+01
  1.23755293E+01 -2.47510585E+01  0.00000000E+00  1.23755293E+01  1.23755293E+01
 -2.47510585E+01  0.00000000E+00  1.23755293E+01  1.23755293E+01 -2.47510585E+01
  0.00000000E+00  1.23755293E+01  1.23755293E+01 -2.47510585E+01  0.00000000E+00
  1.23755293E+01  1.23755293E+01 -2.47510585E+01  0.00000000E+00  1.23755293E+01
  1.23755293E+01 -2.47510585E+01  0.00000000E+00  1.23755293E+01  1.23755293E+01
 -2.47510585E+01  0.00000000E+00  1.23755293E+01  1.23755293E+01 -2.47510585E+01
  0.00000000E+00  1.23755293E+01  1.23755293E+01 -2.47510585E+01  0.00000000E+00
  1.23755293E+01  1.23755293E+01 -2.47510585E+01  0.00000000E+00  1.23755293E+01
  1.23755293E+01 -2.47510585E+01  0.00000000E+00  1.23755293E+01  1.23755293E+01
 -2.47510585E+01  0.00000000E+00  1.23755293E+01  1.23755293E+01 -2.47510585E+01
  0.00000000E+00  1.23755293E+01  1.23755293E+01 -2.47510585E+01  0.00000000E+00
  1.23755293E+01  1.23755293E+01 -2.47510585E+01  0.00000000E+00  1.23755293E+01
  1.23755293E+01 -2.47510585E+01  0.00000000E+00  1.23755293E+01  1.23755293E+01
 -2.47510585E+01  0.00000000E+00  1.23755293E+01  1.23755293E+01 -2.47510585E+01
  0.00000000E+00  1.23755293E+01  1.23755293E+01 -2.47510585E+01  0.00000000E+00
  1.23755293E+01  1.23755293E+01 -2.47510585E+01  0.00000000E+00  1.23755293E+01
  1.23755293E+01 -2.47510585E+01  0.00000000E+00  1.23755293E+01  1.23755293E+01
 -2.47510585E+01  0.00000000E+00  1.23755293E+01  1.23755293E+01 -2.47510585E+01
  0.00000000E+00  1.23755293E+01  1.23755293E+01 -2.47510585E+01  0.00000000E+00
  1.23755293E+01  1.23755293E+01 -2.47510585E+01  0.00000000E+00  1.23755293E+01
  1.23755293E+01 -2.47510585E+01  0.00000000E+00  1.23755293E+01  1.23755293E+01
 -2.47510585E+01  0.00000000E+00  1.23755293E+01  1.23755293E+01 -2.47510585E+01
  0.00000000E+00  1.23755293E+01  1.23755293E+01 -2.47510585E+01  0.00000000E+00
  1.23755293E+01  1.23755293E+01 -2.47510585E+01  0.00000000E+00  1.23755293E+01
  1.23755293E+01 -2.47510585E+01  0.00000000E+00  1.23755293E+01  1.23755293E+01
 -2.47510585E+01  0.00000000E+00  1.23755293E+01  1.23755293E+01 -2.47510585E+01
  0.00000000E+00  1.23755293E+01  1.23755293E+01 -2.47510585E+01  0.00000000E+00
  1.23755293E+01  1.23755293E+01 -2.47510585E+01  0.00000000E+00  1.23755293E+01
  1.23755293E+01 -2.47510585E+01  0.00000000E+00  1.23755293E+01  1.23755293E+01
 -2.47510585E+01  0.00000000E+00  1.23755293E+01  1.23755293E+01 -2.47510585E+01
  0.00000000E+00  1.23755293E+01  1.23755293E+01 -2.47510585E+01  0.00000000E+00
  1.23755293E+01  1.23755293E+01 -2.47510585E+01  0.00000000E+00  1.23755293E+01
  1.23755293E+01 -2.47510585E+01  0.00000000E+00  1.23755293E+01  1.23755293E+01
 -2.47510585E+01  0.00000000E+00  1.23755293E+01  1.23755293E+01 -2.47510585E+01
  0.00000000E+00  1.23755293E+01  1.23755293E+01 -2.47510585E+01  0.00000000E+00
  1.23755293E+01  1.23755293E+01 -2.47510585E+01  0.00000000E+00  1.23755293E+01
  1.23755293E+01 -2.47510585E+01  0.00000000E+00  1.23755293E+01  1.23755293E+01
 -2.47510585E+01  0.00000000E+00  1.23755293E+01  1.23755293E+01 -2.47510585E+01
  0.00000000E+00  1.23755293E+01  1.23755293E+01 -2.47510585E+01  0.00000000E+00
  1.23755293E+01  1.23755293E+01 -2.47510585E+01  0.00000000E+00  1.23755293E+01
  1.23755293E+01 -2.47510585E+01  0.00000000E+00  1.23755293E+01  1.23755293E+01
 -2.47510585E+01  0.00000000E+00  1.23755293E+01  1.23755293E+01 -2.47510585E+01
  0.00000000E+00  1.23755293E+01  1.23755293E+01 -2.47510585E+01  0.00000000E+00
  1.23755293E+01  1.23755293E+01 -2.47510585E+01  0.00000000E+00  1.23755293E+01
  1.23755293E+01 -2.47510585E+01  0.00000000E+00  1.23755293E+01  1.23755293E+01
 -2.47510585E+01  0.00000000E+00  1.23755293E+01  1.23755293E+01 -2.47510585E+01
  0.00000000E+00  1.23755293E+01  1.23755293E+01 -2.47510585E+01  0.00000000E+00
  1.23755293E+01  1.23755293E+01 -2.47510585E+01  0.00000000E+00  1.23755293E+01
  1.23755293E+01 -2.47510585E+01  0.00000000E+00  1.23755293E+01  1.23755293E+01
 -2.47510585E+01  0.00000000E+00  1.23755293E+01  1.23755293E+01 -2.47510585E+01
  0.00000000E+00  1.23755293E+01  1.23755293E+01 -2.47510585E+01  0.00000000E+00
  1.23755293E+01  1.23755293E+01 -2.47510585E+01  0.00000000E+00  1.23755293E+01
  1.23755293E+01 -2.47510585E+01  0.00000000E+00  1.23755293E+01  1.23755293E+01
 -2.47510585E+01  0.00000000E+00  1.23755293E+01  1.23755293E+01 -2.47510585E+01
  0.00000000E+00  1.23755293E+01  1.23755293E+01 -2.47510585E+01  0.00000000E+00
  1.23755293E+01  1.23755293E+01 -2.47510585E+01  0.00000000E+00  1.23755293E+01
  1.23755293E+01 -2.47510585E+01  0.00000000E+00  1.23755293E+01  1.23755293E+01
 -2.47510585E+01  0.00000000E+00  1.23755293E+01  1.23755293E+01 -2.47510585E+01
  0.00000000E+00  1.23755293E+01  1.23755293E+01 -2.47510585E+01  0.00000000E+00
  1.23755293E+01  1.23755293E+01 -2.47510585E+01  0.00000000E+00  1.23755293E+01
  1.23755293E+01 -2.47510585E+01  0.00000000E+00  1.23755293E+01  1.23755293E+01
 -2.47510585E+01  0.00000000E+00  1.23755293E+01  1.23755293E+01 -2.47510585E+01
  0.00000000E+00  1.23755293E+01  1.23755293E+01 -2.47510585E+01  0.00000000E+00
  1.23755293E+01  1.23755293E+01 -2.47510585E+01  0.00000000E+00  1.23755293E+01
  1.23755293E+01 -2.47510585E+01  0.00000000E+00  1.23755293E+01  1.23755293E+01
 -2.47510585E+01  0.00000000E+00  1.23755293E+01  1.23755293E+01 -2.47510585E+01
  0.00000000E+00  1.23755293E+01  1.23755293E+01 -2.47510585E+01  0.00000000E+00
  1.23755293E+01  1.23755293E+01 -2.47510585E+01  0.00000000E+00  1.23755293E+01
  1.23755293E+01 -2.47510585E+01  0.00000000E+00  1.23755293E+01  1.23755293E+01
 -2.47510585E+01  0.00000000E+00  1.23755293E+01  1.23755293E+01 -2.47510585E+01
  0.00000000E+00  1.23755293E+01  1.23755293E+01 -2.47510585E+01  0.00000000E+00
  1.23755293E+01  1.23755293E+01 -2.47510585E+01  0.00000000E+00  1.23755293E+01
  1.23755293E+01 -2.47510585E+01  0.00000000E+00  1.23755293E+01  1.23755293E+01
 -2.47510585E+01  0.00000000E+00  1.23755293E+01  1.23755293E+01 -2.47510585E+01
  0.00000000E+00  1.23755293E+01  1.23755293E+01 -2.47510585E+01  0.00000000E+00
  1.23755293E+01  1.23755293E+01 -2.47510585E+01  0.00000000E+00  1.23755293E+01
  1.23755293E+01 -2.47510585E+01  0.00000000E+00  1.23755293E+01  1.23755293E+01
 -2.47510585E+01  0.00000000E+00  1.23755293E+01  1.23755293E+01 -2.47510585E+01
  0.00000000E+00  1.23755293E+01  1.23755293E+01 -2.47510585E+01  0.00000000E+00
  1.23755293E+01  1.23755293E+01 -2.47510585E+01  0.00000000E+00  1.23755293E+01
  1.23755293E+01 -2.47510585E+01  0.00000000E+00  1.23755293E+01  1.23755293E+01
 -2.47510585E+01  0.00000000E+00  1.23755293E+01  1.23755293E+01 -2.47510585E+01
  0.00000000E+00  1.23755293E+01  1.23755293E+01 -2.47510585E+01  0.00000000E+00
  1.23755293E+01  1.23755293E+01 -2.47510585E+01  0.00000000E+00  1.23755293E+01
  1.23755293E+01 -2.47510585E+01  0.00000000E+00  1.23755293E+01  1.23755293E+01
 -2.47510585E+01  0.00000000E+00  1.23755293E+01  1.23755293E+01 -2.47510585E+01
  0.00000000E+00  1.23755293E+01  1.23755293E+01 -2.47510585E+01  0.00000000E+00
  1.23755293E+01  1.23755293E+01 -2.47510585E+01  0.00000000E+00  1.23755293E+01
  1.23755293E+01 -2.47510585E+01  0.00000000E+00  1.23755293E+01  1.23755293E+01
 -2.47510585E+01  0.00000000E+00  1.23755293E+01  1.23755293E+01 -2.47510585E+01
  0.00000000E+00  1.23755293E+01  1.23755293E+01 -2.47510585E+01  0.00000000E+00
  1.23755293E+01  1.23755293E+01 -2.47510585E+01  0.00000000E+00  1.23755293E+01
  1.23755293E+01 -2.47510585E+01  0.00000000E+00  1.23755293E+01  1.23755293E+01
 -2.47510585E+01  0.00000000E+00  1.23755293E+01  1.23755293E+01 -2.47510585E+01
  0.00000000E+00  1.23755293E+01  1.23755293E+01 -2.47510585E+01  0.00000000E+00
  1.23755293E+01  1.23755293E+01 -2.47510585E+01  0.00000000E+00  1.23755293E+01
  1.23755293E+01 -2.47510585E+01  0.00000000E+00  1.23755293E+01  1.23755293E+01
 -2.47510585E+01  0.00000000E+00  1.23755293E+01  1.23755293E+01 -2.47510585E+01
  0.00000000E+00  1.23755293E+01  1.23755293E+01 -2.47510585E+01  0.00000000E+00
  1.23755293E+01  1.23755293E+01 -2.47510585E+01  0.00000000E+00  1.23755293E+01
  1.23755293E+01 -2.47510585E+01  0.00000000E+00  1.23755293E+01  1.23755293E+01
 -2.47510585E+01  0.00000000E+00  1.23755293E+01  1.23755293E+01 -2.47510585E+01
  0.00000000E+00  1.23755293E+01  1.23755293E+01 -2.47510585E+01  0.00000000E+00
  1.23755293E+01  1.23755293E+01 -2.47510585E+01  0.00000000E+00  1.23755293E+01
  1.23755293E+01 -2.47510585E+01  0.00000000E+00  1.23755293E+01  1.23755293E+01
 -2.47510585E+01  0.00000000E+00  1.23755293E+01  1.23755293E+01 -2.47510585E+01
  0.00000000E+00  1.23755293E+01  1.23755293E+01 -2.47510585E+01  0.00000000E+00
  1.23755293E+01  1.23755293E+01 -2.47510585E+01  0.00000000E+00  1.23755293E+01
  1.23755293E+01 -2.47510585E+01  0.00000000E+00  1.23755293E+01  1.23755293E+01
 -2.47510585E+01  0.00000000E+00  1.23755293E+01  1.23755293E+01 -2.47510585E+01
  0.00000000E+00  1.23755293E+01  1.23755293E+01 -2.47510585E+01  0.00000000E+00
  1.23755293E+01  1.23755293E+01 -2.47510585E+01  0.00000000E+00  1.23755293E+01
  1.23755293E+01 -2.47510585E+01  0.00000000E+00  1.23755293E+01  1.23755293E+01
 -2.47510585E+01  0.00000000E+00  1.23755293E+01  1.23755293E+01 -2.47510585E+01
  0.00000000E+00  1.23755293E+01  1.23755293E+01 -2.47510585E+01  0.00000000E+00
  1.23755293E+01  1.23755293E+01 -2.47510585E+01  0.00000000E+00  1.23755293E+01
  1.23755293E+01 -2.47510585E+01  0.00000000E+00  1.23755293E+01  1.23755293E+01
 -2.47510585E+01  0.00000000E+00  1.23755293E+01  1.23755293E+01 -2.47510585E+01
  0.00000000E+00  1.23755293E+01  1.23755293E+01 -2.47510585E+01  0.00000000E+00
  1.23755293E+01  1.23755293E+01 -2.47510585E+01  0.00000000E+00  1.23755293E+01
  1.23755293E+01 -2.47510585E+01  0.00000000E+00  1.23755293E+01  1.23755293E+01
 -2.47510585E+01  0.00000000E+00  1.23755293E+01  1.23755293E+01 -2.47510585E+01
  0.00000000E+00  1.23755293E+01  1.23755293E+01 -2.47510585E+01  0.00000000E+00
  1.23755293E+01  1.23755293E+01 -2.47510585E+01  0.00000000E+00  1.23755293E+01
  1.23755293E+01 -2.47510585E+01  0.00000000E+00  1.23755293E+01  1.23755293E+01
 -2.47510585E+01  0.00000000E+00  1.23755293E+01  1.23755293E+01 -2.47510585E+01
  0.00000000E+00  1.23755293E+01  1.23755293E+01 -2.47510585E+01  0.00000000E+00
  1.23755293E+01  1.23755293E+01 -2.47510585E+01  0.00000000E+00  1.23755293E+01
  1.23755293E+01 -2.47510585E+01  0.00000000E+00  1.23755293E+01  1.23755293E+01
 -2.47510585E+01  0.00000000E+00  1.23755293E+01  1.23755293E+01 -2.47510585E+01
  0.00000000E+00  1.23755293E+01  1.23755293E+01 -2.47510585E+01  0.00000000E+00
  1.23755293E+01  1.23755293E+01 -2.47510585E+01  0.00000000E+00  1.23755293E+01
  1.23755293E+01 -2.47510585E+01  0.00000000E+00  1.23755293E+01  1.23755293E+01
 -2.47510585E+01  0.00000000E+00  1.23755293E+01  1.23755293E+01 -2.47510585E+01
  0.00000000E+00  1.23755293E+01  1.23755293E+01 -2.47510585E+01  0.00000000E+00
  1.23755293E+01  1.23755293E+01 -2.47510585E+01  0.00000000E+00  1.23755293E+01
  1.23755293E+01 -2.47510585E+01  0.00000000E+00  1.23755293E+01  1.23755293E+01
 -2.47510585E+01  0.00000000E+00  1.23755293E+01  1.23755293E+01 -2.47510585E+01
  0.00000000E+00  1.23755293E+01  1.23755293E+01 -2.47510585E+01  0.00000000E+00
  1.23755293E+01  1.23755293E+01 -2.47510585E+01  0.00000000E+00  1.23755293E+01
  1.23755293E+01 -2.47510585E+01  0.00000000E+00  1.23755293E+01  1.23755293E+01
 -2.47510585E+01  0.00000000E+00  1.23755293E+01  1.23755293E+01 -2.47510585E+01
  0.00000000E+00  1.23755293E+01  1.23755293E+01 -2.47510585E+01  0.00000000E+00
  1.23755293E+01  1.23755293E+01 -2.47510585E+01  0.00000000E+00  1.23755293E+01
  1.23755293E+01 -2.47510585E+01  0.00000000E+00  1.23755293E+01  1.23755293E+01
 -2.47510585E+01  0.00000000E+00  1.23755293E+01  1.23755293E+01 -2.47510585E+01
  0.00000000E+00  1.23755293E+01  1.23755293E+01 -2.47510585E+01  0.00000000E+00
  1.23755293E+01  1.23755293E+01 -2.47510585E+01  0.00000000E+00  1.23755293E+01
  1.23755293E+01 -2.47510585E+01  0.00000000E+00  1.23755293E+01  1.23755293E+01
 -2.47510585E+01  0.00000000E+00  1.23755293E+01  1.23755293E+01 -2.47510585E+01
  0.00000000E+00  1.23755293E+01  1.23755293E+01 -2.47510585E+01  0.00000000E+00
  1.23755293E+01  1.23755293E+01 -2.47510585E+01  0.00000000E+00  1.23755293E+01
  1.23755293E+01 -2.47510585E+01  0.00000000E+00  1.23755293E+01  1.23755293E+01
 -2.47510585E+01  0.00000000E+00  1.23755293E+01  1.23755293E+01 -2.47510585E+01
  0.00000000E+00  1.23755293E+01  1.23755293E+01 -2.47510585E+01  0.00000000E+00
  1.23755293E+01  1.23755293E+01 -2.47510585E+01  0.00000000E+00  1.23755293E+01
  1.23755293E+01 -2.47510585E+01  0.00000000E+00  1.23755293E+01  1.23755293E+01
 -2.47510585E+01  0.00000000E+00  1.23755293E+01  1.23755293E+01 -2.47510585E+01
  0.00000000E+00  1.23755293E+01  1.23755293E+01 -2.47510585E+01  0.00000000E+00
  1.23755293E+01  1.23755293E+01 -2.47510585E+01  0.00000000E+00  1.23755293E+01
  1.23755293E+01 -2.47510585E+01  0.00000000E+00  1.23755293E+01  1.23755293E+01
 -2.47510585E+01  0.00000000E+00  1.23755293E+01  1.23755293E+01 -2.47510585E+01
  0.00000000E+00  1.23755293E+01  1.23755293E+01 -2.47510585E+01  0.00000000E+00
  1.23755293E+01  1.23755293E+01 -2.47510585E+01  0.00000000E+00  1.23755293E+01
  1.23755293E+01 -2.47510585E+01  0.00000000E+00  1.23755293E+01  1.23755293E+01
 -2.47510585E+01  0.00000000E+00  1.23755293E+01  1.23755293E+01 -2.47510585E+01
  0.00000000E+00  1.23755293E+01  1.23755293E+01 -2.47510585E+01  0.00000000E+00
  1.23755293E+01  1.23755293E+01 -2.47510585E+01  0.00000000E+00  1.23755293E+01
  1.23755293E+01 -2.47510585E+01  0.00000000E+00  1.23755293E+01  1.23755293E+01
 -2.47510585E+01  0.00000000E+00  1.23755293E+01  1.23755293E+01 -2.47510585E+01
  0.00000000E+00  1.23755293E+01  1.23755293E+01 -2.47510585E+01  0.00000000E+00
  1.23755293E+01  1.23755293E+01 -2.47510585E+01  0.00000000E+00  1.23755293E+01
  1.23755293E+01 -2.47510585E+01  0.00000000E+00  1.23755293E+01  1.23755293E+01
 -2.47510585E+01  0.00000000E+00  1.23755293E+01  1.23755293E+01 -2.47510585E+01
  0.00000000E+00  1.23755293E+01  1.23755293E+01 -2.47510585E+01  0.00000000E+00
  1.23755293E+01  1.23755293E+01 -2.47510585E+01  0.00000000E+00  1.23755293E+01
  1.23755293E+01 -2.47510585E+01  0.00000000E+00  1.23755293E+01  1.23755293E+01
 -2.47510585E+01  0.00000000E+00  1.23755293E+01  1.23755293E+01 -2.47510585E+01
  0.00000000E+00  1.23755293E+01  1.23755293E+01 -2.47510585E+01  0.00000000E+00
  1.23755293E+01  1.23755293E+01 -2.47510585E+01  0.00000000E+00  1.23755293E+01
  1.23755293E+01 -2.47510585E+01  0.00000000E+00  1.23755293E+01  1.23755293E+01
 -2.47510585E+01  0.00000000E+00  1.23755293E+01  1.23755293E+01 -2.47510585E+01
  0.00000000E+00  1.23755293E+01  1.23755293E+01 -2.47510585E+01  0.00000000E+00
  1.23755293E+01  1.23755293E+01 -2.47510585E+01  0.00000000E+00  1.23755293E+01
  1.23755293E+01 -2.47510585E+01  0.00000000E+00  1.23755293E+01  1.23755293E+01
 -2.47510585E+01  0.00000000E+00  1.23755293E+01  1.23755293E+01 -2.47510585E+01
  0.00000000E+00  1.23755293E+01  1.23755293E+01 -2.47510585E+01  0.00000000E+00
  1.23755293E+01  1.23755293E+01 -2.47510585E+01  0.00000000E+00  1.23755293E+01
  1.23755293E+01 -2.47510585E+01  0.00000000E+00  1.23755293E+01  1.23755293E+01
 -2.47510585E+01  0.00000000E+00  1.23755293E+01  1.23755293E+01 -2.47510585E+01
  0.00000000E+00  1.23755293E+01  1.23755293E+01 -2.47510585E+01  0.00000000E+00
  1.23755293E+01  1.23755293E+01 -2.47510585E+01  0.00000000E+00  1.23755293E+01
  1.23755293E+01 -2.47510585E+01  0.00000000E+00  1.23755293E+01  1.23755293E+01
 -2.47510585E+01  0.00000000E+00  1.23755293E+01  1.23755293E+01 -2.47510585E+01
  0.00000000E+00  1.23755293E+01  1.23755293E+01 -2.47510585E+01  0.00000000E+00
  1.23755293E+01  1.23755293E+01 -2.47510585E+01  0.00000000E+00  1.23755293E+01
  1.23755293E+01 -2.47510585E+01  0.00000000E+00  1.23755293E+01  1.23755293E+01
 -2.47510585E+01  0.00000000E+00  1.23755293E+01  1.23755293E+01 -2.47510585E+01
  0.00000000E+00  1.23755293E+01  1.23755293E+01 -2.47510585E+01  0.00000000E+00
  1.23755293E+01  1.23755293E+01 -2.47510585E+01  0.00000000E+00  1.23755293E+01
  1.23755293E+01 -2.47510585E+01  0.00000000E+00  1.23755293E+01  1.23755293E+01
 -2.47510585E+01  0.00000000E+00  1.23755293E+01  1.23755293E+01 -2.47510585E+01
  0.00000000E+00  1.23755293E+01  1.23755293E+01 -2.47510585E+01  0.00000000E+00
  1.23755293E+01  1.23755293E+01 -2.47510585E+01  0.00000000E+00  1.23755293E+01
  1.23755293E+01 -2.47510585E+01  0.00000000E+00  1.23755293E+01  1.23755293E+01
 -2.47510585E+01  0.00000000E+00  1.23755293E+01  1.23755293E+01 -2.47510585E+01
  0.00000000E+00  1.23755293E+01  1.23755293E+01 -2.47510585E+01  0.00000000E+00
  1.23755293E+01  1.23755293E+01 -2.47510585E+01  0.00000000E+00  1.23755293E+01
  1.23755293E+01 -2.47510585E+01  0.00000000E+00  1.23755293E+01  1.23755293E+01
 -2.47510585E+01  0.00000000E+00  1.23755293E+01  1.23755293E+01 -2.47510585E+01
  0.00000000E+00  1.23755293E+01  1.23755293E+01 -2.47510585E+01  0.00000000E+00
  1.23755293E+01  1.23755293E+01 -2.47510585E+01  0.00000000E+00  1.23755293E+01
  1.23755293E+01 -2.47510585E+01  0.00000000E+00  1.23755293E+01  1.23755293E+01
 -2.47510585E+01  0.00000000E+00  1.23755293E+01  1.23755293E+01 -2.47510585E+01
  0.00000000E+00  1.23755293E+01  1.23755293E+01 -2.47510585E+01  0.00000000E+00
  1.23755293E+01  1.23755293E+01 -2.47510585E+01  0.00000000E+00  1.23755293E+01
  1.23755293E+01 -2.47510585E+01  0.00000000E+00  1.23755293E+01  1.23755293E+01
 -2.47510585E+01  0.00000000E+00  1.23755293E+01  1.23755293E+01 -2.47510585E+01
  0.00000000E+00  1.23755293E+01  1.23755293E+01 -2.47510585E+01  0.00000000E+00
  1.23755293E+01  1.23755293E+01 -2.47510585E+01  0.00000000E+00  1.23755293E+01
  1.23755293E+01 -2.47510585E+01  0.00000000E+00  1.23755293E+01  1.23755293E+01
 -2.47510585E+01  0.00000000E+00  1.23755293E+01  1.23755293E+01 -2.47510585E+01
  0.00000000E+00  1.23755293E+01  1.23755293E+01 -2.47510585E+01  0.00000000E+00
  1.23755293E+01  1.23755293E+01 -2.47510585E+01  0.00000000E+00  1.23755293E+01
  1.23755293E+01 -2.47510585E+01  0.00000000E+00  1.23755293E+01  1.23755293E+01
 -2.47510585E+01  0.00000000E+00  1.23755293E+01  1.23755293E+01 -2.47510585E+01
  0.00000000E+00  1.23755293E+01  1.23755293E+01 -2.47510585E+01  0.00000000E+00
  1.23755293E+01  1.23755293E+01 -2.47510585E+01  0.00000000E+00  1.23755293E+01
  1.23755293E+01 -2.47510585E+01  0.00000000E+00  1.23755293E+01  1.23755293E+01
 -2.47510585E+01  0.00000000E+00  1.23755293E+01  1.23755293E+01 -2.47510585E+01
  0.00000000E+00  1.23755293E+01  1.23755293E+01 -2.47510585E+01  0.00000000E+00
  1.23755293E+01  1.23755293E+01 -2.47510585E+01  0.00000000E+00  1.23755293E+01
  1.23755293E+01 -2.47510585E+01  0.00000000E+00  1.23755293E+01  1.23755293E+01
 -2.47510585E+01  0.00000000E+00  1.23755293E+01  1.23755293E+01 -2.47510585E+01
  0.00000000E+00  1.23755293E+01  1.23755293E+01 -2.47510585E+01  0.00000000E+00
  1.23755293E+01  1.23755293E+01 -2.47510585E+01  0.00000000E+00  1.23755293E+01
  1.23755293E+01 -2.47510585E+01  0.00000000E+00  1.23755293E+01  1.23755293E+01
 -2.47510585E+01  0.00000000E+00  1.23755293E+01  1.23755293E+01 -2.47510585E+01
  0.00000000E+00  1.23755293E+01  1.23755293E+01 -2.47510585E+01  0.00000000E+00
  1.23755293E+01  1.23755293E+01 -2.47510585E+01  0.00000000E+00  1.23755293E+01
  1.23755293E+01 -2.47510585E+01  0.00000000E+00  1.23755293E+01  1.23755293E+01
 -2.47510585E+01  0.00000000E+00  1.23755293E+01  1.23755293E+01 -2.47510585E+01
  0.00000000E+00  1.23755293E+01  1.23755293E+01 -2.47510585E+01  0.00000000E+00
  1.23755293E+01  1.23755293E+01 -2.47510585E+01  0.00000000E+00  1.23755293E+01
  1.23755293E+01 -2.47510585E+01  0.00000000E+00  1.23755293E+01  1.23755293E+01
 -2.47510585E+01  0.00000000E+00  1.23755293E+01  1.23755293E+01 -2.47510585E+01
  0.00000000E+00  1.23755293E+01  1.23755293E+01 -2.47510585E+01  0.00000000E+00
  1.23755293E+01  1.23755293E+01 -2.47510585E+01  0.00000000E+00  1.23755293E+01
  1.23755293E+01 -2.47510585E+01  0.00000000E+00  1.23755293E+01  1.23755293E+01
 -2.47510585E+01  0.00000000E+00  1.23755293E+01  1.23755293E+01 -2.47510585E+01
  0.00000000E+00  1.23755293E+01  1.23755293E+01 -2.47510585E+01  0.00000000E+00
  1.23755293E+01  1.23755293E+01 -2.47510585E+01  0.00000000E+00  1.23755293E+01
  1.23755293E+01 -2.47510585E+01  0.00000000E+00  1.23755293E+01  1.23755293E+01
 -2.47510585E+01  0.00000000E+00  1.23755293E+01  1.23755293E+01 -2.47510585E+01
  0.00000000E+00  1.23755293E+01  1.23755293E+01 -2.47510585E+01  0.00000000E+00
  1.23755293E+01  1.23755293E+01 -2.47510585E+01  0.00000000E+00  1.23755293E+01
  1.23755293E+01 -2.47510585E+01  0.00000000E+00  1.23755293E+01  1.23755293E+01
 -2.47510585E+01  0.00000000E+00  1.23755293E+01  1.23755293E+01 -2.47510585E+01
  0.00000000E+00  1.23755293E+01  1.23755293E+01 -2.47510585E+01  0.00000000E+00
  1.23755293E+01  1.23755293E+01 -2.47510585E+01  0.00000000E+00  1.23755293E+01
  1.23755293E+01 -2.47510585E+01  0.00000000E+00  1.23755293E+01  1.23755293E+01
 -2.47510585E+01  0.00000000E+00  1.23755293E+01  1.23755293E+01 -2.47510585E+01
  0.00000000E+00  1.23755293E+01  1.23755293E+01 -2.47510585E+01  0.00000000E+00
  1.23755293E+01  1.23755293E+01 -2.47510585E+01  0.00000000E+00  1.23755293E+01
  1.23755293E+01 -2.47510585E+01  0.00000000E+00  1.23755293E+01  1.23755293E+01
 -2.47510585E+01  0.00000000E+00  1.23755293E+01  1.23755293E+01 -2.47510585E+01
  0.00000000E+00  1.23755293E+01  1.23755293E+01 -2.47510585E+01  0.00000000E+00
  1.23755293E+01  1.23755293E+01 -2.47510585E+01  0.00000000E+00  1.23755293E+01
  1.23755293E+01 -2.47510585E+01  0.00000000E+00  1.23755293E+01  1.23755293E+01
 -2.47510585E+01  0.00000000E+00  1.23755293E+01  1.23755293E+01 -2.47510585E+01
  0.00000000E+00  1.23755293E+01  1.23755293E+01 -2.47510585E+01  0.00000000E+00
  1.23755293E+01  1.23755293E+01 -2.47510585E+01  0.00000000E+00  1.23755293E+01
  1.23755293E+01 -2.47510585E+01  0.00000000E+00  1.23755293E+01  1.23755293E+01
 -2.47510585E+01  0.00000000E+00  1.23755293E+01  1.23755293E+01 -2.47510585E+01
  0.00000000E+00  1.23755293E+01  1.23755293E+01 -2.47510585E+01  0.00000000E+00
  1.23755293E+01  1.23755293E+01 -2.47510585E+01  0.00000000E+00  1.23755293E+01
  1.23755293E+01 -2.47510585E+01  0.00000000E+00  1.23755293E+01  1.23755293E+01
 -2.47510585E+01  0.00000000E+00  1.23755293E+01  1.23755293E+01 -2.47510585E+01
  0.00000000E+00  1.23755293E+01  1.23755293E+01 -2.47510585E+01  0.00000000E+00
  1.23755293E+01  1.23755293E+01 -2.47510585E+01  0.00000000E+00  1.23755293E+01
  1.23755293E+01 -2.47510585E+01  0.00000000E+00  1.23755293E+01  1.23755293E+01
 -2.47510585E+01  0.00000000E+00  1.23755293E+01  1.23755293E+01 -2.47510585E+01
  0.00000000E+00  1.23755293E+01  1.23755293E+01 -2.47510585E+01  0.00000000E+00
  1.23755293E+01  1.23755293E+01 -2.47510585E+01  0.00000000E+00  1.23755293E+01
  1.23755293E+01 -2.47510585E+01  0.00000000E+00  1.23755293E+01  1.23755293E+01
 -2.47510585E+01  0.00000000E+00  1.23755293E+01  1.23755293E+01 -2.47510585E+01
  0.00000000E+00  1.23755293E+01  1.23755293E+01 -2.47510585E+01  0.00000000E+00
  1.23755293E+01  1.23755293E+01 -2.47510585E+01  0.00000000E+00  1.23755293E+01
  1.23755293E+01 -2.47510585E+01  0.00000000E+00  1.23755293E+01  1.23755293E+01
 -2.47510585E+01  0.00000000E+00  1.23755293E+01  1.23755293E+01 -2.47510585E+01
  0.00000000E+00  1.23755293E+01  1.23755293E+01 -2.47510585E+01  0.00000000E+00
  1.23755293E+01  1.23755293E+01 -2.47510585E+01  0.00000000E+00  1.23755293E+01
  1.23755293E+01 -2.47510585E+01  0.00000000E+00  1.23755293E+01  1.23755293E+01
 -2.47510585E+01  0.00000000E+00  1.23755293E+01  1.23755293E+01 -2.47510585E+01
  0.00000000E+00  1.23755293E+01  1.23755293E+01 -2.47510585E+01  0.00000000E+00
  1.23755293E+01  1.23755293E+01 -2.47510585E+01  0.00000000E+00  1.23755293E+01
  1.23755293E+01 -2.47510585E+01  0.00000000E+00  1.23755293E+01  1.23755293E+01
 -2.47510585E+01  0.00000000E+00  1.23755293E+01  1.23755293E+01 -2.47510585E+01
  0.00000000E+00  1.23755293E+01  1.23755293E+01 -2.47510585E+01  0.00000000E+00
  1.23755293E+01  1.23755293E+01 -2.47510585E+01  0.00000000E+00  1.23755293E+01
  1.23755293E+01 -2.47510585E+01  0.00000000E+00  1.23755293E+01  1.23755293E+01
 -2.47510585E+01  0.00000000E+00  1.23755293E+01  1.23755293E+01 -2.47510585E+01
  0.00000000E+00  1.23755293E+01  1.23755293E+01 -2.47510585E+01  0.00000000E+00
  1.23755293E+01  1.23755293E+01 -2.47510585E+01  0.00000000E+00  1.23755293E+01
  1.23755293E+01 -2.47510585E+01  0.00000000E+00  1.23755293E+01  1.23755293E+01
 -2.47510585E+01  0.00000000E+00  1.23755293E+01  1.23755293E+01 -2.47510585E+01
  0.00000000E+00  1.23755293E+01  1.23755293E+01 -2.47510585E+01  0.00000000E+00
  1.23755293E+01  1.23755293E+01 -2.47510585E+01  0.00000000E+00  1.23755293E+01
  1.23755293E+01 -2.47510585E+01  0.00000000E+00  1.23755293E+01  1.23755293E+01
 -2.47510585E+01  0.00000000E+00  1.23755293E+01  1.23755293E+01 -2.47510585E+01
  0.00000000E+00  1.23755293E+01  1.23755293E+01 -2.47510585E+01  0.00000000E+00
  1.23755293E+01  1.23755293E+01 -2.47510585E+01  0.00000000E+00  1.23755293E+01
  1.23755293E+01 -2.47510585E+01  0.00000000E+00  1.23755293E+01  1.23755293E+01
 -2.47510585E+01  0.00000000E+00  1.23755293E+01  1.23755293E+01 -2.47510585E+01
  0.00000000E+00  1.23755293E+01  1.23755293E+01 -2.47510585E+01  0.00000000E+00
  1.23755293E+01  1.23755293E+01 -2.47510585E+01  0.00000000E+00  1.23755293E+01
  1.23755293E+01 -2.47510585E+01  0.00000000E+00  1.23755293E+01  1.23755293E+01
 -2.47510585E+01  0.00000000E+00  1.23755293E+01  1.23755293E+01 -2.47510585E+01
  0.00000000E+00  1.23755293E+01  1.23755293E+01 -2.47510585E+01  0.00000000E+00
  1.23755293E+01  1.23755293E+01 -2.47510585E+01  0.00000000E+00  1.23755293E+01
  1.23755293E+01 -2.47510585E+01  0.00000000E+00  1.23755293E+01  1.23755293E+01
 -2.47510585E+01  0.00000000E+00  1.23755293E+01  1.23755293E+01 -2.47510585E+01
  0.00000000E+00  1.23755293E+01  1.23755293E+01 -2.47510585E+01  0.00000000E+00
  1.23755293E+01  1.23755293E+01 -2.47510585E+01  0.00000000E+00  1.23755293E+01
  1.23755293E+01 -2.47510585E+01  0.00000000E+00  1.23755293E+01  1.23755293E+01
 -2.47510585E+01  0.00000000E+00  1.23755293E+01  1.23755293E+01 -2.47510585E+01
  0.00000000E+00  1.23755293E+01  1.23755293E+01 -2.47510585E+01  0.00000000E+00
  1.23755293E+01  1.23755293E+01 -2.47510585E+01  0.00000000E+00  1.23755293E+01
  1.23755293E+01 -2.47510585E+01  0.00000000E+00  1.23755293E+01  1.23755293E+01
 -2.47510585E+01  0.00000000E+00  1.23755293E+01  1.23755293E+01 -2.47510585E+01
  0.00000000E+00  1.23755293E+01  1.23755293E+01 -2.47510585E+01  0.00000000E+00
  1.23755293E+01  1.23755293E+01 -2.47510585E+01  0.00000000E+00  1.23755293E+01
  1.23755293E+01 -2.47510585E+01  0.00000000E+00  1.23755293E+01  1.23755293E+01
 -2.47510585E+01  0.00000000E+00  1.23755293E+01  1.23755293E+01 -2.47510585E+01
  0.00000000E+00  1.23755293E+01  1.23755293E+01 -2.47510585E+01  0.00000000E+00
  1.23755293E+01  1.23755293E+01 -2.47510585E+01  0.00000000E+00  1.23755293E+01
  1.23755293E+01 -2.47510585E+01  0.00000000E+00  1.23755293E+01  1.23755293E+01
 -2.47510585E+01  0.00000000E+00  1.23755293E+01  1.23755293E+01 -2.47510585E+01
  0.00000000E+00  1.23755293E+01  1.23755293E+01 -2.47510585E+01  0.00000000E+00
  1.23755293E+01  1.23755293E+01 -2.47510585E+01  0.00000000E+00  1.23755293E+01
  1.23755293E+01 -2.47510585E+01  0.00000000E+00  1.23755293E+01  1.23755293E+01
 -2.47510585E+01  0.00000000E+00  1.23755293E+01  1.23755293E+01 -2.47510585E+01
  0.00000000E+00  1.23755293E+01  1.23755293E+01 -2.47510585E+01  0.00000000E+00
  1.23755293E+01  1.23755293E+01 -2.47510585E+01  0.00000000E+00  1.23755293E+01
  1.23755293E+01 -2.47510585E+01  0.00000000E+00  1.23755293E+01  1.23755293E+01
 -2.47510585E+01  0.00000000E+00  1.23755293E+01  1.23755293E+01 -2.47510585E+01
  0.00000000E+00  1.23755293E+01  1.23755293E+01 -2.47510585E+01  0.00000000E+00
  1.23755293E+01  1.23755293E+01 -2.47510585E+01  0.00000000E+00  1.23755293E+01
  1.23755293E+01 -2.47510585E+01  0.00000000E+00  1.23755293E+01  1.23755293E+01
 -2.47510585E+01  0.00000000E+00  1.23755293E+01  1.23755293E+01 -2.47510585E+01
  0.00000000E+00  1.23755293E+01  1.23755293E+01 -2.47510585E+01  0.00000000E+00
  1.23755293E+01  1.23755293E+01 -2.47510585E+01  0.00000000E+00  1.23755293E+01
  1.23755293E+01 -2.47510585E+01  0.00000000E+00  1.23755293E+01  1.23755293E+01
 -2.47510585E+01  0.00000000E+00  1.23755293E+01  1.23755293E+01 -2.47510585E+01
  0.00000000E+00  1.23755293E+01  1.23755293E+01 -2.47510585E+01  0.00000000E+00
  1.23755293E+01  1.23755293E+01 -2.47510585E+01  0.00000000E+00  1.23755293E+01
  1.23755293E+01 -2.47510585E+01  0.00000000E+00  1.23755293E+01  1.23755293E+01
 -2.47510585E+01  0.00000000E+00  1.23755293E+01  1.23755293E+01 -2.47510585E+01
  0.00000000E+00  1.23755293E+01  1.23755293E+01 -2.47510585E+01  0.00000000E+00
  1.23755293E+01  1.23755293E+01 -2.47510585E+01  0.00000000E+00  1.23755293E+01
  1.23755293E+01 -2.47510585E+01  0.00000000E+00  1.23755293E+01  1.23755293E+01
 -2.47510585E+01  0.00000000E+00  1.23755293E+01  1.23755293E+01 -2.47510585E+01
  0.00000000E+00  1.23755293E+01  1.23755293E+01 -2.47510585E+01  0.00000000E+00
  1.23755293E+01  1.23755293E+01 -2.47510585E+01  0.00000000E+00  1.23755293E+01
  1.23755293E+01 -2.47510585E+01  0.00000000E+00  1.23755293E+01  1.23755293E+01
 -2.47510585E+01  0.00000000E+00  1.23755293E+01  1.23755293E+01 -2.47510585E+01
  0.00000000E+00  1.23755293E+01  1.23755293E+01 -2.47510585E+01  0.00000000E+00
  1.23755293E+01  1.23755293E+01 -2.47510585E+01  0.00000000E+00  1.23755293E+01
  1.23755293E+01 -2.47510585E+01  0.00000000E+00  1.23755293E+01  1.23755293E+01
 -2.47510585E+01  0.00000000E+00  1.23755293E+01  1.23755293E+01 -2.47510585E+01
  0.00000000E+00  1.23755293E+01  1.23755293E+01 -2.47510585E+01  0.00000000E+00
  1.23755293E+01  1.23755293E+01 -2.47510585E+01  0.00000000E+00  1.23755293E+01
  1.23755293E+01 -2.47510585E+01  0.00000000E+00  1.23755293E+01  1.23755293E+01
 -2.47510585E+01  0.00000000E+00  1.23755293E+01  1.23755293E+01 -2.47510585E+01
  0.00000000E+00  1.23755293E+01  1.23755293E+01 -2.47510585E+01  0.00000000E+00
  1.23755293E+01  1.23755293E+01 -2.47510585E+01  0.00000000E+00  1.23755293E+01
  1.23755293E+01 -2.47510585E+01  0.00000000E+00  1.23755293E+01  1.23755293E+01
 -2.47510585E+01  0.00000000E+00  1.23755293E+01  1.23755293E+01 -2.47510585E+01
  0.00000000E+00  1.23755293E+01  1.23755293E+01 -2.47510585E+01  0.00000000E+00
  1.23755293E+01  1.23755293E+01 -2.47510585E+01  0.00000000E+00  1.23755293E+01
  1.23755293E+01 -2.47510585E+01  0.00000000E+00  1.23755293E+01  1.23755293E+01
 -2.47510585E+01  0.00000000E+00  1.23755293E+01  1.23755293E+01 -2.47510585E+01
  0.00000000E+00  1.23755293E+01  1.23755293E+01 -2.47510585E+01  0.00000000E+00
  1.23755293E+01  1.23755293E+01 -2.47510585E+01  0.00000000E+00  1.23755293E+01
  1.23755293E+01 -2.47510585E+01  0.00000000E+00  1.23755293E+01  1.23755293E+01
 -2.47510585E+01  0.00000000E+00  1.23755293E+01  1.23755293E+01 -2.47510585E+01
  0.00000000E+00  1.23755293E+01  1.23755293E+01 -2.47510585E+01  0.00000000E+00
  1.23755293E+01  1.23755293E+01 -2.47510585E+01  0.00000000E+00  1.23755293E+01
  1.23755293E+01 -2.47510585E+01  0.00000000E+00  1.23755293E+01  1.23755293E+01
 -2.47510585E+01  0.00000000E+00  1.23755293E+01  1.23755293E+01 -2.47510585E+01
  0.00000000E+00  1.23755293E+01  1.23755293E+01 -2.47510585E+01  0.00000000E+00
  1.23755293E+01  1.23755293E+01 -2.47510585E+01  0.00000000E+00  1.23755293E+01
  1.23755293E+01 -2.47510585E+01  0.00000000E+00  1.23755293E+01  1.23755293E+01
 -2.47510585E+01  0.00000000E+00  1.23755293E+01  1.23755293E+01 -2.47510585E+01
  0.00000000E+00  1.23755293E+01  1.23755293E+01 -2.47510585E+01  0.00000000E+00
  1.23755293E+01  1.23755293E+01 -2.47510585E+01  0.00000000E+00  1.23755293E+01
  1.23755293E+01 -2.47510585E+01  0.00000000E+00  1.23755293E+01  1.23755293E+01
 -2.47510585E+01  0.00000000E+00  1.23755293E+01  1.23755293E+01 -2.47510585E+01
  0.00000000E+00  1.23755293E+01  1.23755293E+01 -2.47510585E+01  0.00000000E+00
  1.23755293E+01  1.23755293E+01 -2.47510585E+01  0.00000000E+00  1.23755293E+01
  1.23755293E+01 -2.47510585E+01  0.00000000E+00  1.23755293E+01  1.23755293E+01
 -2.47510585E+01  0.00000000E+00  1.23755293E+01  1.23755293E+01 -2.47510585E+01
  0.00000000E+00  1.23755293E+01  1.23755293E+01 -2.47510585E+01  0.00000000E+00
  1.23755293E+01  1.23755293E+01 -2.47510585E+01  0.00000000E+00  1.23755293E+01
  1.23755293E+01 -2.47510585E+01  0.00000000E+00  1.23755293E+01  1.23755293E+01
 -2.47510585E+01  0.00000000E+00  1.23755293E+01  1.23755293E+01 -2.47510585E+01
  0.00000000E+00  1.23755293E+01  1.23755293E+01 -2.47510585E+01  0.00000000E+00
  1.23755293E+01  1.23755293E+01 -2.47510585E+01  0.00000000E+00  1.23755293E+01
  1.23755293E+01 -2.47510585E+01  0.00000000E+00  1.23755293E+01  1.23755293E+01
 -2.47510585E+01  0.00000000E+00  1.23755293E+01  1.23755293E+01 -2.47510585E+01
  0.00000000E+00  1.23755293E+01  1.23755293E+01 -2.47510585E+01  0.00000000E+00
  1.23755293E+01  1.23755293E+01 -2.47510585E+01  0.00000000E+00  1.23755293E+01
  1.23755293E+01 -2.47510585E+01  0.00000000E+00  1.23755293E+01  1.23755293E+01
 -2.47510585E+01  0.00000000E+00  1.23755293E+01  1.23755293E+01 -2.47510585E+01
  0.00000000E+00  1.23755293E+01  1.23755293E+01 -2.47510585E+01  0.00000000E+00
  1.23755293E+01  1.23755293E+01 -2.47510585E+01  0.00000000E+00  1.23755293E+01
  1.23755293E+01 -2.47510585E+01  0.00000000E+00  1.23755293E+01  1.23755293E+01
 -2.47510585E+01  0.00000000E+00  1.23755293E+01  1.23755293E+01 -2.47510585E+01
  0.00000000E+00  1.23755293E+01  1.23755293E+01 -2.47510585E+01  0.00000000E+00
  1.23755293E+01  1.23755293E+01 -2.47510585E+01  0.00000000E+00  1.23755293E+01
  1.23755293E+01 -2.47510585E+01  0.00000000E+00  1.23755293E+01  1.23755293E+01
 -2.47510585E+01  0.00000000E+00  1.23755293E+01  1.23755293E+01 -2.47510585E+01
  0.00000000E+00  1.23755293E+01  1.23755293E+01 -2.47510585E+01  0.00000000E+00
  1.23755293E+01  1.23755293E+01 -2.47510585E+01  0.00000000E+00  1.23755293E+01
  1.23755293E+01 -2.47510585E+01  0.00000000E+00  1.23755293E+01  1.23755293E+01
 -2.47510585E+01  0.00000000E+00  1.23755293E+01  1.23755293E+01 -2.47510585E+01
  0.00000000E+00  1.23755293E+01  1.23755293E+01 -2.47510585E+01  0.00000000E+00
  1.23755293E+01  1.23755293E+01 -2.47510585E+01  0.00000000E+00  1.23755293E+01
  1.23755293E+01 -2.47510585E+01  0.00000000E+00  1.23755293E+01  1.23755293E+01
 -2.47510585E+01  0.00000000E+00  1.23755293E+01  1.23755293E+01 -2.47510585E+01
  0.00000000E+00  1.23755293E+01  1.23755293E+01 -2.47510585E+01  0.00000000E+00
  1.23755293E+01  1.23755293E+01 -2.47510585E+01  0.00000000E+00  1.23755293E+01
  1.23755293E+01 -2.47510585E+01  0.00000000E+00  1.23755293E+01  1.23755293E+01
 -2.47510585E+01  0.00000000E+00  1.23755293E+01  1.23755293E+01 -2.47510585E+01
  0.00000000E+00  1.23755293E+01  1.23755293E+01 -2.47510585E+01  0.00000000E+00
  1.23755293E+01  1.23755293E+01 -2.47510585E+01  0.00000000E+00  1.23755293E+01
  1.23755293E+01 -2.47510585E+01  0.00000000E+00  1.23755293E+01  1.23755293E+01
 -2.47510585E+01  0.00000000E+00  1.23755293E+01  1.23755293E+01 -2.47510585E+01
  0.00000000E+00  1.23755293E+01  1.23755293E+01 -2.47510585E+01  0.00000000E+00
  1.23755293E+01  1.23755293E+01 -2.47510585E+01  0.00000000E+00  1.23755293E+01
  1.23755293E+01 -2.47510585E+01  0.00000000E+00  1.23755293E+01  1.23755293E+01
 -2.47510585E+01  0.00000000E+00  1.23755293E+01  1.23755293E+01 -2.47510585E+01
  0.00000000E+00  1.23755293E+01  1.23755293E+01 -2.47510585E+01  0.00000000E+00
  1.23755293E+01  1.23755293E+01 -2.47510585E+01  0.00000000E+00  1.23755293E+01
  1.23755293E+01 -2.47510585E+01  0.00000000E+00  1.23755293E+01  1.23755293E+01
 -2.47510585E+01  0.00000000E+00  1.23755293E+01  1.23755293E+01 -2.47510585E+01
  0.00000000E+00  1.23755293E+01  1.23755293E+01 -2.47510585E+01  0.00000000E+00
  1.23755293E+01  1.23755293E+01 -2.47510585E+01  0.00000000E+00  1.23755293E+01
  1.23755293E+01 -2.47510585E+01  0.00000000E+00  1.23755293E+01  1.23755293E+01
 -2.47510585E+01  0.00000000E+00  1.23755293E+01  1.23755293E+01 -2.47510585E+01
  0.00000000E+00  1.23755293E+01  1.23755293E+01 -2.47510585E+01  0.00000000E+00
  1.23755293E+01  1.23755293E+01 -2.47510585E+01  0.00000000E+00  1.23755293E+01
  1.23755293E+01 -2.47510585E+01  0.00000000E+00  1.23755293E+01  1.23755293E+01
 -2.47510585E+01  0.00000000E+00  1.23755293E+01  1.23755293E+01 -2.47510585E+01
  0.00000000E+00  1.23755293E+01  1.23755293E+01 -2.47510585E+01  0.00000000E+00
  1.23755293E+01  1.23755293E+01 -2.47510585E+01  0.00000000E+00  1.23755293E+01
  1.23755293E+01 -2.47510585E+01  0.00000000E+00  1.23755293E+01  1.23755293E+01
 -2.47510585E+01  0.00000000E+00  1.23755293E+01  1.23755293E+01 -2.47510585E+01
  0.00000000E+00  1.23755293E+01  1.23755293E+01 -2.47510585E+01  0.00000000E+00
  1.23755293E+01  1.23755293E+01 -2.47510585E+01  0.00000000E+00  1.23755293E+01
  1.23755293E+01 -2.47510585E+01  0.00000000E+00  1.23755293E+01  1.23755293E+01
 -2.47510585E+01  0.00000000E+00  1.23755293E+01  1.23755293E+01 -2.47510585E+01
  0.00000000E+00  1.23755293E+01  1.23755293E+01 -2.47510585E+01  0.00000000E+00
  1.23755293E+01  1.23755293E+01 -2.47510585E+01  0.00000000E+00  1.23755293E+01
  1.23755293E+01 -2.47510585E+01  0.00000000E+00  1.23755293E+01  1.23755293E+01
 -2.47510585E+01  0.00000000E+00  1.23755293E+01  1.23755293E+01 -2.47510585E+01
  0.00000000E+00  1.23755293E+01  1.23755293E+01 -2.47510585E+01  0.00000000E+00
  1.23755293E+01  1.23755293E+01 -2.47510585E+01  0.00000000E+00  1.23755293E+01
  1.23755293E+01 -2.47510585E+01  0.00000000E+00  1.23755293E+01  1.23755293E+01
 -2.47510585E+01  0.00000000E+00  1.23755293E+01  1.23755293E+01 -2.47510585E+01
  0.00000000E+00  1.23755293E+01  1.23755293E+01 -2.47510585E+01  0.00000000E+00
  1.23755293E+01  1.23755293E+01 -2.47510585E+01  0.00000000E+00  1.23755293E+01
  1.23755293E+01 -2.47510585E+01  0.00000000E+00  1.23755293E+01  1.23755293E+01
 -2.47510585E+01  0.00000000E+00  1.23755293E+01  1.23755293E+01 -2.47510585E+01
  0.00000000E+00  1.23755293E+01  1.23755293E+01 -2.47510585E+01  0.00000000E+00
  1.23755293E+01  1.23755293E+01 -2.47510585E+01  0.00000000E+00  1.23755293E+01
  1.23755293E+01 -2.47510585E+01  0.00000000E+00  1.23755293E+01  1.23755293E+01
 -2.47510585E+01  0.00000000E+00  1.23755293E+01  1.23755293E+01 -2.47510585E+01
  0.00000000E+00  1.23755293E+01  1.23755293E+01 -2.47510585E+01  0.00000000E+00
  1.23755293E+01  1.23755293E+01 -2.47510585E+01  0.00000000E+00  1.23755293E+01
  1.23755293E+01 -2.47510585E+01  0.00000000E+00  1.23755293E+01  1.23755293E+01
 -2.47510585E+01  0.00000000E+00  1.23755293E+01  1.23755293E+01 -2.47510585E+01
  0.00000000E+00  1.23755293E+01  1.23755293E+01 -2.47510585E+01  0.00000000E+00
  1.23755293E+01  1.23755293E+01 -2.47510585E+01  0.00000000E+00  1.23755293E+01
  1.23755293E+01 -2.47510585E+01  0.00000000E+00  1.23755293E+01  1.23755293E+01
 -2.47510585E+01  0.00000000E+00  1.23755293E+01  1.23755293E+01 -2.47510585E+01
  0.00000000E+00  1.23755293E+01  1.23755293E+01 -2.47510585E+01  0.00000000E+00
  1.23755293E+01  1.23755293E+01 -2.47510585E+01  0.00000000E+00  1.23755293E+01
  1.23755293E+01 -2.47510585E+01  0.00000000E+00  1.23755293E+01  1.23755293E+01
 -2.47510585E+01  0.00000000E+00  1.23755293E+01  1.23755293E+01 -2.47510585E+01
  0.00000000E+00  1.23755293E+01  1.23755293E+01 -2.47510585E+01  0.00000000E+00
  1.23755293E+01  1.23755293E+01 -2.47510585E+01  0.00000000E+00  1.23755293E+01
  1.23755293E+01 -2.47510585E+01  0.00000000E+00  1.23755293E+01  1.23755293E+01
 -2.47510585E+01  0.00000000E+00  1.23755293E+01  1.23755293E+01 -2.47510585E+01
  0.00000000E+00  1.23755293E+01  1.23755293E+01 -2.47510585E+01  0.00000000E+00
  1.23755293E+01  1.23755293E+01 -2.47510585E+01  0.00000000E+00  1.23755293E+01
  1.23755293E+01 -2.47510585E+01  0.00000000E+00  1.23755293E+01  1.23755293E+01
 -2.47510585E+01  0.00000000E+00  1.23755293E+01  1.23755293E+01 -2.47510585E+01
  0.00000000E+00  1.23755293E+01  1.23755293E+01 -2.47510585E+01  0.00000000E+00
  1.23755293E+01  1.23755293E+01 -2.47510585E+01  0.00000000E+00  1.23755293E+01
  1.23755293E+01 -2.47510585E+01  0.00000000E+00  1.23755293E+01  1.23755293E+01
 -2.47510585E+01  0.00000000E+00  1.23755293E+01  1.23755293E+01 -2.47510585E+01
  0.00000000E+00  1.23755293E+01  1.23755293E+01 -2.47510585E+01  0.00000000E+00
  1.23755293E+01  1.23755293E+01 -2.47510585E+01  0.00000000E+00  1.23755293E+01
  1.23755293E+01 -2.47510585E+01  0.00000000E+00  1.23755293E+01  1.23755293E+01
 -2.47510585E+01  0.00000000E+00  1.23755293E+01  1.23755293E+01 -2.47510585E+01
  0.00000000E+00  1.23755293E+01  1.23755293E+01 -2.47510585E+01  0.00000000E+00
  1.23755293E+01  1.23755293E+01 -2.47510585E+01  0.00000000E+00  1.23755293E+01
  1.23755293E+01 -2.47510585E+01  0.00000000E+00  1.23755293E+01  1.23755293E+01
 -2.47510585E+01  0.00000000E+00  1.23755293E+01  1.23755293E+01 -2.47510585E+01
  0.00000000E+00  1.23755293E+01  1.23755293E+01 -2.47510585E+01  0.00000000E+00
  1.23755293E+01  1.23755293E+01 -2.47510585E+01  0.00000000E+00  1.23755293E+01
  1.23755293E+01 -2.47510585E+01  0.00000000E+00  1.23755293E+01  1.23755293E+01
 -2.47510585E+01  0.00000000E+00  1.23755293E+01  1.23755293E+01 -2.47510585E+01
  0.00000000E+00  1.23755293E+01  1.23755293E+01 -2.47510585E+01  0.00000000E+00
  1.23755293E+01  1.23755293E+01 -2.47510585E+01  0.00000000E+00  1.23755293E+01
  1.23755293E+01 -2.47510585E+01  0.00000000E+00  1.23755293E+01  1.23755293E+01
 -2.47510585E+01  0.00000000E+00  1.23755293E+01  1.23755293E+01 -2.47510585E+01
  0.00000000E+00  1.23755293E+01  1.23755293E+01 -2.47510585E+01  0.00000000E+00
  1.23755293E+01  1.23755293E+01 -2.47510585E+01  0.00000000E+00  1.23755293E+01
  1.23755293E+01 -2.47510585E+01  0.00000000E+00  1.23755293E+01  1.23755293E+01
 -2.47510585E+01  0.00000000E+00  1.23755293E+01  1.23755293E+01 -2.47510585E+01
  0.00000000E+00  1.23755293E+01  1.23755293E+01 -2.47510585E+01  0.00000000E+00
  1.23755293E+01  1.23755293E+01 -2.47510585E+01  0.00000000E+00  1.23755293E+01
  1.23755293E+01 -2.47510585E+01  0.00000000E+00  1.23755293E+01  1.23755293E+01
 -2.47510585E+01  0.00000000E+00  1.23755293E+01  1.23755293E+01 -2.47510585E+01
  0.00000000E+00  1.23755293E+01  1.23755293E+01 -2.47510585E+01  0.00000000E+00
  1.23755293E+01  1.23755293E+01 -2.47510585E+01  0.00000000E+00  1.23755293E+01
  1.23755293E+01 -2.47510585E+01  0.00000000E+00  1.23755293E+01  1.23755293E+01
 -2.47510585E+01  0.00000000E+00  1.23755293E+01  1.23755293E+01 -2.47510585E+01
  0.00000000E+00  1.23755293E+01  1.23755293E+01 -2.47510585E+01  0.00000000E+00
  1.23755293E+01  1.23755293E+01 -2.47510585E+01  0.00000000E+00  1.23755293E+01
  1.23755293E+01 -2.47510585E+01  0.00000000E+00  1.23755293E+01  1.23755293E+01
 -2.47510585E+01  0.00000000E+00  1.23755293E+01  1.23755293E+01 -2.47510585E+01
  0.00000000E+00  1.23755293E+01  1.23755293E+01 -2.47510585E+01  0.00000000E+00
  1.23755293E+01  1.23755293E+01 -2.47510585E+01  0.00000000E+00  1.23755293E+01
  1.23755293E+01 -2.47510585E+01  0.00000000E+00  1.23755293E+01  1.23755293E+01
 -2.47510585E+01  0.00000000E+00  1.23755293E+01  1.23755293E+01 -2.47510585E+01
  0.00000000E+00  1.23755293E+01  1.23755293E+01 -2.47510585E+01  0.00000000E+00
  1.23755293E+01  1.23755293E+01 -2.47510585E+01  0.00000000E+00  1.23755293E+01
  1.23755293E+01 -2.47510585E+01  0.00000000E+00  1.23755293E+01  1.23755293E+01
 -2.47510585E+01  0.00000000E+00  1.23755293E+01  1.23755293E+01 -2.47510585E+01
  0.00000000E+00  1.23755293E+01  1.23755293E+01 -2.47510585E+01  0.00000000E+00
  1.23755293E+01  1.23755293E+01 -2.47510585E+01  0.00000000E+00  1.23755293E+01
  1.23755293E+01 -2.47510585E+01  0.00000000E+00  1.23755293E+01  1.23755293E+01
 -2.47510585E+01  0.00000000E+00  1.23755293E+01  1.23755293E+01 -2.47510585E+01
  0.00000000E+00  1.23755293E+01  1.23755293E+01 -2.47510585E+01  0.00000000E+00
  1.23755293E+01  1.23755293E+01 -2.47510585E+01  0.00000000E+00  1.23755293E+01
  1.23755293E+01 -2.47510585E+01  0.00000000E+00  1.23755293E+01  1.23755293E+01
 -2.47510585E+01  0.00000000E+00  1.23755293E+01  1.23755293E+01 -2.47510585E+01
  0.00000000E+00  1.23755293E+01  1.23755293E+01 -2.47510585E+01  0.00000000E+00
  1.23755293E+01  1.23755293E+01 -2.47510585E+01  0.00000000E+00  1.23755293E+01
  1.23755293E+01 -2.47510585E+01  0.00000000E+00  1.23755293E+01  1.23755293E+01
 -2.47510585E+01  0.00000000E+00  1.23755293E+01  1.23755293E+01 -2.47510585E+01
  0.00000000E+00  1.23755293E+01  1.23755293E+01 -2.47510585E+01  0.00000000E+00
  1.23755293E+01  1.23755293E+01 -2.47510585E+01  0.00000000E+00  1.23755293E+01
  1.23755293E+01 -2.47510585E+01  0.00000000E+00  1.23755293E+01  1.23755293E+01
 -2.47510585E+01  0.00000000E+00  1.23755293E+01  1.23755293E+01 -2.47510585E+01
  0.00000000E+00  1.23755293E+01  1.23755293E+01 -2.47510585E+01  0.00000000E+00
  1.23755293E+01  1.23755293E+01 -2.47510585E+01  0.00000000E+00  1.23755293E+01
  1.23755293E+01 -2.47510585E+01  0.00000000E+00  1.23755293E+01  1.23755293E+01
 -2.47510585E+01  0.00000000E+00  1.23755293E+01  1.23755293E+01 -2.47510585E+01
  0.00000000E+00  1.23755293E+01  1.23755293E+01 -2.47510585E+01  0.00000000E+00
  1.23755293E+01  1.23755293E+01 -2.47510585E+01  0.00000000E+00  1.23755293E+01
  1.23755293E+01 -2.47510585E+01  0.00000000E+00  1.23755293E+01  1.23755293E+01
 -2.47510585E+01  0.00000000E+00  1.23755293E+01  1.23755293E+01 -2.47510585E+01
  0.00000000E+00  1.23755293E+01  1.23755293E+01 -2.47510585E+01  0.00000000E+00
  1.23755293E+01  1.23755293E+01 -2.47510585E+01  0.00000000E+00  1.23755293E+01
  1.23755293E+01 -2.47510585E+01  0.00000000E+00  1.23755293E+01  1.23755293E+01
 -2.47510585E+01  0.00000000E+00  1.23755293E+01  1.23755293E+01 -2.47510585E+01
  0.00000000E+00  1.23755293E+01  1.23755293E+01 -2.47510585E+01  0.00000000E+00
  1.23755293E+01  1.23755293E+01 -2.47510585E+01  0.00000000E+00  1.23755293E+01
  1.23755293E+01 -2.47510585E+01  0.00000000E+00  1.23755293E+01  1.23755293E+01
 -2.47510585E+01  0.00000000E+00  1.23755293E+01  1.23755293E+01 -2.47510585E+01
  0.00000000E+00  1.23755293E+01  1.23755293E+01 -2.47510585E+01  0.00000000E+00
  1.23755293E+01  1.23755293E+01 -2.47510585E+01  0.00000000E+00  1.23755293E+01
  1.23755293E+01 -2.47510585E+01  0.00000000E+00  1.23755293E+01  1.23755293E+01
 -2.47510585E+01  0.00000000E+00  1.23755293E+01  1.23755293E+01 -2.47510585E+01
  0.00000000E+00  1.23755293E+01  1.23755293E+01 -2.47510585E+01  0.00000000E+00
  1.23755293E+01  1.23755293E+01 -2.47510585E+01  0.00000000E+00  1.23755293E+01
  1.23755293E+01 -2.47510585E+01  0.00000000E+00  1.23755293E+01  1.23755293E+01
 -2.47510585E+01  0.00000000E+00  1.23755293E+01  1.23755293E+01 -2.47510585E+01
  0.00000000E+00  1.23755293E+01  1.23755293E+01 -2.47510585E+01  0.00000000E+00
  1.23755293E+01  1.23755293E+01 -2.47510585E+01  0.00000000E+00  1.23755293E+01
  1.23755293E+01 -2.47510585E+01  0.00000000E+00  1.23755293E+01  1.23755293E+01
 -2.47510585E+01  0.00000000E+00  1.23755293E+01  1.23755293E+01 -2.47510585E+01
  0.00000000E+00  1.23755293E+01  1.23755293E+01 -2.47510585E+01  0.00000000E+00
  1.23755293E+01  1.23755293E+01 -2.47510585E+01  0.00000000E+00  1.23755293E+01
  1.23755293E+01 -2.47510585E+01  0.00000000E+00  1.23755293E+01  1.23755293E+01
 -2.47510585E+01  0.00000000E+00  1.23755293E+01  1.23755293E+01 -2.47510585E+01
  0.00000000E+00  1.23755293E+01  1.23755293E+01 -2.47510585E+01  0.00000000E+00
  1.23755293E+01  1.23755293E+01 -2.47510585E+01  0.00000000E+00  1.23755293E+01
  1.23755293E+01 -2.47510585E+01  0.00000000E+00  1.23755293E+01  1.23755293E+01
 -2.47510585E+01  0.00000000E+00  1.23755293E+01  1.23755293E+01 -2.47510585E+01
  0.00000000E+00  1.23755293E+01  1.23755293E+01 -2.47510585E+01  0.00000000E+00
  1.23755293E+01  1.23755293E+01 -2.47510585E+01  0.00000000E+00  1.23755293E+01
  1.23755293E+01 -2.47510585E+01  0.00000000E+00  1.23755293E+01  1.23755293E+01
 -2.47510585E+01  0.00000000E+00  1.23755293E+01  1.23755293E+01 -2.47510585E+01
  0.00000000E+00  1.23755293E+01  1.23755293E+01 -2.47510585E+01  0.00000000E+00
  1.23755293E+01  1.23755293E+01 -2.47510585E+01  0.00000000E+00  1.23755293E+01
  1.23755293E+01 -2.47510585E+01  0.00000000E+00  1.23755293E+01  1.23755293E+01
 -2.47510585E+01  0.00000000E+00  1.23755293E+01  1.23755293E+01 -2.47510585E+01
  0.00000000E+00  1.23755293E+01  1.23755293E+01 -2.47510585E+01  0.00000000E+00
  1.23755293E+01  1.23755293E+01 -2.47510585E+01  0.00000000E+00  1.23755293E+01
  1.23755293E+01 -2.47510585E+01  0.00000000E+00  1.23755293E+01  1.23755293E+01
 -2.47510585E+01  0.00000000E+00  1.23755293E+01  1.23755293E+01 -2.47510585E+01
  0.00000000E+00  1.23755293E+01  1.23755293E+01 -2.47510585E+01  0.00000000E+00
  1.23755293E+01  1.23755293E+01 -2.47510585E+01  0.00000000E+00  1.23755293E+01
  1.23755293E+01 -2.47510585E+01  0.00000000E+00  1.23755293E+01  1.23755293E+01
 -2.47510585E+01  0.00000000E+00  1.23755293E+01  1.23755293E+01 -2.47510585E+01
  0.00000000E+00  1.23755293E+01  1.23755293E+01 -2.47510585E+01  0.00000000E+00
  1.23755293E+01  1.23755293E+01 -2.47510585E+01  0.00000000E+00  1.23755293E+01
  1.23755293E+01 -2.47510585E+01  0.00000000E+00  1.23755293E+01  1.23755293E+01
 -2.47510585E+01  0.00000000E+00  1.23755293E+01  1.23755293E+01 -2.47510585E+01
  0.00000000E+00  1.23755293E+01  1.23755293E+01 -2.47510585E+01  0.00000000E+00
  1.23755293E+01  1.23755293E+01 -2.47510585E+01  0.00000000E+00  1.23755293E+01
  1.23755293E+01 -2.47510585E+01  0.00000000E+00  1.23755293E+01  1.23755293E+01
 -2.47510585E+01  0.00000000E+00  1.23755293E+01  1.23755293E+01 -2.47510585E+01
  0.00000000E+00  1.23755293E+01  1.23755293E+01 -2.47510585E+01  0.00000000E+00
  1.23755293E+01  1.23755293E+01 -2.47510585E+01  0.00000000E+00  1.23755293E+01
  1.23755293E+01 -2.47510585E+01  0.00000000E+00  1.23755293E+01  1.23755293E+01
 -2.47510585E+01  0.00000000E+00  1.23755293E+01  1.23755293E+01 -2.47510585E+01
  0.00000000E+00  1.23755293E+01  1.23755293E+01 -2.47510585E+01  0.00000000E+00
  1.23755293E+01  1.23755293E+01 -2.47510585E+01  0.00000000E+00  1.23755293E+01
  1.23755293E+01 -2.47510585E+01  0.00000000E+00  1.23755293E+01  1.23755293E+01
 -2.47510585E+01  0.00000000E+00  1.23755293E+01  1.23755293E+01 -2.47510585E+01
  0.00000000E+00  1.23755293E+01  1.23755293E+01 -2.47510585E+01  0.00000000E+00
  1.23755293E+01  1.23755293E+01 -2.47510585E+01  0.00000000E+00  1.23755293E+01
  1.23755293E+01 -2.47510585E+01  0.00000000E+00  1.23755293E+01  1.23755293E+01
 -2.47510585E+01  0.00000000E+00  1.23755293E+01  1.23755293E+01 -2.47510585E+01
  0.00000000E+00  1.23755293E+01  1.23755293E+01 -2.47510585E+01  0.00000000E+00
  1.23755293E+01  1.23755293E+01 -2.47510585E+01  0.00000000E+00  1.23755293E+01
  1.23755293E+01 -2.47510585E+01  0.00000000E+00  1.23755293E+01  1.23755293E+01
 -2.47510585E+01  0.00000000E+00  1.23755293E+01  1.23755293E+01 -2.47510585E+01
  0.00000000E+00  1.23755293E+01  1.23755293E+01 -2.47510585E+01  0.00000000E+00
  1.23755293E+01  1.23755293E+01 -2.47510585E+01  0.00000000E+00  1.23755293E+01
  1.23755293E+01 -2.47510585E+01  0.00000000E+00  1.23755293E+01  1.23755293E+01
 -2.47510585E+01  0.00000000E+00  1.23755293E+01  1.23755293E+01 -2.47510585E+01
  0.00000000E+00  1.23755293E+01  1.23755293E+01 -2.47510585E+01  0.00000000E+00
  1.23755293E+01  1.23755293E+01 -2.47510585E+01  0.00000000E+00  1.23755293E+01
  1.23755293E+01 -2.47510585E+01  0.00000000E+00  1.23755293E+01  1.23755293E+01
 -2.47510585E+01  0.00000000E+00  1.23755293E+01  1.23755293E+01 -2.47510585E+01
  0.00000000E+00  1.23755293E+01  1.23755293E+01 -2.47510585E+01  0.00000000E+00
  1.23755293E+01  1.23755293E+01 -2.47510585E+01  0.00000000E+00  1.23755293E+01
  1.23755293E+01 -2.47510585E+01  0.00000000E+00  1.23755293E+01  1.23755293E+01
 -2.47510585E+01  0.00000000E+00  1.23755293E+01  1.23755293E+01 -2.47510585E+01
  0.00000000E+00  1.23755293E+01  1.23755293E+01 -2.47510585E+01  0.00000000E+00
  1.23755293E+01  1.23755293E+01 -2.47510585E+01  0.00000000E+00  1.23755293E+01
  1.23755293E+01 -2.47510585E+01  0.00000000E+00  1.23755293E+01  1.23755293E+01
 -2.47510585E+01  0.00000000E+00  1.23755293E+01  1.23755293E+01 -2.47510585E+01
  0.00000000E+00  1.23755293E+01  1.23755293E+01 -2.47510585E+01  0.00000000E+00
  1.23755293E+01  1.23755293E+01 -2.47510585E+01  0.00000000E+00  1.23755293E+01
  1.23755293E+01 -2.47510585E+01  0.00000000E+00  1.23755293E+01  1.23755293E+01
 -2.47510585E+01  0.00000000E+00  1.23755293E+01  1.23755293E+01 -2.47510585E+01
  0.00000000E+00  1.23755293E+01  1.23755293E+01 -2.47510585E+01  0.00000000E+00
  1.23755293E+01  1.23755293E+01 -2.47510585E+01  0.00000000E+00  1.23755293E+01
  1.23755293E+01 -2.47510585E+01  0.00000000E+00  1.23755293E+01  1.23755293E+01
 -2.47510585E+01  0.00000000E+00  1.23755293E+01  1.23755293E+01 -2.47510585E+01
  0.00000000E+00  1.23755293E+01  1.23755293E+01 -2.47510585E+01  0.00000000E+00
  1.23755293E+01  1.23755293E+01 -2.47510585E+01  0.00000000E+00  1.23755293E+01
  1.23755293E+01 -2.47510585E+01  0.00000000E+00  1.23755293E+01  1.23755293E+01
 -2.47510585E+01  0.00000000E+00  1.23755293E+01  1.23755293E+01 -2.47510585E+01
  0.00000000E+00  1.23755293E+01  1.23755293E+01 -2.47510585E+01  0.00000000E+00
  1.23755293E+01  1.23755293E+01 -2.47510585E+01  0.00000000E+00  1.23755293E+01
  1.23755293E+01 -2.47510585E+01  0.00000000E+00  1.23755293E+01  1.23755293E+01
 -2.47510585E+01  0.00000000E+00  1.23755293E+01  1.23755293E+01 -2.47510585E+01
  0.00000000E+00  1.23755293E+01  1.23755293E+01 -2.47510585E+01  0.00000000E+00
  1.23755293E+01  1.23755293E+01 -2.47510585E+01  0.00000000E+00  1.23755293E+01
  1.23755293E+01 -2.47510585E+01  0.00000000E+00  1.23755293E+01  1.23755293E+01
 -2.47510585E+01  0.00000000E+00  1.23755293E+01  1.23755293E+01 -2.47510585E+01
  0.00000000E+00  1.23755293E+01  1.23755293E+01 -2.47510585E+01  0.00000000E+00
  1.23755293E+01  1.23755293E+01 -2.47510585E+01  0.00000000E+00  1.23755293E+01
  1.23755293E+01 -2.47510585E+01  0.00000000E+00  1.23755293E+01  1.23755293E+01
 -2.47510585E+01  0.00000000E+00  1.23755293E+01  1.23755293E+01 -2.47510585E+01
  0.00000000E+00  1.23755293E+01  1.23755293E+01 -2.47510585E+01  0.00000000E+00
  1.23755293E+01  1.23755293E+01 -2.47510585E+01  0.00000000E+00  1.23755293E+01
  1.23755293E+01 -2.47510585E+01  0.00000000E+00  1.23755293E+01  1.23755293E+01
 -2.47510585E+01  0.00000000E+00  1.23755293E+01  1.23755293E+01 -2.47510585E+01
  0.00000000E+00  1.23755293E+01  1.23755293E+01 -2.47510585E+01  0.00000000E+00
  1.23755293E+01  1.23755293E+01 -2.47510585E+01  0.00000000E+00  1.23755293E+01
  1.23755293E+01 -2.47510585E+01  0.00000000E+00  1.23755293E+01  1.23755293E+01
 -2.47510585E+01  0.00000000E+00  1.23755293E+01  1.23755293E+01 -2.47510585E+01
  0.00000000E+00  1.23755293E+01  1.23755293E+01 -2.47510585E+01  0.00000000E+00
  1.23755293E+01  1.23755293E+01 -2.47510585E+01  0.00000000E+00  1.23755293E+01
  1.23755293E+01 -2.47510585E+01  0.00000000E+00  1.23755293E+01  1.23755293E+01
 -2.47510585E+01  0.00000000E+00  1.23755293E+01  1.23755293E+01 -2.47510585E+01
  0.00000000E+00  1.23755293E+01  1.23755293E+01 -2.47510585E+01  0.00000000E+00
  1.23755293E+01  1.23755293E+01 -2.47510585E+01  0.00000000E+00  1.23755293E+01
  1.23755293E+01 -2.47510585E+01  0.00000000E+00  1.23755293E+01  1.23755293E+01
 -2.47510585E+01  0.00000000E+00  1.23755293E+01  1.23755293E+01 -2.47510585E+01
  0.00000000E+00  1.23755293E+01  1.23755293E+01 -2.47510585E+01  0.00000000E+00
  1.23755293E+01  1.23755293E+01 -2.47510585E+01  0.00000000E+00  1.23755293E+01
  1.23755293E+01 -2.47510585E+01  0.00000000E+00  1.23755293E+01  1.23755293E+01
 -2.47510585E+01  0.00000000E+00  1.23755293E+01  1.23755293E+01 -2.47510585E+01
  0.00000000E+00  1.23755293E+01  1.23755293E+01 -2.47510585E+01  0.00000000E+00
  1.23755293E+01  1.23755293E+01 -2.47510585E+01  0.00000000E+00  1.23755293E+01
  1.23755293E+01 -2.47510585E+01  0.00000000E+00  1.23755293E+01  1.23755293E+01
 -2.47510585E+01  0.00000000E+00  1.23755293E+01  1.23755293E+01 -2.47510585E+01
  0.00000000E+00  1.23755293E+01  1.23755293E+01 -2.47510585E+01  0.00000000E+00
  1.23755293E+01  1.23755293E+01 -2.47510585E+01  0.00000000E+00  1.23755293E+01
  1.23755293E+01 -2.47510585E+01  0.00000000E+00  1.23755293E+01  1.23755293E+01
 -2.47510585E+01  0.00000000E+00  1.23755293E+01  1.23755293E+01 -2.47510585E+01
  0.00000000E+00  1.23755293E+01  1.23755293E+01 -2.47510585E+01  0.00000000E+00
  1.23755293E+01  1.23755293E+01 -2.47510585E+01  0.00000000E+00  1.23755293E+01
  1.23755293E+01 -2.47510585E+01  0.00000000E+00  1.23755293E+01  1.23755293E+01
 -2.47510585E+01  0.00000000E+00  1.23755293E+01  1.23755293E+01 -2.47510585E+01
  0.00000000E+00  1.23755293E+01  1.23755293E+01 -2.47510585E+01  0.00000000E+00
  1.23755293E+01  1.23755293E+01 -2.47510585E+01  0.00000000E+00  1.23755293E+01
  1.23755293E+01 -2.47510585E+01  0.00000000E+00  1.23755293E+01  1.23755293E+01
 -2.47510585E+01  0.00000000E+00  1.23755293E+01  1.23755293E+01 -2.47510585E+01
  0.00000000E+00  1.23755293E+01  1.23755293E+01 -2.47510585E+01  0.00000000E+00
  1.23755293E+01  1.23755293E+01 -2.47510585E+01  0.00000000E+00  1.23755293E+01
  1.23755293E+01 -2.47510585E+01  0.00000000E+00  1.23755293E+01  1.23755293E+01
 -2.47510585E+01  0.00000000E+00  1.23755293E+01  1.23755293E+01 -2.47510585E+01
  0.00000000E+00  1.23755293E+01  1.23755293E+01 -2.47510585E+01  0.00000000E+00
  1.23755293E+01  1.23755293E+01 -2.47510585E+01  0.00000000E+00  1.23755293E+01
  1.23755293E+01 -2.47510585E+01  0.00000000E+00  1.23755293E+01  1.23755293E+01
 -2.47510585E+01  0.00000000E+00  1.23755293E+01  1.23755293E+01 -2.47510585E+01
  0.00000000E+00  1.23755293E+01  1.23755293E+01 -2.47510585E+01  0.00000000E+00
  1.23755293E+01  1.23755293E+01 -2.47510585E+01  0.00000000E+00  1.23755293E+01
  1.23755293E+01 -2.47510585E+01  0.00000000E+00  1.23755293E+01  1.23755293E+01
 -2.47510585E+01  0.00000000E+00  1.23755293E+01  1.23755293E+01 -2.47510585E+01
  0.00000000E+00  1.23755293E+01  1.23755293E+01 -2.47510585E+01  0.00000000E+00
  1.23755293E+01  1.23755293E+01 -2.47510585E+01  0.00000000E+00  1.23755293E+01
  1.23755293E+01 -2.47510585E+01  0.00000000E+00  1.23755293E+01  1.23755293E+01
 -2.47510585E+01  0.00000000E+00  1.23755293E+01  1.23755293E+01 -2.47510585E+01
  0.00000000E+00  1.23755293E+01  1.23755293E+01 -2.47510585E+01  0.00000000E+00
  1.23755293E+01  1.23755293E+01 -2.47510585E+01  0.00000000E+00  1.23755293E+01
  1.23755293E+01 -2.47510585E+01  0.00000000E+00  1.23755293E+01  1.23755293E+01
 -2.47510585E+01  0.00000000E+00  1.23755293E+01  1.23755293E+01 -2.47510585E+01
  0.00000000E+00  1.23755293E+01  1.23755293E+01 -2.47510585E+01  0.00000000E+00
  1.23755293E+01  1.23755293E+01 -2.47510585E+01  0.00000000E+00  1.23755293E+01
  1.23755293E+01 -2.47510585E+01  0.00000000E+00  1.23755293E+01  1.23755293E+01
 -2.47510585E+01  0.00000000E+00  1.23755293E+01  1.23755293E+01 -2.47510585E+01
  0.00000000E+00  1.23755293E+01  1.23755293E+01 -2.47510585E+01  0.00000000E+00
  1.23755293E+01  1.23755293E+01 -2.47510585E+01  0.00000000E+00  1.23755293E+01
  1.23755293E+01 -2.47510585E+01  0.00000000E+00  1.23755293E+01  1.23755293E+01
 -2.47510585E+01  0.00000000E+00  1.23755293E+01  1.23755293E+01 -2.47510585E+01
  0.00000000E+00  1.23755293E+01  1.23755293E+01 -2.47510585E+01  0.00000000E+00
  1.23755293E+01  1.23755293E+01 -2.47510585E+01  0.00000000E+00  1.23755293E+01
  1.23755293E+01 -2.47510585E+01  0.00000000E+00  1.23755293E+01  1.23755293E+01
 -2.47510585E+01  0.00000000E+00  1.23755293E+01  1.23755293E+01 -2.47510585E+01
  0.00000000E+00  1.23755293E+01  1.23755293E+01 -2.47510585E+01  0.00000000E+00
  1.23755293E+01  1.23755293E+01 -2.47510585E+01  0.00000000E+00  1.23755293E+01
  1.23755293E+01 -2.47510585E+01  0.00000000E+00  1.23755293E+01  1.23755293E+01
 -2.47510585E+01  0.00000000E+00  1.23755293E+01  1.23755293E+01 -2.47510585E+01
  0.00000000E+00  1.23755293E+01  1.23755293E+01 -2.47510585E+01  0.00000000E+00
  1.23755293E+01  1.23755293E+01 -2.47510585E+01  0.00000000E+00  1.23755293E+01
  1.23755293E+01 -2.47510585E+01  0.00000000E+00  1.23755293E+01  1.23755293E+01
 -2.47510585E+01  0.00000000E+00  1.23755293E+01  1.23755293E+01 -2.47510585E+01
  0.00000000E+00  1.23755293E+01  1.23755293E+01 -2.47510585E+01  0.00000000E+00
  1.23755293E+01  1.23755293E+01 -2.47510585E+01  0.00000000E+00  1.23755293E+01
  1.23755293E+01 -2.47510585E+01  0.00000000E+00  1.23755293E+01  1.23755293E+01
 -2.47510585E+01  0.00000000E+00  1.23755293E+01  1.23755293E+01 -2.47510585E+01
  0.00000000E+00  1.23755293E+01  1.23755293E+01 -2.47510585E+01  0.00000000E+00
  1.23755293E+01  1.23755293E+01 -2.47510585E+01  0.00000000E+00  1.23755293E+01
  1.23755293E+01 -2.47510585E+01  0.00000000E+00  1.23755293E+01  1.23755293E+01
 -2.47510585E+01  0.00000000E+00  1.23755293E+01  1.23755293E+01 -2.47510585E+01
  0.00000000E+00  1.23755293E+01  1.23755293E+01 -2.47510585E+01  0.00000000E+00
  1.23755293E+01  1.23755293E+01 -2.47510585E+01  0.00000000E+00  1.23755293E+01
  1.23755293E+01 -2.47510585E+01  0.00000000E+00  1.23755293E+01  1.23755293E+01
 -2.47510585E+01  0.00000000E+00  1.23755293E+01  1.23755293E+01 -2.47510585E+01
  0.00000000E+00  1.23755293E+01  1.23755293E+01 -2.47510585E+01  0.00000000E+00
  1.23755293E+01  1.23755293E+01 -2.47510585E+01  0.00000000E+00  1.23755293E+01
  1.23755293E+01 -2.47510585E+01  0.00000000E+00  1.23755293E+01  1.23755293E+01
 -2.47510585E+01  0.00000000E+00  1.23755293E+01  1.23755293E+01 -2.47510585E+01
  0.00000000E+00  1.23755293E+01  1.23755293E+01 -2.47510585E+01  0.00000000E+00
  1.23755293E+01  1.23755293E+01 -2.47510585E+01  0.00000000E+00  1.23755293E+01
  1.23755293E+01 -2.47510585E+01  0.00000000E+00  1.23755293E+01  1.23755293E+01
 -2.47510585E+01  0.00000000E+00  1.23755293E+01  1.23755293E+01 -2.47510585E+01
  0.00000000E+00  1.23755293E+01  1.23755293E+01 -2.47510585E+01  0.00000000E+00
  1.23755293E+01  1.23755293E+01 -2.47510585E+01  0.00000000E+00  1.23755293E+01
  1.23755293E+01 -2.47510585E+01  0.00000000E+00  1.23755293E+01  1.23755293E+01
 -2.47510585E+01  0.00000000E+00  1.23755293E+01  1.23755293E+01 -2.47510585E+01
  0.00000000E+00  1.23755293E+01  1.23755293E+01 -2.47510585E+01  0.00000000E+00
  1.23755293E+01  1.23755293E+01 -2.47510585E+01  0.00000000E+00  1.23755293E+01
  1.23755293E+01 -2.47510585E+01  0.00000000E+00  1.23755293E+01  1.23755293E+01
 -2.47510585E+01  0.00000000E+00  1.23755293E+01  1.23755293E+01 -2.47510585E+01
  0.00000000E+00  1.23755293E+01  1.23755293E+01 -2.47510585E+01  0.00000000E+00
  1.23755293E+01  1.23755293E+01 -2.47510585E+01  0.00000000E+00  1.23755293E+01
  1.23755293E+01 -2.47510585E+01  0.00000000E+00  1.23755293E+01  1.23755293E+01
 -2.47510585E+01  0.00000000E+00  1.23755293E+01  1.23755293E+01 -2.47510585E+01
  0.00000000E+00  1.23755293E+01  1.23755293E+01 -2.47510585E+01  0.00000000E+00
  1.23755293E+01  1.23755293E+01 -2.47510585E+01  0.00000000E+00  1.23755293E+01
  1.23755293E+01 -2.47510585E+01  0.00000000E+00  1.23755293E+01  1.23755293E+01
 -2.47510585E+01  0.00000000E+00  1.23755293E+01  1.23755293E+01 -2.47510585E+01
  0.00000000E+00  1.23755293E+01  1.23755293E+01 -2.47510585E+01  0.00000000E+00
  1.23755293E+01  1.23755293E+01 -2.47510585E+01  0.00000000E+00  1.23755293E+01
  1.23755293E+01 -2.47510585E+01  0.00000000E+00  1.23755293E+01  1.23755293E+01
 -2.47510585E+01  0.00000000E+00  1.23755293E+01  1.23755293E+01 -2.47510585E+01
  0.00000000E+00  1.23755293E+01  1.23755293E+01 -2.47510585E+01  0.00000000E+00
  1.23755293E+01  1.23755293E+01 -2.47510585E+01  0.00000000E+00  1.23755293E+01
  1.23755293E+01 -2.47510585E+01  0.00000000E+00  1.23755293E+01  1.23755293E+01
 -2.47510585E+01  0.00000000E+00  1.23755293E+01  1.23755293E+01 -2.47510585E+01
  0.00000000E+00  1.23755293E+01  1.23755293E+01 -2.47510585E+01  0.00000000E+00
  1.23755293E+01  1.23755293E+01 -2.47510585E+01  0.00000000E+00  1.23755293E+01
  1.23755293E+01 -2.47510585E+01  0.00000000E+00  1.23755293E+01  1.23755293E+01
 -2.47510585E+01  0.00000000E+00  1.23755293E+01  1.23755293E+01 -2.47510585E+01
  0.00000000E+00  1.23755293E+01  1.23755293E+01 -2.47510585E+01  0.00000000E+00
  1.23755293E+01  1.23755293E+01 -2.47510585E+01  0.00000000E+00  1.23755293E+01
  1.23755293E+01 -2.47510585E+01  0.00000000E+00  1.23755293E+01  1.23755293E+01
 -2.47510585E+01  0.00000000E+00  1.23755293E+01  1.23755293E+01 -2.47510585E+01
  0.00000000E+00  1.23755293E+01  1.23755293E+01 -2.47510585E+01  0.00000000E+00
  1.23755293E+01  1.23755293E+01 -2.47510585E+01  0.00000000E+00  1.23755293E+01
  1.23755293E+01 -2.47510585E+01  0.00000000E+00  1.23755293E+01  1.23755293E+01
 -2.47510585E+01  0.00000000E+00  1.23755293E+01  1.23755293E+01 -2.47510585E+01
  0.00000000E+00  1.23755293E+01  1.23755293E+01 -2.47510585E+01  0.00000000E+00
  1.23755293E+01  1.23755293E+01 -2.47510585E+01  0.00000000E+00  1.23755293E+01
  1.23755293E+01 -2.47510585E+01  0.00000000E+00  1.23755293E+01  1.23755293E+01
 -2.47510585E+01  0.00000000E+00  1.23755293E+01  1.23755293E+01 -2.47510585E+01
  0.00000000E+00  1.23755293E+01  1.23755293E+01 -2.47510585E+01  0.00000000E+00
  1.23755293E+01  1.23755293E+01 -2.47510585E+01  0.00000000E+00  1.23755293E+01
  1.23755293E+01 -2.47510585E+01  0.00000000E+00  1.23755293E+01  1.23755293E+01
 -2.47510585E+01  0.00000000E+00  1.23755293E+01  1.23755293E+01 -2.47510585E+01
  0.00000000E+00  1.23755293E+01  1.23755293E+01 -2.47510585E+01  0.00000000E+00
  1.23755293E+01  1.23755293E+01 -2.47510585E+01  0.00000000E+00  1.23755293E+01
  1.23755293E+01 -2.47510585E+01  0.00000000E+00  1.23755293E+01  1.23755293E+01
 -2.47510585E+01  0.00000000E+00  1.23755293E+01  1.23755293E+01 -2.47510585E+01
  0.00000000E+00  1.23755293E+01  1.23755293E+01 -2.47510585E+01  0.00000000E+00
  1.23755293E+01  1.23755293E+01 -2.47510585E+01  0.00000000E+00  1.23755293E+01
  1.23755293E+01 -2.47510585E+01  0.00000000E+00  1.23755293E+01  1.23755293E+01
 -2.47510585E+01  0.00000000E+00  1.23755293E+01  1.23755293E+01 -2.47510585E+01
  0.00000000E+00  1.23755293E+01  1.23755293E+01 -2.47510585E+01  0.00000000E+00
  1.23755293E+01  1.23755293E+01 -2.47510585E+01  0.00000000E+00  1.23755293E+01
  1.23755293E+01 -2.47510585E+01  0.00000000E+00  1.23755293E+01  1.23755293E+01
 -2.47510585E+01  0.00000000E+00  1.23755293E+01  1.23755293E+01 -2.47510585E+01
  0.00000000E+00  1.23755293E+01  1.23755293E+01 -2.47510585E+01  0.00000000E+00
  1.23755293E+01  1.23755293E+01 -2.47510585E+01  0.00000000E+00  1.23755293E+01
  1.23755293E+01 -2.47510585E+01  0.00000000E+00  1.23755293E+01  1.23755293E+01
 -2.47510585E+01  0.00000000E+00  1.23755293E+01  1.23755293E+01 -2.47510585E+01
  0.00000000E+00  1.23755293E+01  1.23755293E+01 -2.47510585E+01  0.00000000E+00
  1.23755293E+01  1.23755293E+01 -2.47510585E+01  0.00000000E+00  1.23755293E+01
  1.23755293E+01 -2.47510585E+01  0.00000000E+00  1.23755293E+01  1.23755293E+01
 -2.47510585E+01  0.00000000E+00  1.23755293E+01  1.23755293E+01 -2.47510585E+01
  0.00000000E+00  1.23755293E+01  1.23755293E+01 -2.47510585E+01  0.00000000E+00
  1.23755293E+01  1.23755293E+01 -2.47510585E+01  0.00000000E+00  1.23755293E+01
  1.23755293E+01 -2.47510585E+01  0.00000000E+00  1.23755293E+01  1.23755293E+01
 -2.47510585E+01  0.00000000E+00  1.23755293E+01  1.23755293E+01 -2.47510585E+01
  0.00000000E+00  1.23755293E+01  1.23755293E+01 -2.47510585E+01  0.00000000E+00
  1.23755293E+01  1.23755293E+01 -2.47510585E+01  0.00000000E+00  1.23755293E+01
  1.23755293E+01 -2.47510585E+01  0.00000000E+00  1.23755293E+01  1.23755293E+01
 -2.47510585E+01  0.00000000E+00  1.23755293E+01  1.23755293E+01 -2.47510585E+01
  0.00000000E+00  1.23755293E+01  1.23755293E+01 -2.47510585E+01  0.00000000E+00
  1.23755293E+01  1.23755293E+01 -2.47510585E+01  0.00000000E+00  1.23755293E+01
  1.23755293E+01 -2.47510585E+01  0.00000000E+00  1.23755293E+01  1.23755293E+01
 -2.47510585E+01  0.00000000E+00  1.23755293E+01  1.23755293E+01 -2.47510585E+01
  0.00000000E+00  1.23755293E+01  1.23755293E+01 -2.47510585E+01  0.00000000E+00
  1.23755293E+01  1.23755293E+01 -2.47510585E+01  0.00000000E+00  1.23755293E+01
  1.23755293E+01 -2.47510585E+01  0.00000000E+00  1.23755293E+01  1.23755293E+01
 -2.47510585E+01  0.00000000E+00  1.23755293E+01  1.23755293E+01 -2.47510585E+01
  0.00000000E+00  1.23755293E+01  1.23755293E+01 -2.47510585E+01  0.00000000E+00
  1.23755293E+01  1.23755293E+01 -2.47510585E+01  0.00000000E+00  1.23755293E+01
  1.23755293E+01 -2.47510585E+01  0.00000000E+00  1.23755293E+01  1.23755293E+01
 -2.47510585E+01  0.00000000E+00  1.23755293E+01  1.23755293E+01 -2.47510585E+01
  0.00000000E+00  1.23755293E+01  1.23755293E+01 -2.47510585E+01  0.00000000E+00
  1.23755293E+01  1.23755293E+01 -2.47510585E+01  0.00000000E+00  1.23755293E+01
  1.23755293E+01 -2.47510585E+01  0.00000000E+00  1.23755293E+01  1.23755293E+01
 -2.47510585E+01  0.00000000E+00  1.23755293E+01  1.23755293E+01 -2.47510585E+01
  0.00000000E+00  1.23755293E+01  1.23755293E+01 -2.47510585E+01  0.00000000E+00
  1.23755293E+01  1.23755293E+01 -2.47510585E+01  0.00000000E+00  1.23755293E+01
  1.23755293E+01 -2.47510585E+01  0.00000000E+00  1.23755293E+01  1.23755293E+01
 -2.47510585E+01  0.00000000E+00  1.23755293E+01  1.23755293E+01 -2.47510585E+01
  0.00000000E+00  1.23755293E+01  1.23755293E+01 -2.47510585E+01  0.00000000E+00
  1.23755293E+01  1.23755293E+01 -2.47510585E+01  0.00000000E+00  1.23755293E+01
  1.23755293E+01 -2.47510585E+01  0.00000000E+00  1.23755293E+01  1.23755293E+01
 -2.47510585E+01  0.00000000E+00  1.23755293E+01  1.23755293E+01 -2.47510585E+01
  0.00000000E+00  1.23755293E+01  1.23755293E+01 -2.47510585E+01  0.00000000E+00
  1.23755293E+01  1.23755293E+01 -2.47510585E+01  0.00000000E+00  1.23755293E+01
  1.23755293E+01 -2.47510585E+01  0.00000000E+00  1.23755293E+01  1.23755293E+01
 -2.47510585E+01  0.00000000E+00  1.23755293E+01  1.23755293E+01 -2.47510585E+01
  0.00000000E+00  1.23755293E+01  1.23755293E+01 -2.47510585E+01  0.00000000E+00
  1.23755293E+01  1.23755293E+01 -2.47510585E+01  0.00000000E+00  1.23755293E+01
  1.23755293E+01 -2.47510585E+01  0.00000000E+00  1.23755293E+01  1.23755293E+01
 -2.47510585E+01  0.00000000E+00  1.23755293E+01  1.23755293E+01 -2.47510585E+01
  0.00000000E+00  1.23755293E+01  1.23755293E+01 -2.47510585E+01  0.00000000E+00
  1.23755293E+01  1.23755293E+01 -2.47510585E+01  0.00000000E+00  1.23755293E+01
  1.23755293E+01 -2.47510585E+01  0.00000000E+00  1.23755293E+01  1.23755293E+01
 -2.47510585E+01  0.00000000E+00  1.23755293E+01  1.23755293E+01 -2.47510585E+01
  0.00000000E+00  1.23755293E+01  1.23755293E+01 -2.47510585E+01  0.00000000E+00
  1.23755293E+01  1.23755293E+01 -2.47510585E+01  0.00000000E+00  1.23755293E+01
  1.23755293E+01 -2.47510585E+01  0.00000000E+00  1.23755293E+01  1.23755293E+01
 -2.47510585E+01  0.00000000E+00  1.23755293E+01  1.23755293E+01 -2.47510585E+01
  0.00000000E+00  1.23755293E+01  1.23755293E+01 -2.47510585E+01  0.00000000E+00
  1.23755293E+01  1.23755293E+01 -2.47510585E+01  0.00000000E+00  1.23755293E+01
  1.23755293E+01 -2.47510585E+01  0.00000000E+00  1.23755293E+01  1.23755293E+01
 -2.47510585E+01  0.00000000E+00  1.23755293E+01  1.23755293E+01 -2.47510585E+01
  0.00000000E+00  1.23755293E+01  1.23755293E+01 -2.47510585E+01  0.00000000E+00
  1.23755293E+01  1.23755293E+01 -2.47510585E+01  0.00000000E+00  1.23755293E+01
  1.23755293E+01 -2.47510585E+01  0.00000000E+00  1.23755293E+01  1.23755293E+01
 -2.47510585E+01  0.00000000E+00  1.23755293E+01  1.23755293E+01 -2.47510585E+01
  0.00000000E+00  1.23755293E+01  1.23755293E+01 -2.47510585E+01  0.00000000E+00
  1.23755293E+01  1.23755293E+01 -2.47510585E+01  0.00000000E+00  1.23755293E+01
  1.23755293E+01 -2.47510585E+01  0.00000000E+00  1.23755293E+01  1.23755293E+01
 -2.47510585E+01  0.00000000E+00  1.23755293E+01  1.23755293E+01 -2.47510585E+01
  0.00000000E+00  1.23755293E+01  1.23755293E+01 -2.47510585E+01  0.00000000E+00
  1.23755293E+01  1.23755293E+01 -2.47510585E+01  0.00000000E+00  1.23755293E+01
  1.23755293E+01 -2.47510585E+01  0.00000000E+00  1.23755293E+01  1.23755293E+01
 -2.47510585E+01  0.00000000E+00  1.23755293E+01  1.23755293E+01 -2.47510585E+01
  0.00000000E+00  1.23755293E+01  1.23755293E+01 -2.47510585E+01  0.00000000E+00
  1.23755293E+01  1.23755293E+01 -2.47510585E+01  0.00000000E+00  1.23755293E+01
  1.23755293E+01 -2.47510585E+01  0.00000000E+00  1.23755293E+01  1.23755293E+01
 -2.47510585E+01  0.00000000E+00  1.23755293E+01  1.23755293E+01 -2.47510585E+01
  0.00000000E+00  1.23755293E+01  1.23755293E+01 -2.47510585E+01  0.00000000E+00
  1.23755293E+01  1.23755293E+01 -2.47510585E+01  0.00000000E+00  1.23755293E+01
  1.23755293E+01 -2.47510585E+01  0.00000000E+00  1.23755293E+01  1.23755293E+01
 -2.47510585E+01  0.00000000E+00  1.23755293E+01  1.23755293E+01 -2.47510585E+01
  0.00000000E+00  1.23755293E+01  1.23755293E+01 -2.47510585E+01  0.00000000E+00
  1.23755293E+01  1.23755293E+01 -2.47510585E+01  0.00000000E+00  1.23755293E+01
  1.23755293E+01 -2.47510585E+01  0.00000000E+00  1.23755293E+01  1.23755293E+01
 -2.47510585E+01  0.00000000E+00  1.23755293E+01  1.23755293E+01 -2.47510585E+01
  0.00000000E+00  1.23755293E+01  1.23755293E+01 -2.47510585E+01  0.00000000E+00
  1.23755293E+01  1.23755293E+01 -2.47510585E+01  0.00000000E+00  1.23755293E+01
  1.23755293E+01 -2.47510585E+01  0.00000000E+00  1.23755293E+01  1.23755293E+01
 -2.47510585E+01  0.00000000E+00  1.23755293E+01  1.23755293E+01 -2.47510585E+01
  0.00000000E+00  1.23755293E+01  1.23755293E+01 -2.47510585E+01  0.00000000E+00
  1.23755293E+01  1.23755293E+01 -2.47510585E+01  0.00000000E+00  1.23755293E+01
  1.23755293E+01 -2.47510585E+01  0.00000000E+00  1.23755293E+01  1.23755293E+01
 -2.47510585E+01  0.00000000E+00  1.23755293E+01  1.23755293E+01 -2.47510585E+01
  0.00000000E+00  1.23755293E+01  1.23755293E+01 -2.47510585E+01  0.00000000E+00
  1.23755293E+01  1.23755293E+01 -2.47510585E+01  0.00000000E+00  1.23755293E+01
  1.23755293E+01 -2.47510585E+01  0.00000000E+00  1.23755293E+01  1.23755293E+01
 -2.47510585E+01  0.00000000E+00  1.23755293E+01  1.23755293E+01 -2.47510585E+01
  0.00000000E+00  1.23755293E+01  1.23755293E+01 -2.47510585E+01  0.00000000E+00
  1.23755293E+01  1.23755293E+01 -2.47510585E+01  0.00000000E+00  1.23755293E+01
  1.23755293E+01 -2.47510585E+01  0.00000000E+00  1.23755293E+01  1.23755293E+01
 -2.47510585E+01  0.00000000E+00  1.23755293E+01  1.23755293E+01 -2.47510585E+01
  0.00000000E+00  1.23755293E+01  1.23755293E+01 -2.47510585E+01  0.00000000E+00
  1.23755293E+01  1.23755293E+01 -2.47510585E+01  0.00000000E+00  1.23755293E+01
  1.23755293E+01 -2.47510585E+01  0.00000000E+00  1.23755293E+01  1.23755293E+01
 -2.47510585E+01  0.00000000E+00  1.23755293E+01  1.23755293E+01 -2.47510585E+01
  0.00000000E+00  1.23755293E+01  1.23755293E+01 -2.47510585E+01  0.00000000E+00
  1.23755293E+01  1.23755293E+01 -2.47510585E+01  0.00000000E+00  1.23755293E+01
  1.23755293E+01 -2.47510585E+01  0.00000000E+00  1.23755293E+01  1.23755293E+01
 -2.47510585E+01  0.00000000E+00  1.23755293E+01  1.23755293E+01 -2.47510585E+01
  0.00000000E+00  1.23755293E+01  1.23755293E+01 -2.47510585E+01  0.00000000E+00
  1.23755293E+01  1.23755293E+01 -2.47510585E+01  0.00000000E+00  1.23755293E+01
  1.23755293E+01 -2.47510585E+01  0.00000000E+00  1.23755293E+01  1.23755293E+01
 -2.47510585E+01  0.00000000E+00  1.23755293E+01  1.23755293E+01 -2.47510585E+01
  0.00000000E+00  1.23755293E+01  1.23755293E+01 -2.47510585E+01  0.00000000E+00
  1.23755293E+01  1.23755293E+01 -2.47510585E+01  0.00000000E+00  1.23755293E+01
  1.23755293E+01 -2.47510585E+01  0.00000000E+00  1.23755293E+01  1.23755293E+01
 -2.47510585E+01  0.00000000E+00  1.23755293E+01  1.23755293E+01 -2.47510585E+01
  0.00000000E+00  1.23755293E+01  1.23755293E+01 -2.47510585E+01  0.00000000E+00
  1.23755293E+01  1.23755293E+01 -2.47510585E+01  0.00000000E+00  1.23755293E+01
  1.23755293E+01 -2.47510585E+01  0.00000000E+00  1.23755293E+01  1.23755293E+01
 -2.47510585E+01  0.00000000E+00  1.23755293E+01  1.23755293E+01 -2.47510585E+01
  0.00000000E+00  1.23755293E+01  1.23755293E+01 -2.47510585E+01  0.00000000E+00
  1.23755293E+01  1.23755293E+01 -2.47510585E+01  0.00000000E+00  1.23755293E+01
  1.23755293E+01 -2.47510585E+01  0.00000000E+00  1.23755293E+01  1.23755293E+01
 -2.47510585E+01  0.00000000E+00  1.23755293E+01  1.23755293E+01 -2.47510585E+01
  0.00000000E+00  1.23755293E+01  1.23755293E+01 -2.47510585E+01  0.00000000E+00
  1.23755293E+01  1.23755293E+01 -2.47510585E+01  0.00000000E+00  1.23755293E+01
  1.23755293E+01 -2.47510585E+01  0.00000000E+00  1.23755293E+01  1.23755293E+01
 -2.47510585E+01  0.00000000E+00  1.23755293E+01  1.23755293E+01 -2.47510585E+01
  0.00000000E+00  1.23755293E+01  1.23755293E+01 -2.47510585E+01  0.00000000E+00
  1.23755293E+01  1.23755293E+01 -2.47510585E+01  0.00000000E+00  1.23755293E+01
  1.23755293E+01 -2.47510585E+01  0.00000000E+00  1.23755293E+01  1.23755293E+01
 -2.47510585E+01  0.00000000E+00  1.23755293E+01  1.23755293E+01 -2.47510585E+01
  0.00000000E+00  1.23755293E+01  1.23755293E+01 -2.47510585E+01  0.00000000E+00
  1.23755293E+01  1.23755293E+01 -2.47510585E+01  0.00000000E+00  1.23755293E+01
  1.23755293E+01 -2.47510585E+01  0.00000000E+00  1.23755293E+01  1.23755293E+01
 -2.47510585E+01  0.00000000E+00  1.23755293E+01  1.23755293E+01 -2.47510585E+01
  0.00000000E+00  1.23755293E+01  1.23755293E+01 -2.47510585E+01  0.00000000E+00
  1.23755293E+01  1.23755293E+01 -2.47510585E+01  0.00000000E+00  1.23755293E+01
  1.23755293E+01 -2.47510585E+01  0.00000000E+00  1.23755293E+01  1.23755293E+01
 -2.47510585E+01  0.00000000E+00  1.23755293E+01  1.23755293E+01 -2.47510585E+01
  0.00000000E+00  1.23755293E+01  1.23755293E+01 -2.47510585E+01  0.00000000E+00
  1.23755293E+01  1.23755293E+01 -2.47510585E+01  0.00000000E+00  1.23755293E+01
  1.23755293E+01 -2.47510585E+01  0.00000000E+00  1.23755293E+01  1.23755293E+01
 -2.47510585E+01  0.00000000E+00  1.23755293E+01  1.23755293E+01 -2.47510585E+01
  0.00000000E+00  1.23755293E+01  1.23755293E+01 -2.47510585E+01  0.00000000E+00
  1.23755293E+01  1.23755293E+01 -2.47510585E+01  0.00000000E+00  1.23755293E+01
  1.23755293E+01 -2.47510585E+01  0.00000000E+00  1.23755293E+01  1.23755293E+01
 -2.47510585E+01  0.00000000E+00  1.23755293E+01  1.23755293E+01 -2.47510585E+01
  0.00000000E+00  1.23755293E+01  1.23755293E+01 -2.47510585E+01  0.00000000E+00
  1.23755293E+01  1.23755293E+01 -2.47510585E+01  0.00000000E+00  1.23755293E+01
  1.23755293E+01 -2.47510585E+01  0.00000000E+00  1.23755293E+01  1.23755293E+01
 -2.47510585E+01  0.00000000E+00  1.23755293E+01  1.23755293E+01 -2.47510585E+01
  0.00000000E+00  1.23755293E+01  1.23755293E+01 -2.47510585E+01  0.00000000E+00
  1.23755293E+01  1.23755293E+01 -2.47510585E+01  0.00000000E+00  1.23755293E+01
  1.23755293E+01 -2.47510585E+01  0.00000000E+00  1.23755293E+01  1.23755293E+01
 -2.47510585E+01  0.00000000E+00  1.23755293E+01  1.23755293E+01 -2.47510585E+01
  0.00000000E+00  1.23755293E+01  1.23755293E+01 -2.47510585E+01  0.00000000E+00
  1.23755293E+01  1.23755293E+01 -2.47510585E+01  0.00000000E+00  1.23755293E+01
  1.23755293E+01 -2.47510585E+01  0.00000000E+00  1.23755293E+01  1.23755293E+01
 -2.47510585E+01  0.00000000E+00  1.23755293E+01  1.23755293E+01 -2.47510585E+01
  0.00000000E+00  1.23755293E+01  1.23755293E+01 -2.47510585E+01  0.00000000E+00
  1.23755293E+01  1.23755293E+01 -2.47510585E+01  0.00000000E+00  1.23755293E+01
  1.23755293E+01 -2.47510585E+01  0.00000000E+00  1.23755293E+01  1.23755293E+01
 -2.47510585E+01  0.00000000E+00  1.23755293E+01  1.23755293E+01 -2.47510585E+01
  0.00000000E+00  1.23755293E+01  1.23755293E+01 -2.47510585E+01  0.00000000E+00
  1.23755293E+01  1.23755293E+01 -2.47510585E+01  0.00000000E+00  1.23755293E+01
  1.23755293E+01 -2.47510585E+01  0.00000000E+00  1.23755293E+01  1.23755293E+01
 -2.47510585E+01  0.00000000E+00  1.23755293E+01  1.23755293E+01 -2.47510585E+01
  0.00000000E+00  1.23755293E+01  1.23755293E+01 -2.47510585E+01  0.00000000E+00
  1.23755293E+01  1.23755293E+01 -2.47510585E+01  0.00000000E+00  1.23755293E+01
  1.23755293E+01 -2.47510585E+01  0.00000000E+00  1.23755293E+01  1.23755293E+01
 -2.47510585E+01  0.00000000E+00  1.23755293E+01  1.23755293E+01 -2.47510585E+01
  0.00000000E+00  1.23755293E+01  1.23755293E+01 -2.47510585E+01  0.00000000E+00
  1.23755293E+01  1.23755293E+01 -2.47510585E+01  0.00000000E+00  1.23755293E+01
  1.23755293E+01 -2.47510585E+01  0.00000000E+00  1.23755293E+01  1.23755293E+01
 -2.47510585E+01  0.00000000E+00  1.23755293E+01  1.23755293E+01 -2.47510585E+01
  0.00000000E+00  1.23755293E+01  1.23755293E+01 -2.47510585E+01  0.00000000E+00
  1.23755293E+01  1.23755293E+01 -2.47510585E+01  0.00000000E+00  1.23755293E+01
  1.23755293E+01 -2.47510585E+01  0.00000000E+00  1.23755293E+01  1.23755293E+01
 -2.47510585E+01  0.00000000E+00  1.23755293E+01  1.23755293E+01 -2.47510585E+01
  0.00000000E+00  1.23755293E+01  1.23755293E+01 -2.47510585E+01  0.00000000E+00
  1.23755293E+01  1.23755293E+01 -2.47510585E+01  0.00000000E+00  1.23755293E+01
  1.23755293E+01 -2.47510585E+01  0.00000000E+00  1.23755293E+01  1.23755293E+01
 -2.47510585E+01  0.00000000E+00  1.23755293E+01  1.23755293E+01 -2.47510585E+01
  0.00000000E+00  1.23755293E+01  1.23755293E+01 -2.47510585E+01  0.00000000E+00
  1.23755293E+01  1.23755293E+01 -2.47510585E+01  0.00000000E+00  1.23755293E+01
  1.23755293E+01 -2.47510585E+01  0.00000000E+00  1.23755293E+01  1.23755293E+01
 -2.47510585E+01  0.00000000E+00  1.23755293E+01  1.23755293E+01 -2.47510585E+01
  0.00000000E+00  1.23755293E+01  1.23755293E+01 -2.47510585E+01  0.00000000E+00
  1.23755293E+01  1.23755293E+01 -2.47510585E+01  0.00000000E+00  1.23755293E+01
  1.23755293E+01 -2.47510585E+01  0.00000000E+00  1.23755293E+01  1.23755293E+01
 -2.47510585E+01  0.00000000E+00  1.23755293E+01  1.23755293E+01 -2.47510585E+01
  0.00000000E+00  1.23755293E+01  1.23755293E+01 -2.47510585E+01  0.00000000E+00
  1.23755293E+01  1.23755293E+01 -2.47510585E+01  0.00000000E+00  1.23755293E+01
  1.23755293E+01 -2.47510585E+01  0.00000000E+00  1.23755293E+01  1.23755293E+01
 -2.47510585E+01  0.00000000E+00  1.23755293E+01  1.23755293E+01 -2.47510585E+01
  0.00000000E+00  1.23755293E+01  1.23755293E+01 -2.47510585E+01  0.00000000E+00
  1.23755293E+01  1.23755293E+01 -2.47510585E+01  0.00000000E+00  1.23755293E+01
  1.23755293E+01 -2.47510585E+01  0.00000000E+00  1.23755293E+01  1.23755293E+01
 -2.47510585E+01  0.00000000E+00  1.23755293E+01  1.23755293E+01 -2.47510585E+01
  0.00000000E+00  1.23755293E+01  1.23755293E+01 -2.47510585E+01  0.00000000E+00
  1.23755293E+01  1.23755293E+01 -2.47510585E+01  0.00000000E+00  1.23755293E+01
  1.23755293E+01 -2.47510585E+01  0.00000000E+00  1.23755293E+01  1.23755293E+01
 -2.47510585E+01  0.00000000E+00  1.23755293E+01  1.23755293E+01 -2.47510585E+01
  0.00000000E+00  1.23755293E+01  1.23755293E+01 -2.47510585E+01  0.00000000E+00
  1.23755293E+01  1.23755293E+01 -2.47510585E+01  0.00000000E+00  1.23755293E+01
  1.23755293E+01 -2.47510585E+01  0.00000000E+00  1.23755293E+01  1.23755293E+01
 -2.47510585E+01  0.00000000E+00  1.23755293E+01  1.23755293E+01 -2.47510585E+01
  0.00000000E+00  1.23755293E+01  1.23755293E+01 -2.47510585E+01  0.00000000E+00
  1.23755293E+01  1.23755293E+01 -2.47510585E+01  0.00000000E+00  1.23755293E+01
  1.23755293E+01 -2.47510585E+01  0.00000000E+00  1.23755293E+01  1.23755293E+01
 -2.47510585E+01  0.00000000E+00  1.23755293E+01  1.23755293E+01 -2.47510585E+01
  0.00000000E+00  1.23755293E+01  1.23755293E+01 -2.47510585E+01  0.00000000E+00
  1.23755293E+01  1.23755293E+01 -2.47510585E+01  0.00000000E+00  1.23755293E+01
  1.23755293E+01 -2.47510585E+01  0.00000000E+00  1.23755293E+01  1.23755293E+01
 -2.47510585E+01  0.00000000E+00  1.23755293E+01  1.23755293E+01 -2.47510585E+01
  0.00000000E+00  1.23755293E+01  1.23755293E+01 -2.47510585E+01  0.00000000E+00
  1.23755293E+01  1.23755293E+01 -2.47510585E+01  0.00000000E+00  1.23755293E+01
  1.23755293E+01 -2.47510585E+01  0.00000000E+00  1.23755293E+01  1.23755293E+01
 -2.47510585E+01  0.00000000E+00  1.23755293E+01  1.23755293E+01 -2.47510585E+01
  0.00000000E+00  1.23755293E+01  1.23755293E+01 -2.47510585E+01  0.00000000E+00
  1.23755293E+01  1.23755293E+01 -2.47510585E+01  0.00000000E+00  1.23755293E+01
  1.23755293E+01 -2.47510585E+01  0.00000000E+00  1.23755293E+01  1.23755293E+01
 -2.47510585E+01  0.00000000E+00  1.23755293E+01  1.23755293E+01 -2.47510585E+01
  0.00000000E+00  1.23755293E+01  1.23755293E+01 -2.47510585E+01  0.00000000E+00
  1.23755293E+01  1.23755293E+01 -2.47510585E+01  0.00000000E+00  1.23755293E+01
  1.23755293E+01 -2.47510585E+01  0.00000000E+00  1.23755293E+01  1.23755293E+01
 -2.47510585E+01  0.00000000E+00  1.23755293E+01  1.23755293E+01 -2.47510585E+01
  0.00000000E+00  1.23755293E+01  1.23755293E+01 -2.47510585E+01  0.00000000E+00
  1.23755293E+01  1.23755293E+01 -2.47510585E+01  0.00000000E+00  1.23755293E+01
  1.23755293E+01 -2.47510585E+01  0.00000000E+00  1.23755293E+01  1.23755293E+01
 -2.47510585E+01  0.00000000E+00  1.23755293E+01  1.23755293E+01 -2.47510585E+01
  0.00000000E+00  1.23755293E+01  1.23755293E+01 -2.47510585E+01  0.00000000E+00
  1.23755293E+01  1.23755293E+01 -2.47510585E+01  0.00000000E+00  1.23755293E+01
  1.23755293E+01 -2.47510585E+01  0.00000000E+00  1.23755293E+01  1.23755293E+01
 -2.47510585E+01  0.00000000E+00  1.23755293E+01  1.23755293E+01 -2.47510585E+01
  0.00000000E+00  1.23755293E+01  1.23755293E+01 -2.47510585E+01  0.00000000E+00
  1.23755293E+01  1.23755293E+01 -2.47510585E+01  0.00000000E+00  1.23755293E+01
  1.23755293E+01 -2.47510585E+01  0.00000000E+00  1.23755293E+01  1.23755293E+01
 -2.47510585E+01  0.00000000E+00  1.23755293E+01  1.23755293E+01 -2.47510585E+01
  0.00000000E+00  1.23755293E+01  1.23755293E+01 -2.47510585E+01  0.00000000E+00
  1.23755293E+01  1.23755293E+01 -2.47510585E+01  0.00000000E+00  1.23755293E+01
  1.23755293E+01 -2.47510585E+01  0.00000000E+00  1.23755293E+01  1.23755293E+01
 -2.47510585E+01  0.00000000E+00  1.23755293E+01  1.23755293E+01 -2.47510585E+01
  0.00000000E+00  1.23755293E+01  1.23755293E+01 -2.47510585E+01  0.00000000E+00
  1.23755293E+01  1.23755293E+01 -2.47510585E+01  0.00000000E+00  1.23755293E+01
  1.23755293E+01 -2.47510585E+01  0.00000000E+00  1.23755293E+01  1.23755293E+01
 -2.47510585E+01  0.00000000E+00  1.23755293E+01  1.23755293E+01 -2.47510585E+01
  0.00000000E+00  1.23755293E+01  1.23755293E+01 -2.47510585E+01  0.00000000E+00
  1.23755293E+01  1.23755293E+01 -2.47510585E+01  0.00000000E+00  1.23755293E+01
  1.23755293E+01 -2.47510585E+01  0.00000000E+00  1.23755293E+01  1.23755293E+01
 -2.47510585E+01  0.00000000E+00  1.23755293E+01  1.23755293E+01 -2.47510585E+01
  0.00000000E+00  1.23755293E+01  1.23755293E+01 -2.47510585E+01  0.00000000E+00
  1.23755293E+01  1.23755293E+01 -2.47510585E+01  0.00000000E+00  1.23755293E+01
  1.23755293E+01 -2.47510585E+01  0.00000000E+00  1.23755293E+01  1.23755293E+01
 -2.47510585E+01  0.00000000E+00  1.23755293E+01  1.23755293E+01 -2.47510585E+01
  0.00000000E+00  1.23755293E+01  1.23755293E+01 -2.47510585E+01  0.00000000E+00
  1.23755293E+01  1.23755293E+01 -2.47510585E+01  0.00000000E+00  1.23755293E+01
  1.23755293E+01 -2.47510585E+01  0.00000000E+00  1.23755293E+01  1.23755293E+01
 -2.47510585E+01  0.00000000E+00  1.23755293E+01  1.23755293E+01 -2.47510585E+01
  0.00000000E+00  1.23755293E+01  1.23755293E+01 -2.47510585E+01  0.00000000E+00
  1.23755293E+01  1.23755293E+01 -2.47510585E+01  0.00000000E+00  1.23755293E+01
  1.23755293E+01 -2.47510585E+01  0.00000000E+00  1.23755293E+01  1.23755293E+01
 -2.47510585E+01  0.00000000E+00  1.23755293E+01  1.23755293E+01 -2.47510585E+01
  0.00000000E+00  1.23755293E+01  1.23755293E+01 -2.47510585E+01  0.00000000E+00
  1.23755293E+01  1.23755293E+01 -2.47510585E+01  0.00000000E+00  1.23755293E+01
  1.23755293E+01 -2.47510585E+01  0.00000000E+00  1.23755293E+01  1.23755293E+01
 -2.47510585E+01  0.00000000E+00  1.23755293E+01  1.23755293E+01 -2.47510585E+01
  0.00000000E+00  1.23755293E+01  1.23755293E+01 -2.47510585E+01  0.00000000E+00
  1.23755293E+01  1.23755293E+01 -2.47510585E+01  0.00000000E+00  1.23755293E+01
  1.23755293E+01 -2.47510585E+01  0.00000000E+00  1.23755293E+01  1.23755293E+01
 -2.47510585E+01  0.00000000E+00  1.23755293E+01  1.23755293E+01 -2.47510585E+01
  0.00000000E+00  1.23755293E+01  1.23755293E+01 -2.47510585E+01  0.00000000E+00
  1.23755293E+01  1.23755293E+01 -2.47510585E+01  0.00000000E+00  1.23755293E+01
  1.23755293E+01 -2.47510585E+01  0.00000000E+00  1.23755293E+01  1.23755293E+01
 -2.47510585E+01  0.00000000E+00  1.23755293E+01  1.23755293E+01 -2.47510585E+01
  0.00000000E+00  1.23755293E+01  1.23755293E+01 -2.47510585E+01  0.00000000E+00
  1.23755293E+01  1.23755293E+01 -2.47510585E+01  0.00000000E+00  1.23755293E+01
  1.23755293E+01 -2.47510585E+01  0.00000000E+00  1.23755293E+01  1.23755293E+01
 -2.47510585E+01  0.00000000E+00  1.23755293E+01  1.23755293E+01 -2.47510585E+01
  0.00000000E+00  1.23755293E+01  1.23755293E+01 -2.47510585E+01  0.00000000E+00
  1.23755293E+01  1.23755293E+01 -2.47510585E+01  0.00000000E+00  1.23755293E+01
  1.23755293E+01 -2.47510585E+01  0.00000000E+00  1.23755293E+01  1.23755293E+01
 -2.47510585E+01  0.00000000E+00  1.23755293E+01  1.23755293E+01 -2.47510585E+01
  0.00000000E+00  1.23755293E+01  1.23755293E+01 -2.47510585E+01  0.00000000E+00
  1.23755293E+01  1.23755293E+01 -2.47510585E+01  0.00000000E+00  1.23755293E+01
  1.23755293E+01 -2.47510585E+01  0.00000000E+00  1.23755293E+01  1.23755293E+01
 -2.47510585E+01  0.00000000E+00  1.23755293E+01  1.23755293E+01 -2.47510585E+01
  0.00000000E+00  1.23755293E+01  1.23755293E+01 -2.47510585E+01  0.00000000E+00
  1.23755293E+01  1.23755293E+01 -2.47510585E+01  0.00000000E+00  1.23755293E+01
  1.23755293E+01 -2.47510585E+01  0.00000000E+00  1.23755293E+01  1.23755293E+01
 -2.47510585E+01  0.00000000E+00  1.23755293E+01  1.23755293E+01 -2.47510585E+01
  0.00000000E+00  1.23755293E+01  1.23755293E+01 -2.47510585E+01  0.00000000E+00
  1.23755293E+01  1.23755293E+01 -2.47510585E+01  0.00000000E+00  1.23755293E+01
  1.23755293E+01 -2.47510585E+01  0.00000000E+00  1.23755293E+01  1.23755293E+01
 -2.47510585E+01  0.00000000E+00  1.23755293E+01  1.23755293E+01 -2.47510585E+01
  0.00000000E+00  1.23755293E+01  1.23755293E+01 -2.47510585E+01  0.00000000E+00
  1.23755293E+01  1.23755293E+01 -2.47510585E+01  0.00000000E+00  1.23755293E+01
  1.23755293E+01 -2.47510585E+01  0.00000000E+00  1.23755293E+01  1.23755293E+01
 -2.47510585E+01  0.00000000E+00  1.23755293E+01  1.23755293E+01 -2.47510585E+01
  0.00000000E+00  1.23755293E+01  1.23755293E+01 -2.47510585E+01  0.00000000E+00
  1.23755293E+01  1.23755293E+01 -2.47510585E+01  0.00000000E+00  1.23755293E+01
  1.23755293E+01 -2.47510585E+01  0.00000000E+00  1.23755293E+01  1.23755293E+01
 -2.47510585E+01  0.00000000E+00  1.23755293E+01  1.23755293E+01 -2.47510585E+01
  0.00000000E+00  1.23755293E+01  1.23755293E+01 -2.47510585E+01  0.00000000E+00
  1.23755293E+01  1.23755293E+01 -2.47510585E+01  0.00000000E+00  1.23755293E+01
  1.23755293E+01 -2.47510585E+01  0.00000000E+00  1.23755293E+01  1.23755293E+01
 -2.47510585E+01  0.00000000E+00  1.23755293E+01  1.23755293E+01 -2.47510585E+01
  0.00000000E+00  1.23755293E+01  1.23755293E+01 -2.47510585E+01  0.00000000E+00
  1.23755293E+01  1.23755293E+01 -2.47510585E+01  0.00000000E+00  1.23755293E+01
  1.23755293E+01 -2.47510585E+01  0.00000000E+00  1.23755293E+01  1.23755293E+01
 -2.47510585E+01  0.00000000E+00  1.23755293E+01  1.23755293E+01 -2.47510585E+01
  0.00000000E+00  1.23755293E+01  1.23755293E+01 -2.47510585E+01  0.00000000E+00
  1.23755293E+01  1.23755293E+01 -2.47510585E+01  0.00000000E+00  1.23755293E+01
  1.23755293E+01 -2.47510585E+01  0.00000000E+00  1.23755293E+01  1.23755293E+01
 -2.47510585E+01  0.00000000E+00  1.23755293E+01  1.23755293E+01 -2.47510585E+01
  0.00000000E+00  1.23755293E+01  1.23755293E+01 -2.47510585E+01  0.00000000E+00
  1.23755293E+01  1.23755293E+01 -2.47510585E+01  0.00000000E+00  1.23755293E+01
  1.23755293E+01 -2.47510585E+01  0.00000000E+00  1.23755293E+01  1.23755293E+01
 -2.47510585E+01  0.00000000E+00  1.23755293E+01  1.23755293E+01 -2.47510585E+01
  0.00000000E+00  1.23755293E+01  1.23755293E+01 -2.47510585E+01  0.00000000E+00
  1.23755293E+01  1.23755293E+01 -2.47510585E+01  0.00000000E+00  1.23755293E+01
  1.23755293E+01 -2.47510585E+01  0.00000000E+00  1.23755293E+01  1.23755293E+01
 -2.47510585E+01  0.00000000E+00  1.23755293E+01  1.23755293E+01 -2.47510585E+01
  0.00000000E+00  1.23755293E+01  1.23755293E+01 -2.47510585E+01  0.00000000E+00
  1.23755293E+01  1.23755293E+01 -2.47510585E+01  0.00000000E+00  1.23755293E+01
  1.23755293E+01 -2.47510585E+01  0.00000000E+00  1.23755293E+01  1.23755293E+01
 -2.47510585E+01  0.00000000E+00  1.23755293E+01  1.23755293E+01 -2.47510585E+01
  0.00000000E+00  1.23755293E+01  1.23755293E+01 -2.47510585E+01  0.00000000E+00
  1.23755293E+01  1.23755293E+01 -2.47510585E+01  0.00000000E+00  1.23755293E+01
  1.23755293E+01 -2.47510585E+01  0.00000000E+00  1.23755293E+01  1.23755293E+01
 -2.47510585E+01  0.00000000E+00  1.23755293E+01  1.23755293E+01 -2.47510585E+01
  0.00000000E+00  1.23755293E+01  1.23755293E+01 -2.47510585E+01  0.00000000E+00
  1.23755293E+01  1.23755293E+01 -2.47510585E+01  0.00000000E+00  1.23755293E+01
  1.23755293E+01 -2.47510585E+01  0.00000000E+00  1.23755293E+01  1.23755293E+01
 -2.47510585E+01  0.00000000E+00  1.23755293E+01  1.23755293E+01 -2.47510585E+01
  0.00000000E+00  1.23755293E+01  1.23755293E+01 -2.47510585E+01  0.00000000E+00
  1.23755293E+01  1.23755293E+01 -2.47510585E+01  0.00000000E+00  1.23755293E+01
  1.23755293E+01 -2.47510585E+01  0.00000000E+00  1.23755293E+01  1.23755293E+01
 -2.47510585E+01  0.00000000E+00  1.23755293E+01  1.23755293E+01 -2.47510585E+01
  0.00000000E+00  1.23755293E+01  1.23755293E+01 -2.47510585E+01  0.00000000E+00
  1.23755293E+01  1.23755293E+01 -2.47510585E+01  0.00000000E+00  1.23755293E+01
  1.23755293E+01 -2.47510585E+01  0.00000000E+00  1.23755293E+01  1.23755293E+01
 -2.47510585E+01  0.00000000E+00  1.23755293E+01  1.23755293E+01 -2.47510585E+01
  0.00000000E+00  1.23755293E+01  1.23755293E+01 -2.47510585E+01  0.00000000E+00
  1.23755293E+01  1.23755293E+01 -2.47510585E+01  0.00000000E+00  1.23755293E+01
  1.23755293E+01 -2.47510585E+01  0.00000000E+00  1.23755293E+01  1.23755293E+01
 -2.47510585E+01  0.00000000E+00  1.23755293E+01  1.23755293E+01 -2.47510585E+01
  0.00000000E+00  1.23755293E+01  1.23755293E+01 -2.47510585E+01  0.00000000E+00
  1.23755293E+01  1.23755293E+01 -2.47510585E+01  0.00000000E+00  1.23755293E+01
  1.23755293E+01 -2.47510585E+01  0.00000000E+00  1.23755293E+01  1.23755293E+01
 -2.47510585E+01  0.00000000E+00  1.23755293E+01  1.23755293E+01 -2.47510585E+01
  0.00000000E+00  1.23755293E+01  1.23755293E+01 -2.47510585E+01  0.00000000E+00
  1.23755293E+01  1.23755293E+01 -2.47510585E+01  0.00000000E+00  1.23755293E+01
  1.23755293E+01 -2.47510585E+01  0.00000000E+00  1.23755293E+01  1.23755293E+01
 -2.47510585E+01  0.00000000E+00  1.23755293E+01  1.23755293E+01 -2.47510585E+01
  0.00000000E+00  1.23755293E+01  1.23755293E+01 -2.47510585E+01  0.00000000E+00
  1.23755293E+01  1.23755293E+01 -2.47510585E+01  0.00000000E+00  1.23755293E+01
  1.23755293E+01 -2.47510585E+01  0.00000000E+00  1.23755293E+01  1.23755293E+01
 -2.47510585E+01  0.00000000E+00  1.23755293E+01  1.23755293E+01 -2.47510585E+01
  0.00000000E+00  1.23755293E+01  1.23755293E+01 -2.47510585E+01  0.00000000E+00
  1.23755293E+01  1.23755293E+01 -2.47510585E+01  0.00000000E+00  1.23755293E+01
  1.23755293E+01 -2.47510585E+01  0.00000000E+00  1.23755293E+01  1.23755293E+01
 -2.47510585E+01  0.00000000E+00  1.23755293E+01  1.23755293E+01 -2.47510585E+01
  0.00000000E+00  1.23755293E+01  1.23755293E+01 -2.47510585E+01  0.00000000E+00
  1.23755293E+01  1.23755293E+01 -2.47510585E+01  0.00000000E+00  1.23755293E+01
  1.23755293E+01 -2.47510585E+01  0.00000000E+00  1.23755293E+01  1.23755293E+01
 -2.47510585E+01  0.00000000E+00  1.23755293E+01  1.23755293E+01 -2.47510585E+01
  0.00000000E+00  1.23755293E+01  1.23755293E+01 -2.47510585E+01  0.00000000E+00
  1.23755293E+01  1.23755293E+01 -2.47510585E+01  0.00000000E+00  1.23755293E+01
  1.23755293E+01 -2.47510585E+01  0.00000000E+00  1.23755293E+01  1.23755293E+01
 -2.47510585E+01  0.00000000E+00  1.23755293E+01  1.23755293E+01 -2.47510585E+01
  0.00000000E+00  1.23755293E+01  1.23755293E+01 -2.47510585E+01  0.00000000E+00
  1.23755293E+01  1.23755293E+01 -2.47510585E+01  0.00000000E+00  1.23755293E+01
  1.23755293E+01 -2.47510585E+01  0.00000000E+00  1.23755293E+01  1.23755293E+01
 -2.47510585E+01  0.00000000E+00  1.23755293E+01  1.23755293E+01 -2.47510585E+01
  0.00000000E+00  1.23755293E+01  1.23755293E+01 -2.47510585E+01  0.00000000E+00
  1.23755293E+01  1.23755293E+01 -2.47510585E+01  0.00000000E+00  1.23755293E+01
  1.23755293E+01 -2.47510585E+01  0.00000000E+00  1.23755293E+01  1.23755293E+01
 -2.47510585E+01  0.00000000E+00  1.23755293E+01  1.23755293E+01 -2.47510585E+01
  0.00000000E+00  1.23755293E+01  1.23755293E+01 -2.47510585E+01  0.00000000E+00
  1.23755293E+01  1.23755293E+01 -2.47510585E+01  0.00000000E+00  1.23755293E+01
  1.23755293E+01 -2.47510585E+01  0.00000000E+00  1.23755293E+01  1.23755293E+01
 -2.47510585E+01  0.00000000E+00  1.23755293E+01  1.23755293E+01 -2.47510585E+01
  0.00000000E+00  1.23755293E+01  1.23755293E+01 -2.47510585E+01  0.00000000E+00
  1.23755293E+01  1.23755293E+01 -2.47510585E+01  0.00000000E+00  1.23755293E+01
  1.23755293E+01 -2.47510585E+01  0.00000000E+00  1.23755293E+01  1.23755293E+01
 -2.47510585E+01  0.00000000E+00  1.23755293E+01  1.23755293E+01 -2.47510585E+01
  0.00000000E+00  1.23755293E+01  1.23755293E+01 -2.47510585E+01  0.00000000E+00
  1.23755293E+01  1.23755293E+01 -2.47510585E+01  0.00000000E+00  1.23755293E+01
  1.23755293E+01 -2.47510585E+01  0.00000000E+00  1.23755293E+01  1.23755293E+01
 -2.47510585E+01  0.00000000E+00  1.23755293E+01  1.23755293E+01 -2.47510585E+01
  0.00000000E+00  1.23755293E+01  1.23755293E+01 -2.47510585E+01  0.00000000E+00
  1.23755293E+01  1.23755293E+01 -2.47510585E+01  0.00000000E+00  1.23755293E+01
  1.23755293E+01 -2.47510585E+01  0.00000000E+00  1.23755293E+01  1.23755293E+01
 -2.47510585E+01  0.00000000E+00  1.23755293E+01  1.23755293E+01 -2.47510585E+01
  0.00000000E+00  1.23755293E+01  1.23755293E+01 -2.47510585E+01  0.00000000E+00
  1.23755293E+01  1.23755293E+01 -2.47510585E+01  0.00000000E+00  1.23755293E+01
  1.23755293E+01 -2.47510585E+01  0.00000000E+00  1.23755293E+01  1.23755293E+01
 -2.47510585E+01  0.00000000E+00  1.23755293E+01  1.23755293E+01 -2.47510585E+01
  0.00000000E+00  1.23755293E+01  1.23755293E+01 -2.47510585E+01  0.00000000E+00
  1.23755293E+01  1.23755293E+01 -2.47510585E+01  0.00000000E+00  1.23755293E+01
  1.23755293E+01 -2.47510585E+01  0.00000000E+00  1.23755293E+01  1.23755293E+01
 -2.47510585E+01  0.00000000E+00  1.23755293E+01  1.23755293E+01 -2.47510585E+01
  0.00000000E+00  1.23755293E+01  1.23755293E+01 -2.47510585E+01  0.00000000E+00
  1.23755293E+01  1.23755293E+01 -2.47510585E+01  0.00000000E+00  1.23755293E+01
  1.23755293E+01 -2.47510585E+01  0.00000000E+00  1.23755293E+01  1.23755293E+01
 -2.47510585E+01  0.00000000E+00  1.23755293E+01  1.23755293E+01 -2.47510585E+01
  0.00000000E+00  1.23755293E+01  1.23755293E+01 -2.47510585E+01  0.00000000E+00
  1.23755293E+01  1.23755293E+01 -2.47510585E+01  0.00000000E+00  1.23755293E+01
  1.23755293E+01 -2.47510585E+01  0.00000000E+00  1.23755293E+01  1.23755293E+01
 -2.47510585E+01  0.00000000E+00  1.23755293E+01  1.23755293E+01 -2.47510585E+01
  0.00000000E+00  1.23755293E+01  1.23755293E+01 -2.47510585E+01  0.00000000E+00
  1.23755293E+01  1.23755293E+01 -2.47510585E+01  0.00000000E+00  1.23755293E+01
  1.23755293E+01 -2.47510585E+01  0.00000000E+00  1.23755293E+01  1.23755293E+01
 -2.47510585E+01  0.00000000E+00  1.23755293E+01  1.23755293E+01 -2.47510585E+01
  0.00000000E+00  1.23755293E+01  1.23755293E+01 -2.47510585E+01  0.00000000E+00
  1.23755293E+01  1.23755293E+01 -2.47510585E+01  0.00000000E+00  1.23755293E+01
  1.23755293E+01 -2.47510585E+01  0.00000000E+00  1.23755293E+01  1.23755293E+01
 -2.47510585E+01  0.00000000E+00  1.23755293E+01  1.23755293E+01 -2.47510585E+01
  0.00000000E+00  1.23755293E+01  1.23755293E+01 -2.47510585E+01  0.00000000E+00
  1.23755293E+01  1.23755293E+01 -2.47510585E+01  0.00000000E+00  1.23755293E+01
  1.23755293E+01 -2.47510585E+01  0.00000000E+00  1.23755293E+01  1.23755293E+01
 -2.47510585E+01  0.00000000E+00  1.23755293E+01  1.23755293E+01 -2.47510585E+01
  0.00000000E+00  1.23755293E+01  1.23755293E+01 -2.47510585E+01  0.00000000E+00
  1.23755293E+01  1.23755293E+01 -2.47510585E+01  0.00000000E+00  1.23755293E+01
  1.23755293E+01 -2.47510585E+01  0.00000000E+00  1.23755293E+01  1.23755293E+01
 -2.47510585E+01  0.00000000E+00  1.23755293E+01  1.23755293E+01 -2.47510585E+01
  0.00000000E+00  1.23755293E+01  1.23755293E+01 -2.47510585E+01  0.00000000E+00
  1.23755293E+01  1.23755293E+01 -2.47510585E+01  0.00000000E+00  1.23755293E+01
  1.23755293E+01 -2.47510585E+01  0.00000000E+00  1.23755293E+01  1.23755293E+01
 -2.47510585E+01  0.00000000E+00  1.23755293E+01  1.23755293E+01 -2.47510585E+01
  0.00000000E+00  1.23755293E+01  1.23755293E+01 -2.47510585E+01  0.00000000E+00
  1.23755293E+01  1.23755293E+01 -2.47510585E+01  0.00000000E+00  1.23755293E+01
  1.23755293E+01 -2.47510585E+01  0.00000000E+00  1.23755293E+01  1.23755293E+01
 -2.47510585E+01  0.00000000E+00  1.23755293E+01  1.23755293E+01 -2.47510585E+01
  0.00000000E+00  1.23755293E+01  1.23755293E+01 -2.47510585E+01  0.00000000E+00
  1.23755293E+01  1.23755293E+01 -2.47510585E+01  0.00000000E+00  1.23755293E+01
  1.23755293E+01 -2.47510585E+01  0.00000000E+00  1.23755293E+01  1.23755293E+01
 -2.47510585E+01  0.00000000E+00  1.23755293E+01  1.23755293E+01 -2.47510585E+01
  0.00000000E+00  1.23755293E+01  1.23755293E+01 -2.47510585E+01  0.00000000E+00
  1.23755293E+01  1.23755293E+01 -2.47510585E+01  0.00000000E+00  1.23755293E+01
  1.23755293E+01 -2.47510585E+01  0.00000000E+00  1.23755293E+01  1.23755293E+01
 -2.47510585E+01  0.00000000E+00  1.23755293E+01  1.23755293E+01 -2.47510585E+01
  0.00000000E+00  1.23755293E+01  1.23755293E+01 -2.47510585E+01  0.00000000E+00
  1.23755293E+01  1.23755293E+01 -2.47510585E+01  0.00000000E+00  1.23755293E+01
  1.23755293E+01 -2.47510585E+01  0.00000000E+00  1.23755293E+01  1.23755293E+01
 -2.47510585E+01  0.00000000E+00  1.23755293E+01  1.23755293E+01 -2.47510585E+01
  0.00000000E+00  1.23755293E+01  1.23755293E+01 -2.47510585E+01  0.00000000E+00
  1.23755293E+01  1.23755293E+01 -2.47510585E+01  0.00000000E+00  1.23755293E+01
  1.23755293E+01 -2.47510585E+01  0.00000000E+00  1.23755293E+01  1.23755293E+01
 -2.47510585E+01  0.00000000E+00  1.23755293E+01  1.23755293E+01 -2.47510585E+01
  0.00000000E+00  1.23755293E+01  1.23755293E+01 -2.47510585E+01  0.00000000E+00
  1.23755293E+01  1.23755293E+01 -2.47510585E+01  0.00000000E+00  1.23755293E+01
  1.23755293E+01 -2.47510585E+01  0.00000000E+00  1.23755293E+01  1.23755293E+01
 -2.47510585E+01  0.00000000E+00  1.23755293E+01  1.23755293E+01 -2.47510585E+01
  0.00000000E+00  1.23755293E+01  1.23755293E+01 -2.47510585E+01  0.00000000E+00
  1.23755293E+01  1.23755293E+01 -2.47510585E+01  0.00000000E+00  1.23755293E+01
  1.23755293E+01 -2.47510585E+01  0.00000000E+00  1.23755293E+01  1.23755293E+01
 -2.47510585E+01  0.00000000E+00  1.23755293E+01  1.23755293E+01 -2.47510585E+01
  0.00000000E+00  1.23755293E+01  1.23755293E+01 -2.47510585E+01  0.00000000E+00
  1.23755293E+01  1.23755293E+01 -2.47510585E+01  0.00000000E+00  1.23755293E+01
  1.23755293E+01 -2.47510585E+01  0.00000000E+00  1.23755293E+01  1.23755293E+01
 -2.47510585E+01  0.00000000E+00  1.23755293E+01  1.23755293E+01 -2.47510585E+01
  0.00000000E+00  1.23755293E+01  1.23755293E+01 -2.47510585E+01  0.00000000E+00
  1.23755293E+01  1.23755293E+01 -2.47510585E+01  0.00000000E+00  1.23755293E+01
  1.23755293E+01 -2.47510585E+01  0.00000000E+00  1.23755293E+01  1.23755293E+01
 -2.47510585E+01  0.00000000E+00  1.23755293E+01  1.23755293E+01 -2.47510585E+01
  0.00000000E+00  1.23755293E+01  1.23755293E+01 -2.47510585E+01  0.00000000E+00
  1.23755293E+01  1.23755293E+01 -2.47510585E+01  0.00000000E+00  1.23755293E+01
  1.23755293E+01 -2.47510585E+01  0.00000000E+00  1.23755293E+01  1.23755293E+01
 -2.47510585E+01  0.00000000E+00  1.23755293E+01  1.23755293E+01 -2.47510585E+01
  0.00000000E+00  1.23755293E+01  1.23755293E+01 -2.47510585E+01  0.00000000E+00
  1.23755293E+01  1.23755293E+01 -2.47510585E+01  0.00000000E+00  1.23755293E+01
  1.23755293E+01 -2.47510585E+01  0.00000000E+00  1.23755293E+01  1.23755293E+01
 -2.47510585E+01  0.00000000E+00  1.23755293E+01  1.23755293E+01 -2.47510585E+01
  0.00000000E+00  1.23755293E+01  1.23755293E+01 -2.47510585E+01  0.00000000E+00
  1.23755293E+01  1.23755293E+01 -2.47510585E+01  0.00000000E+00  1.23755293E+01
  1.23755293E+01 -2.47510585E+01  0.00000000E+00  1.23755293E+01  1.23755293E+01
 -2.47510585E+01  0.00000000E+00  1.23755293E+01  1.23755293E+01 -2.47510585E+01
  0.00000000E+00  1.23755293E+01  1.23755293E+01 -2.47510585E+01  0.00000000E+00
  1.23755293E+01  1.23755293E+01 -2.47510585E+01  0.00000000E+00  1.23755293E+01
  1.23755293E+01 -2.47510585E+01  0.00000000E+00  1.23755293E+01  1.23755293E+01
 -2.47510585E+01  0.00000000E+00  1.23755293E+01  1.23755293E+01 -2.47510585E+01
  0.00000000E+00  1.23755293E+01  1.23755293E+01 -2.47510585E+01  0.00000000E+00
  1.23755293E+01  1.23755293E+01 -2.47510585E+01  0.00000000E+00  1.23755293E+01
  1.23755293E+01 -2.47510585E+01  0.00000000E+00  1.23755293E+01  1.23755293E+01
 -2.47510585E+01  0.00000000E+00  1.23755293E+01  1.23755293E+01 -2.47510585E+01
  0.00000000E+00  1.23755293E+01  1.23755293E+01 -2.47510585E+01  0.00000000E+00
  1.23755293E+01  1.23755293E+01 -2.47510585E+01  0.00000000E+00  1.23755293E+01
  1.23755293E+01 -2.47510585E+01  0.00000000E+00  1.23755293E+01  1.23755293E+01
 -2.47510585E+01  0.00000000E+00  1.23755293E+01  1.23755293E+01 -2.47510585E+01
  0.00000000E+00  1.23755293E+01  1.23755293E+01 -2.47510585E+01  0.00000000E+00
  1.23755293E+01  1.23755293E+01 -2.47510585E+01  0.00000000E+00  1.23755293E+01
  1.23755293E+01 -2.47510585E+01  0.00000000E+00  1.23755293E+01  1.23755293E+01
 -2.47510585E+01  0.00000000E+00  1.23755293E+01  1.23755293E+01 -2.47510585E+01
  0.00000000E+00  1.23755293E+01  1.23755293E+01 -2.47510585E+01  0.00000000E+00
  1.23755293E+01  1.23755293E+01 -2.47510585E+01  0.00000000E+00  1.23755293E+01
  1.23755293E+01 -2.47510585E+01  0.00000000E+00  1.23755293E+01  1.23755293E+01
 -2.47510585E+01  0.00000000E+00  1.23755293E+01  1.23755293E+01 -2.47510585E+01
  0.00000000E+00  1.23755293E+01  1.23755293E+01 -2.47510585E+01  0.00000000E+00
  1.23755293E+01  1.23755293E+01 -2.47510585E+01  0.00000000E+00  1.23755293E+01
  1.23755293E+01 -2.47510585E+01  0.00000000E+00  1.23755293E+01  1.23755293E+01
 -2.47510585E+01  0.00000000E+00  1.23755293E+01  1.23755293E+01 -2.47510585E+01
  0.00000000E+00  1.23755293E+01  1.23755293E+01 -2.47510585E+01  0.00000000E+00
  1.23755293E+01  1.23755293E+01 -2.47510585E+01  0.00000000E+00  1.23755293E+01
  1.23755293E+01 -2.47510585E+01  0.00000000E+00  1.23755293E+01  1.23755293E+01
 -2.47510585E+01  0.00000000E+00  1.23755293E+01  1.23755293E+01 -2.47510585E+01
  0.00000000E+00  1.23755293E+01  1.23755293E+01 -2.47510585E+01  0.00000000E+00
  1.23755293E+01  1.23755293E+01 -2.47510585E+01  0.00000000E+00  1.23755293E+01
  1.23755293E+01 -2.47510585E+01  0.00000000E+00  1.23755293E+01  1.23755293E+01
 -2.47510585E+01  0.00000000E+00  1.23755293E+01  1.23755293E+01 -2.47510585E+01
  0.00000000E+00  1.23755293E+01  1.23755293E+01 -2.47510585E+01  0.00000000E+00
  1.23755293E+01  1.23755293E+01 -2.47510585E+01  0.00000000E+00  1.23755293E+01
  1.23755293E+01 -2.47510585E+01  0.00000000E+00  1.23755293E+01  1.23755293E+01
 -2.47510585E+01  0.00000000E+00  1.23755293E+01  1.23755293E+01 -2.47510585E+01
  0.00000000E+00  1.23755293E+01  1.23755293E+01 -2.47510585E+01  0.00000000E+00
  1.23755293E+01  1.23755293E+01 -2.47510585E+01  0.00000000E+00  1.23755293E+01
  1.23755293E+01 -2.47510585E+01  0.00000000E+00  1.23755293E+01  1.23755293E+01
 -2.47510585E+01  0.00000000E+00  1.23755293E+01  1.23755293E+01 -2.47510585E+01
  0.00000000E+00  1.23755293E+01  1.23755293E+01 -2.47510585E+01  0.00000000E+00
  1.23755293E+01  1.23755293E+01 -2.47510585E+01  0.00000000E+00  1.23755293E+01
  1.23755293E+01 -2.47510585E+01  0.00000000E+00  1.23755293E+01  1.23755293E+01
 -2.47510585E+01  0.00000000E+00  1.23755293E+01  1.23755293E+01 -2.47510585E+01
  0.00000000E+00  1.23755293E+01  1.23755293E+01 -2.47510585E+01  0.00000000E+00
  1.23755293E+01  1.23755293E+01 -2.47510585E+01  0.00000000E+00  1.23755293E+01
  1.23755293E+01 -2.47510585E+01  0.00000000E+00  1.23755293E+01  1.23755293E+01
 -2.47510585E+01  0.00000000E+00  1.23755293E+01  1.23755293E+01 -2.47510585E+01
  0.00000000E+00  1.23755293E+01  1.23755293E+01 -2.47510585E+01  0.00000000E+00
  1.23755293E+01  1.23755293E+01 -2.47510585E+01  0.00000000E+00  1.23755293E+01
  1.23755293E+01 -2.47510585E+01  0.00000000E+00  1.23755293E+01  1.23755293E+01
 -2.47510585E+01  0.00000000E+00  1.23755293E+01  1.23755293E+01 -2.47510585E+01
  0.00000000E+00  1.23755293E+01  1.23755293E+01 -2.47510585E+01  0.00000000E+00
  1.23755293E+01  1.23755293E+01 -2.47510585E+01  0.00000000E+00  1.23755293E+01
  1.23755293E+01 -2.47510585E+01  0.00000000E+00  1.23755293E+01  1.23755293E+01
 -2.47510585E+01  0.00000000E+00  1.23755293E+01  1.23755293E+01 -2.47510585E+01
  0.00000000E+00  1.23755293E+01  1.23755293E+01 -2.47510585E+01  0.00000000E+00
  1.23755293E+01  1.23755293E+01 -2.47510585E+01  0.00000000E+00  1.23755293E+01
  1.23755293E+01 -2.47510585E+01  0.00000000E+00  1.23755293E+01  1.23755293E+01
 -2.47510585E+01  0.00000000E+00  1.23755293E+01  1.23755293E+01 -2.47510585E+01
  0.00000000E+00  1.23755293E+01  1.23755293E+01 -2.47510585E+01  0.00000000E+00
  1.23755293E+01  1.23755293E+01 -2.47510585E+01  0.00000000E+00  1.23755293E+01
  1.23755293E+01 -2.47510585E+01  0.00000000E+00  1.23755293E+01  1.23755293E+01
 -2.47510585E+01  0.00000000E+00  1.23755293E+01  1.23755293E+01 -2.47510585E+01
  0.00000000E+00  1.23755293E+01  1.23755293E+01 -2.47510585E+01  0.00000000E+00
  1.23755293E+01  1.23755293E+01 -2.47510585E+01  0.00000000E+00  1.23755293E+01
  1.23755293E+01 -2.47510585E+01  0.00000000E+00  1.23755293E+01  1.23755293E+01
 -2.47510585E+01  0.00000000E+00  1.23755293E+01  1.23755293E+01 -2.47510585E+01
  0.00000000E+00  1.23755293E+01  1.23755293E+01 -2.47510585E+01  0.00000000E+00
  1.23755293E+01  1.23755293E+01 -2.47510585E+01  0.00000000E+00  1.23755293E+01
  1.23755293E+01 -2.47510585E+01  0.00000000E+00  1.23755293E+01  1.23755293E+01
 -2.47510585E+01  0.00000000E+00  1.23755293E+01  1.23755293E+01 -2.47510585E+01
  0.00000000E+00  1.23755293E+01  1.23755293E+01 -2.47510585E+01  0.00000000E+00
  1.23755293E+01  1.23755293E+01 -2.47510585E+01  0.00000000E+00  1.23755293E+01
  1.23755293E+01 -2.47510585E+01  0.00000000E+00  1.23755293E+01  1.23755293E+01
 -2.47510585E+01  0.00000000E+00  1.23755293E+01  1.23755293E+01 -2.47510585E+01
  0.00000000E+00  1.23755293E+01  1.23755293E+01 -2.47510585E+01  0.00000000E+00
  1.23755293E+01  1.23755293E+01 -2.47510585E+01  0.00000000E+00  1.23755293E+01
  1.23755293E+01 -2.47510585E+01  0.00000000E+00  1.23755293E+01  1.23755293E+01
 -2.47510585E+01  0.00000000E+00  1.23755293E+01  1.23755293E+01 -2.47510585E+01
  0.00000000E+00  1.23755293E+01  1.23755293E+01 -2.47510585E+01  0.00000000E+00
  1.23755293E+01  1.23755293E+01 -2.47510585E+01  0.00000000E+00  1.23755293E+01
  1.23755293E+01 -2.47510585E+01  0.00000000E+00  1.23755293E+01  1.23755293E+01
 -2.47510585E+01  0.00000000E+00  1.23755293E+01  1.23755293E+01 -2.47510585E+01
  0.00000000E+00  1.23755293E+01  1.23755293E+01 -2.47510585E+01  0.00000000E+00
  1.23755293E+01  1.23755293E+01 -2.47510585E+01  0.00000000E+00  1.23755293E+01
  1.23755293E+01 -2.47510585E+01  0.00000000E+00  1.23755293E+01  1.23755293E+01
 -2.47510585E+01  0.00000000E+00  1.23755293E+01  1.23755293E+01 -2.47510585E+01
  0.00000000E+00  1.23755293E+01  1.23755293E+01 -2.47510585E+01  0.00000000E+00
  1.23755293E+01  1.23755293E+01 -2.47510585E+01  0.00000000E+00  1.23755293E+01
  1.23755293E+01 -2.47510585E+01  0.00000000E+00  1.23755293E+01  1.23755293E+01
 -2.47510585E+01  0.00000000E+00  1.23755293E+01  1.23755293E+01 -2.47510585E+01
  0.00000000E+00  1.23755293E+01  1.23755293E+01 -2.47510585E+01  0.00000000E+00
  1.23755293E+01  1.23755293E+01 -2.47510585E+01  0.00000000E+00  1.23755293E+01
  1.23755293E+01 -2.47510585E+01  0.00000000E+00  1.23755293E+01  1.23755293E+01
 -2.47510585E+01  0.00000000E+00  1.23755293E+01  1.23755293E+01 -2.47510585E+01
  0.00000000E+00  1.23755293E+01  1.23755293E+01 -2.47510585E+01  0.00000000E+00
  1.23755293E+01  1.23755293E+01 -2.47510585E+01  0.00000000E+00  1.23755293E+01
  1.23755293E+01 -2.47510585E+01  0.00000000E+00  1.23755293E+01  1.23755293E+01
 -2.47510585E+01  0.00000000E+00  1.23755293E+01  1.23755293E+01 -2.47510585E+01
  0.00000000E+00  1.23755293E+01  1.23755293E+01 -2.47510585E+01  0.00000000E+00
  1.23755293E+01  1.23755293E+01 -2.47510585E+01  0.00000000E+00  1.23755293E+01
  1.23755293E+01 -2.47510585E+01  0.00000000E+00  1.23755293E+01  1.23755293E+01
 -2.47510585E+01  0.00000000E+00  1.23755293E+01  1.23755293E+01 -2.47510585E+01
  0.00000000E+00  1.23755293E+01  1.23755293E+01 -2.47510585E+01  0.00000000E+00
  1.23755293E+01  1.23755293E+01 -2.47510585E+01  0.00000000E+00  1.23755293E+01
  1.23755293E+01 -2.47510585E+01  0.00000000E+00  1.23755293E+01  1.23755293E+01
 -2.47510585E+01  0.00000000E+00  1.23755293E+01  1.23755293E+01 -2.47510585E+01
  0.00000000E+00  1.23755293E+01  1.23755293E+01 -2.47510585E+01  0.00000000E+00
  1.23755293E+01  1.23755293E+01 -2.47510585E+01  0.00000000E+00  1.23755293E+01
  1.23755293E+01 -2.47510585E+01  0.00000000E+00  1.23755293E+01  1.23755293E+01
 -2.47510585E+01  0.00000000E+00  1.23755293E+01  1.23755293E+01 -2.47510585E+01
  0.00000000E+00  1.23755293E+01  1.23755293E+01 -2.47510585E+01  0.00000000E+00
  1.23755293E+01  1.23755293E+01 -2.47510585E+01  0.00000000E+00  1.23755293E+01
  1.23755293E+01 -2.47510585E+01  0.00000000E+00  1.23755293E+01  1.23755293E+01
 -2.47510585E+01  0.00000000E+00  1.23755293E+01  1.23755293E+01 -2.47510585E+01
  0.00000000E+00  1.23755293E+01  1.23755293E+01 -2.47510585E+01  0.00000000E+00
  1.23755293E+01  1.23755293E+01 -2.47510585E+01  0.00000000E+00  1.23755293E+01
  1.23755293E+01 -2.47510585E+01  0.00000000E+00  1.23755293E+01  1.23755293E+01
 -2.47510585E+01  0.00000000E+00  1.23755293E+01  1.23755293E+01 -2.47510585E+01
  0.00000000E+00  1.23755293E+01  1.23755293E+01 -2.47510585E+01  0.00000000E+00
  1.23755293E+01  1.23755293E+01 -2.47510585E+01  0.00000000E+00  1.23755293E+01
  1.23755293E+01 -2.47510585E+01  0.00000000E+00  1.23755293E+01  1.23755293E+01
 -2.47510585E+01  0.00000000E+00  1.23755293E+01  1.23755293E+01 -2.47510585E+01
  0.00000000E+00  1.23755293E+01  1.23755293E+01 -2.47510585E+01  0.00000000E+00
  1.23755293E+01  1.23755293E+01 -2.47510585E+01  0.00000000E+00  1.23755293E+01
  1.23755293E+01 -2.47510585E+01  0.00000000E+00  1.23755293E+01  1.23755293E+01
 -2.47510585E+01  0.00000000E+00  1.23755293E+01  1.23755293E+01 -2.47510585E+01
  0.00000000E+00  1.23755293E+01  1.23755293E+01 -2.47510585E+01  0.00000000E+00
  1.23755293E+01  1.23755293E+01 -2.47510585E+01  0.00000000E+00  1.23755293E+01
  1.23755293E+01 -2.47510585E+01  0.00000000E+00  1.23755293E+01  1.23755293E+01
 -2.47510585E+01  0.00000000E+00  1.23755293E+01  1.23755293E+01 -2.47510585E+01
  0.00000000E+00  1.23755293E+01  1.23755293E+01 -2.47510585E+01  0.00000000E+00
  1.23755293E+01  1.23755293E+01 -2.47510585E+01  0.00000000E+00  1.23755293E+01
  1.23755293E+01 -2.47510585E+01  0.00000000E+00  1.23755293E+01  1.23755293E+01
 -2.47510585E+01  0.00000000E+00  1.23755293E+01  1.23755293E+01 -2.47510585E+01
  0.00000000E+00  1.23755293E+01  1.23755293E+01 -2.47510585E+01  0.00000000E+00
  1.23755293E+01  1.23755293E+01 -2.47510585E+01  0.00000000E+00  1.23755293E+01
  1.23755293E+01 -2.47510585E+01  0.00000000E+00  1.23755293E+01  1.23755293E+01
 -2.47510585E+01  0.00000000E+00  1.23755293E+01  1.23755293E+01 -2.47510585E+01
  0.00000000E+00  1.23755293E+01  1.23755293E+01 -2.47510585E+01  0.00000000E+00
  1.23755293E+01  1.23755293E+01 -2.47510585E+01  0.00000000E+00  1.23755293E+01
  1.23755293E+01 -2.47510585E+01  0.00000000E+00  1.23755293E+01  1.23755293E+01
 -2.47510585E+01  0.00000000E+00  1.23755293E+01  1.23755293E+01 -2.47510585E+01
  0.00000000E+00  1.23755293E+01  1.23755293E+01 -2.47510585E+01  0.00000000E+00
  1.23755293E+01  1.23755293E+01 -2.47510585E+01  0.00000000E+00  1.23755293E+01
  1.23755293E+01 -2.47510585E+01  0.00000000E+00  1.23755293E+01  1.23755293E+01
 -2.47510585E+01  0.00000000E+00  1.23755293E+01  1.23755293E+01 -2.47510585E+01
  0.00000000E+00  1.23755293E+01  1.23755293E+01 -2.47510585E+01  0.00000000E+00
  1.23755293E+01  1.23755293E+01 -2.47510585E+01  0.00000000E+00  1.23755293E+01
  1.23755293E+01 -2.47510585E+01  0.00000000E+00  1.23755293E+01  1.23755293E+01
 -2.47510585E+01  0.00000000E+00  1.23755293E+01  1.23755293E+01 -2.47510585E+01
  0.00000000E+00  1.23755293E+01  1.23755293E+01 -2.47510585E+01  0.00000000E+00
  1.23755293E+01  1.23755293E+01 -2.47510585E+01  0.00000000E+00  1.23755293E+01
  1.23755293E+01 -2.47510585E+01  0.00000000E+00  1.23755293E+01  1.23755293E+01
 -2.47510585E+01  0.00000000E+00  1.23755293E+01  1.23755293E+01 -2.47510585E+01
  0.00000000E+00  1.23755293E+01  1.23755293E+01 -2.47510585E+01  0.00000000E+00
  1.23755293E+01  1.23755293E+01 -2.47510585E+01  0.00000000E+00  1.23755293E+01
  1.23755293E+01 -2.47510585E+01  0.00000000E+00  1.23755293E+01  1.23755293E+01
 -2.47510585E+01  0.00000000E+00  1.23755293E+01  1.23755293E+01 -2.47510585E+01
  0.00000000E+00  1.23755293E+01  1.23755293E+01 -2.47510585E+01  0.00000000E+00
  1.23755293E+01  1.23755293E+01 -2.47510585E+01  0.00000000E+00  1.23755293E+01
  1.23755293E+01 -2.47510585E+01  0.00000000E+00  1.23755293E+01  1.23755293E+01
 -2.47510585E+01  0.00000000E+00  1.23755293E+01  1.23755293E+01 -2.47510585E+01
  0.00000000E+00  1.23755293E+01  1.23755293E+01 -2.47510585E+01  0.00000000E+00
  1.23755293E+01  1.23755293E+01 -2.47510585E+01  0.00000000E+00  1.23755293E+01
  1.23755293E+01 -2.47510585E+01  0.00000000E+00  1.23755293E+01  1.23755293E+01
 -2.47510585E+01  0.00000000E+00  1.23755293E+01  1.23755293E+01 -2.47510585E+01
  0.00000000E+00  1.23755293E+01  1.23755293E+01 -2.47510585E+01  0.00000000E+00
  1.23755293E+01  1.23755293E+01 -2.47510585E+01  0.00000000E+00  1.23755293E+01
  1.23755293E+01 -2.47510585E+01  0.00000000E+00  1.23755293E+01  1.23755293E+01
 -2.47510585E+01  0.00000000E+00  1.23755293E+01  1.23755293E+01 -2.47510585E+01
  0.00000000E+00  1.23755293E+01  1.23755293E+01 -2.47510585E+01  0.00000000E+00
  1.23755293E+01  1.23755293E+01 -2.47510585E+01  0.00000000E+00  1.23755293E+01
  1.23755293E+01 -2.47510585E+01  0.00000000E+00  1.23755293E+01  1.23755293E+01
 -2.47510585E+01  0.00000000E+00  1.23755293E+01  1.23755293E+01 -2.47510585E+01
  0.00000000E+00  1.23755293E+01  1.23755293E+01 -2.47510585E+01  0.00000000E+00
  1.23755293E+01  1.23755293E+01 -2.47510585E+01  0.00000000E+00  1.23755293E+01
  1.23755293E+01 -2.47510585E+01  0.00000000E+00  1.23755293E+01  1.23755293E+01
 -2.47510585E+01  0.00000000E+00  1.23755293E+01  1.23755293E+01 -2.47510585E+01
  0.00000000E+00  1.23755293E+01  1.23755293E+01 -2.47510585E+01  0.00000000E+00
  1.23755293E+01  1.23755293E+01 -2.47510585E+01  0.00000000E+00  1.23755293E+01
  1.23755293E+01 -2.47510585E+01  0.00000000E+00  1.23755293E+01  1.23755293E+01
 -2.47510585E+01  0.00000000E+00  1.23755293E+01  1.23755293E+01 -2.47510585E+01
  0.00000000E+00  1.23755293E+01  1.23755293E+01 -2.47510585E+01  0.00000000E+00
  1.23755293E+01  1.23755293E+01 -2.47510585E+01  0.00000000E+00  1.23755293E+01
  1.23755293E+01 -2.47510585E+01  0.00000000E+00  1.23755293E+01  1.23755293E+01
 -2.47510585E+01  0.00000000E+00  1.23755293E+01  1.23755293E+01 -2.47510585E+01
  0.00000000E+00  1.23755293E+01  1.23755293E+01 -2.47510585E+01  0.00000000E+00
  1.23755293E+01  1.23755293E+01 -2.47510585E+01  0.00000000E+00  1.23755293E+01
  1.23755293E+01 -2.47510585E+01  0.00000000E+00  1.23755293E+01  1.23755293E+01
 -2.47510585E+01  0.00000000E+00  1.23755293E+01  1.23755293E+01 -2.47510585E+01
  0.00000000E+00  1.23755293E+01  1.23755293E+01 -2.47510585E+01  0.00000000E+00
  1.23755293E+01  1.23755293E+01 -2.47510585E+01  0.00000000E+00  1.23755293E+01
  1.23755293E+01 -2.47510585E+01  0.00000000E+00  1.23755293E+01  1.23755293E+01
 -2.47510585E+01  0.00000000E+00  1.23755293E+01  1.23755293E+01 -2.47510585E+01
  0.00000000E+00  1.23755293E+01  1.23755293E+01 -2.47510585E+01  0.00000000E+00
  1.23755293E+01  1.23755293E+01 -2.47510585E+01  0.00000000E+00  1.23755293E+01
  1.23755293E+01 -2.47510585E+01  0.00000000E+00  1.23755293E+01  1.23755293E+01
 -2.47510585E+01  0.00000000E+00  1.23755293E+01  1.23755293E+01 -2.47510585E+01
  0.00000000E+00  1.23755293E+01  1.23755293E+01 -2.47510585E+01  0.00000000E+00
  1.23755293E+01  1.23755293E+01 -2.47510585E+01  0.00000000E+00  1.23755293E+01
  1.23755293E+01 -2.47510585E+01  0.00000000E+00  1.23755293E+01  1.23755293E+01
 -2.47510585E+01  0.00000000E+00  1.23755293E+01  1.23755293E+01 -2.47510585E+01
  0.00000000E+00  1.23755293E+01  1.23755293E+01 -2.47510585E+01  0.00000000E+00
  1.23755293E+01  1.23755293E+01 -2.47510585E+01  0.00000000E+00  1.23755293E+01
  1.23755293E+01 -2.47510585E+01  0.00000000E+00  1.23755293E+01  1.23755293E+01
 -2.47510585E+01  0.00000000E+00  1.23755293E+01  1.23755293E+01 -2.47510585E+01
  0.00000000E+00  1.23755293E+01  1.23755293E+01 -2.47510585E+01  0.00000000E+00
  1.23755293E+01  1.23755293E+01 -2.47510585E+01  0.00000000E+00  1.23755293E+01
  1.23755293E+01 -2.47510585E+01  0.00000000E+00  1.23755293E+01  1.23755293E+01
 -2.47510585E+01  0.00000000E+00  1.23755293E+01  1.23755293E+01 -2.47510585E+01
  0.00000000E+00  1.23755293E+01  1.23755293E+01 -2.47510585E+01  0.00000000E+00
  1.23755293E+01  1.23755293E+01 -2.47510585E+01  0.00000000E+00  1.23755293E+01
  1.23755293E+01 -2.47510585E+01  0.00000000E+00  1.23755293E+01  1.23755293E+01
 -2.47510585E+01  0.00000000E+00  1.23755293E+01  1.23755293E+01 -2.47510585E+01
  0.00000000E+00  1.23755293E+01  1.23755293E+01 -2.47510585E+01  0.00000000E+00
  1.23755293E+01  1.23755293E+01 -2.47510585E+01  0.00000000E+00  1.23755293E+01
  1.23755293E+01 -2.47510585E+01  0.00000000E+00  1.23755293E+01  1.23755293E+01
 -2.47510585E+01  0.00000000E+00  1.23755293E+01  1.23755293E+01 -2.47510585E+01
  0.00000000E+00  1.23755293E+01  1.23755293E+01 -2.47510585E+01  0.00000000E+00
  1.23755293E+01  1.23755293E+01 -2.47510585E+01  0.00000000E+00  1.23755293E+01
  1.23755293E+01 -2.47510585E+01  0.00000000E+00  1.23755293E+01  1.23755293E+01
 -2.47510585E+01  0.00000000E+00  1.23755293E+01  1.23755293E+01 -2.47510585E+01
  0.00000000E+00  1.23755293E+01  1.23755293E+01 -2.47510585E+01  0.00000000E+00
  1.23755293E+01  1.23755293E+01 -2.47510585E+01  0.00000000E+00  1.23755293E+01
  1.23755293E+01 -2.47510585E+01  0.00000000E+00  1.23755293E+01  1.23755293E+01
 -2.47510585E+01  0.00000000E+00  1.23755293E+01  1.23755293E+01 -2.47510585E+01
  0.00000000E+00  1.23755293E+01  1.23755293E+01 -2.47510585E+01  0.00000000E+00
  1.23755293E+01  1.23755293E+01 -2.47510585E+01  0.00000000E+00  1.23755293E+01
  1.23755293E+01 -2.47510585E+01  0.00000000E+00  1.23755293E+01  1.23755293E+01
 -2.47510585E+01  0.00000000E+00  1.23755293E+01  1.23755293E+01 -2.47510585E+01
  0.00000000E+00  1.23755293E+01  1.23755293E+01 -2.47510585E+01  0.00000000E+00
  1.23755293E+01  1.23755293E+01 -2.47510585E+01  0.00000000E+00  1.23755293E+01
  1.23755293E+01 -2.47510585E+01  0.00000000E+00  1.23755293E+01  1.23755293E+01
 -2.47510585E+01  0.00000000E+00  1.23755293E+01  1.23755293E+01 -2.47510585E+01
  0.00000000E+00  1.23755293E+01  1.23755293E+01 -2.47510585E+01  0.00000000E+00
  1.23755293E+01  1.23755293E+01 -2.47510585E+01  0.00000000E+00  1.23755293E+01
  1.23755293E+01 -2.47510585E+01  0.00000000E+00  1.23755293E+01  1.23755293E+01
 -2.47510585E+01  0.00000000E+00  1.23755293E+01  1.23755293E+01 -2.47510585E+01
  0.00000000E+00  1.23755293E+01  1.23755293E+01 -2.47510585E+01  0.00000000E+00
  1.23755293E+01  1.23755293E+01 -2.47510585E+01  0.00000000E+00  1.23755293E+01
  1.23755293E+01 -2.47510585E+01  0.00000000E+00  1.23755293E+01  1.23755293E+01
 -2.47510585E+01  0.00000000E+00  1.23755293E+01  1.23755293E+01 -2.47510585E+01
  0.00000000E+00  1.23755293E+01  1.23755293E+01 -2.47510585E+01  0.00000000E+00
  1.23755293E+01  1.23755293E+01 -2.47510585E+01  0.00000000E+00  1.23755293E+01
  1.23755293E+01 -2.47510585E+01  0.00000000E+00  1.23755293E+01  1.23755293E+01
 -2.47510585E+01  0.00000000E+00  1.23755293E+01  1.23755293E+01 -2.47510585E+01
  0.00000000E+00  1.23755293E+01  1.23755293E+01 -2.47510585E+01  0.00000000E+00
  1.23755293E+01  1.23755293E+01 -2.47510585E+01  0.00000000E+00  1.23755293E+01
  1.23755293E+01 -2.47510585E+01  0.00000000E+00  1.23755293E+01  1.23755293E+01
 -2.47510585E+01  0.00000000E+00  1.23755293E+01  1.23755293E+01 -2.47510585E+01
  0.00000000E+00  1.23755293E+01  1.23755293E+01 -2.47510585E+01  0.00000000E+00
  1.23755293E+01  1.23755293E+01 -2.47510585E+01  0.00000000E+00  1.23755293E+01
  1.23755293E+01 -2.47510585E+01  0.00000000E+00  1.23755293E+01  1.23755293E+01
 -2.47510585E+01  0.00000000E+00  1.23755293E+01  1.23755293E+01 -2.47510585E+01
  0.00000000E+00  1.23755293E+01  1.23755293E+01 -2.47510585E+01  0.00000000E+00
  1.23755293E+01  1.23755293E+01 -2.47510585E+01  0.00000000E+00  1.23755293E+01
  1.23755293E+01 -2.47510585E+01  0.00000000E+00  1.23755293E+01  1.23755293E+01
 -2.47510585E+01  0.00000000E+00  1.23755293E+01  1.23755293E+01 -2.47510585E+01
  0.00000000E+00  1.23755293E+01  1.23755293E+01 -2.47510585E+01  0.00000000E+00
  1.23755293E+01  1.23755293E+01 -2.47510585E+01  0.00000000E+00  1.23755293E+01
  1.23755293E+01 -2.47510585E+01  0.00000000E+00  1.23755293E+01  1.23755293E+01
 -2.47510585E+01  0.00000000E+00  1.23755293E+01  1.23755293E+01 -2.47510585E+01
  0.00000000E+00  1.23755293E+01  1.23755293E+01 -2.47510585E+01  0.00000000E+00
  1.23755293E+01  1.23755293E+01 -2.47510585E+01  0.00000000E+00  1.23755293E+01
  1.23755293E+01 -2.47510585E+01  0.00000000E+00  1.23755293E+01  1.23755293E+01
 -2.47510585E+01  0.00000000E+00  1.23755293E+01  1.23755293E+01 -2.47510585E+01
  0.00000000E+00  1.23755293E+01  1.23755293E+01 -2.47510585E+01  0.00000000E+00
  1.23755293E+01  1.23755293E+01 -2.47510585E+01  0.00000000E+00  1.23755293E+01
  1.23755293E+01 -2.47510585E+01  0.00000000E+00  1.23755293E+01  1.23755293E+01
 -2.47510585E+01  0.00000000E+00  1.23755293E+01  1.23755293E+01 -2.47510585E+01
  0.00000000E+00  1.23755293E+01  1.23755293E+01 -2.47510585E+01  0.00000000E+00
  1.23755293E+01  1.23755293E+01 -2.47510585E+01  0.00000000E+00  1.23755293E+01
  1.23755293E+01 -2.47510585E+01  0.00000000E+00  1.23755293E+01  1.23755293E+01
 -2.47510585E+01  0.00000000E+00  1.23755293E+01  1.23755293E+01 -2.47510585E+01
  0.00000000E+00  1.23755293E+01  1.23755293E+01 -2.47510585E+01  0.00000000E+00
  1.23755293E+01  1.23755293E+01 -2.47510585E+01  0.00000000E+00  1.23755293E+01
  1.23755293E+01 -2.47510585E+01  0.00000000E+00  1.23755293E+01  1.23755293E+01
 -2.47510585E+01  0.00000000E+00  1.23755293E+01  1.23755293E+01 -2.47510585E+01
  0.00000000E+00  1.23755293E+01  1.23755293E+01 -2.47510585E+01  0.00000000E+00
  1.23755293E+01  1.23755293E+01 -2.47510585E+01  0.00000000E+00  1.23755293E+01
  1.23755293E+01 -2.47510585E+01  0.00000000E+00  1.23755293E+01  1.23755293E+01
 -2.47510585E+01  0.00000000E+00  1.23755293E+01  1.23755293E+01 -2.47510585E+01
  0.00000000E+00  1.23755293E+01  1.23755293E+01 -2.47510585E+01  0.00000000E+00
  1.23755293E+01  1.23755293E+01 -2.47510585E+01  0.00000000E+00  1.23755293E+01
  1.23755293E+01 -2.47510585E+01  0.00000000E+00  1.23755293E+01  1.23755293E+01
 -2.47510585E+01  0.00000000E+00  1.23755293E+01  1.23755293E+01 -2.47510585E+01
  0.00000000E+00  1.23755293E+01  1.23755293E+01 -2.47510585E+01  0.00000000E+00
  1.23755293E+01  1.23755293E+01 -2.47510585E+01  0.00000000E+00  1.23755293E+01
  1.23755293E+01 -2.47510585E+01  0.00000000E+00  1.23755293E+01  1.23755293E+01
 -2.47510585E+01  0.00000000E+00  1.23755293E+01  1.23755293E+01 -2.47510585E+01
  0.00000000E+00  1.23755293E+01  1.23755293E+01 -2.47510585E+01  0.00000000E+00
  1.23755293E+01  1.23755293E+01 -2.47510585E+01  0.00000000E+00  1.23755293E+01
  1.23755293E+01 -2.47510585E+01  0.00000000E+00  1.23755293E+01  1.23755293E+01
 -2.47510585E+01  0.00000000E+00  1.23755293E+01  1.23755293E+01 -2.47510585E+01
  0.00000000E+00  1.23755293E+01  1.23755293E+01 -2.47510585E+01  0.00000000E+00
  1.23755293E+01  1.23755293E+01 -2.47510585E+01  0.00000000E+00  1.23755293E+01
  1.23755293E+01 -2.47510585E+01  0.00000000E+00  1.23755293E+01  1.23755293E+01
 -2.47510585E+01  0.00000000E+00  1.23755293E+01  1.23755293E+01 -2.47510585E+01
  0.00000000E+00  1.23755293E+01  1.23755293E+01 -2.47510585E+01  0.00000000E+00
  1.23755293E+01  1.23755293E+01 -2.47510585E+01  0.00000000E+00  1.23755293E+01
  1.23755293E+01 -2.47510585E+01  0.00000000E+00  1.23755293E+01  1.23755293E+01
 -2.47510585E+01  0.00000000E+00  1.23755293E+01  1.23755293E+01 -2.47510585E+01
  0.00000000E+00  1.23755293E+01  1.23755293E+01 -2.47510585E+01  0.00000000E+00
  1.23755293E+01  1.23755293E+01 -2.47510585E+01  0.00000000E+00  1.23755293E+01
  1.23755293E+01 -2.47510585E+01  0.00000000E+00  1.23755293E+01  1.23755293E+01
 -2.47510585E+01  0.00000000E+00  1.23755293E+01  1.23755293E+01 -2.47510585E+01
  0.00000000E+00  1.23755293E+01  1.23755293E+01 -2.47510585E+01  0.00000000E+00
  1.23755293E+01  1.23755293E+01 -2.47510585E+01  0.00000000E+00  1.23755293E+01
  1.23755293E+01 -2.47510585E+01  0.00000000E+00  1.23755293E+01  1.23755293E+01
 -2.47510585E+01  0.00000000E+00  1.23755293E+01  1.23755293E+01 -2.47510585E+01
  0.00000000E+00  1.23755293E+01  1.23755293E+01 -2.47510585E+01  0.00000000E+00
  1.23755293E+01  1.23755293E+01 -2.47510585E+01  0.00000000E+00  1.23755293E+01
  1.23755293E+01 -2.47510585E+01  0.00000000E+00  1.23755293E+01  1.23755293E+01
 -2.47510585E+01  0.00000000E+00  1.23755293E+01  1.23755293E+01 -2.47510585E+01
  0.00000000E+00  1.23755293E+01  1.23755293E+01 -2.47510585E+01  0.00000000E+00
  1.23755293E+01  1.23755293E+01 -2.47510585E+01  0.00000000E+00  1.23755293E+01
  1.23755293E+01 -2.47510585E+01  0.00000000E+00  1.23755293E+01  1.23755293E+01
 -2.47510585E+01  0.00000000E+00  1.23755293E+01  1.23755293E+01 -2.47510585E+01
  0.00000000E+00  1.23755293E+01  1.23755293E+01 -2.47510585E+01  0.00000000E+00
  1.23755293E+01  1.23755293E+01 -2.47510585E+01  0.00000000E+00  1.23755293E+01
  1.23755293E+01 -2.47510585E+01  0.00000000E+00  1.23755293E+01  1.23755293E+01
 -2.47510585E+01  0.00000000E+00  1.23755293E+01  1.23755293E+01 -2.47510585E+01
  0.00000000E+00  1.23755293E+01  1.23755293E+01 -2.47510585E+01  0.00000000E+00
  1.23755293E+01  1.23755293E+01 -2.47510585E+01  0.00000000E+00  1.23755293E+01
  1.23755293E+01 -2.47510585E+01  0.00000000E+00  1.23755293E+01  1.23755293E+01
 -2.47510585E+01  0.00000000E+00  1.23755293E+01  1.23755293E+01 -2.47510585E+01
  0.00000000E+00  1.23755293E+01  1.23755293E+01 -2.47510585E+01  0.00000000E+00
  1.23755293E+01  1.23755293E+01 -2.47510585E+01  0.00000000E+00  1.23755293E+01
  1.23755293E+01 -2.47510585E+01  0.00000000E+00  1.23755293E+01  1.23755293E+01
 -2.47510585E+01  0.00000000E+00  1.23755293E+01  1.23755293E+01 -2.47510585E+01
  0.00000000E+00  1.23755293E+01  1.23755293E+01 -2.47510585E+01  0.00000000E+00
  1.23755293E+01  1.23755293E+01 -2.47510585E+01  0.00000000E+00  1.23755293E+01
  1.23755293E+01 -2.47510585E+01  0.00000000E+00  1.23755293E+01  1.23755293E+01
 -2.47510585E+01  0.00000000E+00  1.23755293E+01  1.23755293E+01 -2.47510585E+01
  0.00000000E+00  1.23755293E+01  1.23755293E+01 -2.47510585E+01  0.00000000E+00
  1.23755293E+01  1.23755293E+01 -2.47510585E+01  0.00000000E+00  1.23755293E+01
  1.23755293E+01 -2.47510585E+01  0.00000000E+00  1.23755293E+01  1.23755293E+01
 -2.47510585E+01  0.00000000E+00  1.23755293E+01  1.23755293E+01 -2.47510585E+01
  0.00000000E+00  1.23755293E+01  1.23755293E+01 -2.47510585E+01  0.00000000E+00
  1.23755293E+01  1.23755293E+01 -2.47510585E+01  0.00000000E+00  1.23755293E+01
  1.23755293E+01 -2.47510585E+01  0.00000000E+00  1.23755293E+01  1.23755293E+01
 -2.47510585E+01  0.00000000E+00  1.23755293E+01  1.23755293E+01 -2.47510585E+01
  0.00000000E+00  1.23755293E+01  1.23755293E+01 -2.47510585E+01  0.00000000E+00
  1.23755293E+01  1.23755293E+01 -2.47510585E+01  0.00000000E+00  1.23755293E+01
  1.23755293E+01 -2.47510585E+01  0.00000000E+00  1.23755293E+01  1.23755293E+01
 -2.47510585E+01  0.00000000E+00  1.23755293E+01  1.23755293E+01 -2.47510585E+01
  0.00000000E+00  1.23755293E+01  1.23755293E+01 -2.47510585E+01  0.00000000E+00
  1.23755293E+01  1.23755293E+01 -2.47510585E+01  0.00000000E+00  1.23755293E+01
  1.23755293E+01 -2.47510585E+01  0.00000000E+00  1.23755293E+01  1.23755293E+01
 -2.47510585E+01  0.00000000E+00  1.23755293E+01  1.23755293E+01 -2.47510585E+01
  0.00000000E+00  1.23755293E+01  1.23755293E+01 -2.47510585E+01  0.00000000E+00
  1.23755293E+01  1.23755293E+01 -2.47510585E+01  0.00000000E+00  1.23755293E+01
  1.23755293E+01 -2.47510585E+01  0.00000000E+00  1.23755293E+01  1.23755293E+01
 -2.47510585E+01  0.00000000E+00  1.23755293E+01  1.23755293E+01 -2.47510585E+01
  0.00000000E+00  1.23755293E+01  1.23755293E+01 -2.47510585E+01  0.00000000E+00
  1.23755293E+01  1.23755293E+01 -2.47510585E+01  0.00000000E+00  1.23755293E+01
  1.23755293E+01 -2.47510585E+01  0.00000000E+00  1.23755293E+01  1.23755293E+01
 -2.47510585E+01  0.00000000E+00  1.23755293E+01  1.23755293E+01 -2.47510585E+01
  0.00000000E+00  1.23755293E+01  1.23755293E+01 -2.47510585E+01  0.00000000E+00
  1.23755293E+01  1.23755293E+01 -2.47510585E+01  0.00000000E+00  1.23755293E+01
  1.23755293E+01 -2.47510585E+01  0.00000000E+00  1.23755293E+01  1.23755293E+01
 -2.47510585E+01  0.00000000E+00  1.23755293E+01  1.23755293E+01 -2.47510585E+01
  0.00000000E+00  1.23755293E+01  1.23755293E+01 -2.47510585E+01  0.00000000E+00
  1.23755293E+01  1.23755293E+01 -2.47510585E+01  0.00000000E+00  1.23755293E+01
  1.23755293E+01 -2.47510585E+01  0.00000000E+00  1.23755293E+01  1.23755293E+01
 -2.47510585E+01  0.00000000E+00  1.23755293E+01  1.23755293E+01 -2.47510585E+01
  0.00000000E+00  1.23755293E+01  1.23755293E+01 -2.47510585E+01  0.00000000E+00
  1.23755293E+01  1.23755293E+01 -2.47510585E+01  0.00000000E+00  1.23755293E+01
  1.23755293E+01 -2.47510585E+01  0.00000000E+00  1.23755293E+01  1.23755293E+01
 -2.47510585E+01  0.00000000E+00  1.23755293E+01  1.23755293E+01 -2.47510585E+01
  0.00000000E+00  1.23755293E+01  1.23755293E+01 -2.47510585E+01  0.00000000E+00
  1.23755293E+01  1.23755293E+01 -2.47510585E+01  0.00000000E+00  1.23755293E+01
  1.23755293E+01 -2.47510585E+01  0.00000000E+00  1.23755293E+01  1.23755293E+01
 -2.47510585E+01  0.00000000E+00  1.23755293E+01  1.23755293E+01 -2.47510585E+01
  0.00000000E+00  1.23755293E+01  1.23755293E+01 -2.47510585E+01  0.00000000E+00
  1.23755293E+01  1.23755293E+01 -2.47510585E+01  0.00000000E+00  1.23755293E+01
  1.23755293E+01 -2.47510585E+01  0.00000000E+00  1.23755293E+01  1.23755293E+01
 -2.47510585E+01  0.00000000E+00  1.23755293E+01  1.23755293E+01 -2.47510585E+01
  0.00000000E+00  1.23755293E+01  1.23755293E+01 -2.47510585E+01  0.00000000E+00
  1.23755293E+01  1.23755293E+01 -2.47510585E+01  0.00000000E+00  1.23755293E+01
  1.23755293E+01 -2.47510585E+01  0.00000000E+00  1.23755293E+01  1.23755293E+01
 -2.47510585E+01  0.00000000E+00  1.23755293E+01  1.23755293E+01 -2.47510585E+01
  0.00000000E+00  1.23755293E+01  1.23755293E+01 -2.47510585E+01  0.00000000E+00
  1.23755293E+01  1.23755293E+01 -2.47510585E+01  0.00000000E+00  1.23755293E+01
  1.23755293E+01 -2.47510585E+01  0.00000000E+00  1.23755293E+01  1.23755293E+01
 -2.47510585E+01  0.00000000E+00  1.23755293E+01  1.23755293E+01 -2.47510585E+01
  0.00000000E+00  1.23755293E+01  1.23755293E+01 -2.47510585E+01  0.00000000E+00
  1.23755293E+01  1.23755293E+01 -2.47510585E+01  0.00000000E+00  1.23755293E+01
  1.23755293E+01 -2.47510585E+01  0.00000000E+00  1.23755293E+01  1.23755293E+01
 -2.47510585E+01  0.00000000E+00  1.23755293E+01  1.23755293E+01 -2.47510585E+01
  0.00000000E+00  1.23755293E+01  1.23755293E+01 -2.47510585E+01  0.00000000E+00
  1.23755293E+01  1.23755293E+01 -2.47510585E+01  0.00000000E+00  1.23755293E+01
  1.23755293E+01 -2.47510585E+01  0.00000000E+00  1.23755293E+01  1.23755293E+01
 -2.47510585E+01  0.00000000E+00  1.23755293E+01  1.23755293E+01 -2.47510585E+01
  0.00000000E+00  1.23755293E+01  1.23755293E+01 -2.47510585E+01  0.00000000E+00
  1.23755293E+01  1.23755293E+01 -2.47510585E+01  0.00000000E+00  1.23755293E+01
  1.23755293E+01 -2.47510585E+01  0.00000000E+00  1.23755293E+01  1.23755293E+01
 -2.47510585E+01  0.00000000E+00  1.23755293E+01  1.23755293E+01 -2.47510585E+01
  0.00000000E+00  1.23755293E+01  1.23755293E+01 -2.47510585E+01  0.00000000E+00
  1.23755293E+01  1.23755293E+01 -2.47510585E+01  0.00000000E+00  1.23755293E+01
  1.23755293E+01 -2.47510585E+01  0.00000000E+00  1.23755293E+01  1.23755293E+01
 -2.47510585E+01  0.00000000E+00  1.23755293E+01  1.23755293E+01 -2.47510585E+01
  0.00000000E+00  1.23755293E+01  1.23755293E+01 -2.47510585E+01  0.00000000E+00
  1.23755293E+01  1.23755293E+01 -2.47510585E+01  0.00000000E+00  1.23755293E+01
  1.23755293E+01 -2.47510585E+01  0.00000000E+00  1.23755293E+01  1.23755293E+01
 -2.47510585E+01  0.00000000E+00  1.23755293E+01  1.23755293E+01 -2.47510585E+01
  0.00000000E+00  1.23755293E+01  1.23755293E+01 -2.47510585E+01  0.00000000E+00
  1.23755293E+01  1.23755293E+01 -2.47510585E+01  0.00000000E+00  1.23755293E+01
  1.23755293E+01 -2.47510585E+01  0.00000000E+00  1.23755293E+01  1.23755293E+01
 -2.47510585E+01  0.00000000E+00  1.23755293E+01  1.23755293E+01 -2.47510585E+01
  0.00000000E+00  1.23755293E+01  1.23755293E+01 -2.47510585E+01  0.00000000E+00
  1.23755293E+01  1.23755293E+01 -2.47510585E+01  0.00000000E+00  1.23755293E+01
  1.23755293E+01 -2.47510585E+01  0.00000000E+00  1.23755293E+01  1.23755293E+01
 -2.47510585E+01  0.00000000E+00  1.23755293E+01  1.23755293E+01 -2.47510585E+01
  0.00000000E+00  1.23755293E+01  1.23755293E+01 -2.47510585E+01  0.00000000E+00
  1.23755293E+01  1.23755293E+01 -2.47510585E+01  0.00000000E+00  1.23755293E+01
  1.23755293E+01 -2.47510585E+01  0.00000000E+00  1.23755293E+01  1.23755293E+01
 -2.47510585E+01  0.00000000E+00  1.23755293E+01  1.23755293E+01 -2.47510585E+01
  0.00000000E+00  1.23755293E+01  1.23755293E+01 -2.47510585E+01  0.00000000E+00
  1.23755293E+01  1.23755293E+01 -2.47510585E+01  0.00000000E+00  1.23755293E+01
  1.23755293E+01 -2.47510585E+01  0.00000000E+00  1.23755293E+01  1.23755293E+01
 -2.47510585E+01  0.00000000E+00  1.23755293E+01  1.23755293E+01 -2.47510585E+01
  0.00000000E+00  1.23755293E+01  1.23755293E+01 -2.47510585E+01  0.00000000E+00
  1.23755293E+01  1.23755293E+01 -2.47510585E+01  0.00000000E+00  1.23755293E+01
  1.23755293E+01 -2.47510585E+01  0.00000000E+00  1.23755293E+01  1.23755293E+01
 -2.47510585E+01  0.00000000E+00  1.23755293E+01  1.23755293E+01 -2.47510585E+01
  0.00000000E+00  1.23755293E+01  1.23755293E+01 -2.47510585E+01  0.00000000E+00
  1.23755293E+01  1.23755293E+01 -2.47510585E+01  0.00000000E+00  1.23755293E+01
  1.23755293E+01 -2.47510585E+01  0.00000000E+00  1.23755293E+01  1.23755293E+01
 -2.47510585E+01  0.00000000E+00  1.23755293E+01  1.23755293E+01 -2.47510585E+01
  0.00000000E+00  1.23755293E+01  1.23755293E+01 -2.47510585E+01  0.00000000E+00
  1.23755293E+01  1.23755293E+01 -2.47510585E+01  0.00000000E+00  1.23755293E+01
  1.23755293E+01 -2.47510585E+01  0.00000000E+00  1.23755293E+01  1.23755293E+01
 -2.47510585E+01  0.00000000E+00  1.23755293E+01  1.23755293E+01 -2.47510585E+01
  0.00000000E+00  1.23755293E+01  1.23755293E+01 -2.47510585E+01  0.00000000E+00
  1.23755293E+01  1.23755293E+01 -2.47510585E+01  0.00000000E+00  1.23755293E+01
  1.23755293E+01 -2.47510585E+01  0.00000000E+00  1.23755293E+01  1.23755293E+01
 -2.47510585E+01  0.00000000E+00  1.23755293E+01  1.23755293E+01 -2.47510585E+01
  0.00000000E+00  1.23755293E+01  1.23755293E+01 -2.47510585E+01  0.00000000E+00
  1.23755293E+01  1.23755293E+01 -2.47510585E+01  0.00000000E+00  1.23755293E+01
  1.23755293E+01 -2.47510585E+01  0.00000000E+00  1.23755293E+01  1.23755293E+01
 -2.47510585E+01  0.00000000E+00  1.23755293E+01  1.23755293E+01 -2.47510585E+01
  0.00000000E+00  1.23755293E+01  1.23755293E+01 -2.47510585E+01  0.00000000E+00
  1.23755293E+01  1.23755293E+01 -2.47510585E+01  0.00000000E+00  1.23755293E+01
  1.23755293E+01 -2.47510585E+01  0.00000000E+00  1.23755293E+01  1.23755293E+01
 -2.47510585E+01  0.00000000E+00  1.23755293E+01  1.23755293E+01 -2.47510585E+01
  0.00000000E+00  1.23755293E+01  1.23755293E+01 -2.47510585E+01  0.00000000E+00
  1.23755293E+01  1.23755293E+01 -2.47510585E+01  0.00000000E+00  1.23755293E+01
  1.23755293E+01 -2.47510585E+01  0.00000000E+00  1.23755293E+01  1.23755293E+01
 -2.47510585E+01  0.00000000E+00  1.23755293E+01  1.23755293E+01 -2.47510585E+01
  0.00000000E+00  1.23755293E+01  1.23755293E+01 -2.47510585E+01  0.00000000E+00
  1.23755293E+01  1.23755293E+01 -2.47510585E+01  0.00000000E+00  1.23755293E+01
  1.23755293E+01 -2.47510585E+01  0.00000000E+00  1.23755293E+01  1.23755293E+01
 -2.47510585E+01  0.00000000E+00  1.23755293E+01  1.23755293E+01 -2.47510585E+01
  0.00000000E+00  1.23755293E+01  1.23755293E+01 -2.47510585E+01  0.00000000E+00
  1.23755293E+01  1.23755293E+01 -2.47510585E+01  0.00000000E+00  1.23755293E+01
  1.23755293E+01 -2.47510585E+01  0.00000000E+00  1.23755293E+01  1.23755293E+01
 -2.47510585E+01  0.00000000E+00  1.23755293E+01  1.23755293E+01 -2.47510585E+01
  0.00000000E+00  1.23755293E+01  1.23755293E+01 -2.47510585E+01  0.00000000E+00
  1.23755293E+01  1.23755293E+01 -2.47510585E+01  0.00000000E+00  1.23755293E+01
  1.23755293E+01 -2.47510585E+01  0.00000000E+00  1.23755293E+01  1.23755293E+01
 -2.47510585E+01  0.00000000E+00  1.23755293E+01  1.23755293E+01 -2.47510585E+01
  0.00000000E+00  1.23755293E+01  1.23755293E+01 -2.47510585E+01  0.00000000E+00
  1.23755293E+01  1.23755293E+01 -2.47510585E+01  0.00000000E+00  1.23755293E+01
  1.23755293E+01 -2.47510585E+01  0.00000000E+00  1.23755293E+01  1.23755293E+01
 -2.47510585E+01  0.00000000E+00  1.23755293E+01  1.23755293E+01 -2.47510585E+01
  0.00000000E+00  1.23755293E+01  1.23755293E+01 -2.47510585E+01  0.00000000E+00
  1.23755293E+01  1.23755293E+01 -2.47510585E+01  0.00000000E+00  1.23755293E+01
  1.23755293E+01 -2.47510585E+01  0.00000000E+00  1.23755293E+01  1.23755293E+01
 -2.47510585E+01  0.00000000E+00  1.23755293E+01  1.23755293E+01 -2.47510585E+01
  0.00000000E+00  1.23755293E+01  1.23755293E+01 -2.47510585E+01  0.00000000E+00
  1.23755293E+01  1.23755293E+01 -2.47510585E+01  0.00000000E+00  1.23755293E+01
  1.23755293E+01 -2.47510585E+01  0.00000000E+00  1.23755293E+01  1.23755293E+01
 -2.47510585E+01  0.00000000E+00  1.23755293E+01  1.23755293E+01 -2.47510585E+01
  0.00000000E+00  1.23755293E+01  1.23755293E+01 -2.47510585E+01  0.00000000E+00
  1.23755293E+01  1.23755293E+01 -2.47510585E+01  0.00000000E+00  1.23755293E+01
  1.23755293E+01 -2.47510585E+01  0.00000000E+00  1.23755293E+01  1.23755293E+01
 -2.47510585E+01  0.00000000E+00  1.23755293E+01  1.23755293E+01 -2.47510585E+01
  0.00000000E+00  1.23755293E+01  1.23755293E+01 -2.47510585E+01  0.00000000E+00
  1.23755293E+01  1.23755293E+01 -2.47510585E+01  0.00000000E+00  1.23755293E+01
  1.23755293E+01 -2.47510585E+01  0.00000000E+00  1.23755293E+01  1.23755293E+01
 -2.47510585E+01  0.00000000E+00  1.23755293E+01  1.23755293E+01 -2.47510585E+01
  0.00000000E+00  1.23755293E+01  1.23755293E+01 -2.47510585E+01  0.00000000E+00
  1.23755293E+01  1.23755293E+01 -2.47510585E+01  0.00000000E+00  1.23755293E+01
  1.23755293E+01 -2.47510585E+01  0.00000000E+00  1.23755293E+01  1.23755293E+01
 -2.47510585E+01  0.00000000E+00  1.23755293E+01  1.23755293E+01 -2.47510585E+01
  0.00000000E+00  1.23755293E+01  1.23755293E+01 -2.47510585E+01  0.00000000E+00
  1.23755293E+01  1.23755293E+01 -2.47510585E+01  0.00000000E+00  1.23755293E+01
  1.23755293E+01 -2.47510585E+01  0.00000000E+00  1.23755293E+01  1.23755293E+01
 -2.47510585E+01  0.00000000E+00  1.23755293E+01  1.23755293E+01 -2.47510585E+01
  0.00000000E+00  1.23755293E+01  1.23755293E+01 -2.47510585E+01  0.00000000E+00
  1.23755293E+01  1.23755293E+01 -2.47510585E+01  0.00000000E+00  1.23755293E+01
  1.23755293E+01 -2.47510585E+01  0.00000000E+00  1.23755293E+01  1.23755293E+01
 -2.47510585E+01  0.00000000E+00  1.23755293E+01  1.23755293E+01 -2.47510585E+01
  0.00000000E+00  1.23755293E+01  1.23755293E+01 -2.47510585E+01  0.00000000E+00
  1.23755293E+01  1.23755293E+01 -2.47510585E+01  0.00000000E+00  1.23755293E+01
  1.23755293E+01 -2.47510585E+01  0.00000000E+00  1.23755293E+01  1.23755293E+01
 -2.47510585E+01  0.00000000E+00  1.23755293E+01  1.23755293E+01 -2.47510585E+01
  0.00000000E+00  1.23755293E+01  1.23755293E+01 -2.47510585E+01  0.00000000E+00
  1.23755293E+01  1.23755293E+01 -2.47510585E+01  0.00000000E+00  1.23755293E+01
  1.23755293E+01 -2.47510585E+01  0.00000000E+00  1.23755293E+01  1.23755293E+01
 -2.47510585E+01  0.00000000E+00  1.23755293E+01  1.23755293E+01 -2.47510585E+01
  0.00000000E+00  1.23755293E+01  1.23755293E+01 -2.47510585E+01  0.00000000E+00
  1.23755293E+01  1.23755293E+01 -2.47510585E+01  0.00000000E+00  1.23755293E+01
  1.23755293E+01 -2.47510585E+01  0.00000000E+00  1.23755293E+01  1.23755293E+01
 -2.47510585E+01  0.00000000E+00  1.23755293E+01  1.23755293E+01 -2.47510585E+01
  0.00000000E+00  1.23755293E+01  1.23755293E+01 -2.47510585E+01  0.00000000E+00
  1.23755293E+01  1.23755293E+01 -2.47510585E+01  0.00000000E+00  1.23755293E+01
  1.23755293E+01 -2.47510585E+01  0.00000000E+00  1.23755293E+01  1.23755293E+01
 -2.47510585E+01  0.00000000E+00  1.23755293E+01  1.23755293E+01 -2.47510585E+01
  0.00000000E+00  1.23755293E+01  1.23755293E+01 -2.47510585E+01  0.00000000E+00
  1.23755293E+01  1.23755293E+01 -2.47510585E+01  0.00000000E+00  1.23755293E+01
  1.23755293E+01 -2.47510585E+01  0.00000000E+00  1.23755293E+01  1.23755293E+01
 -2.47510585E+01  0.00000000E+00  1.23755293E+01  1.23755293E+01 -2.47510585E+01
  0.00000000E+00  1.23755293E+01  1.23755293E+01 -2.47510585E+01  0.00000000E+00
  1.23755293E+01  1.23755293E+01 -2.47510585E+01  0.00000000E+00  1.23755293E+01
  1.23755293E+01 -2.47510585E+01  0.00000000E+00  1.23755293E+01  1.23755293E+01
 -2.47510585E+01  0.00000000E+00  1.23755293E+01  1.23755293E+01 -2.47510585E+01
  0.00000000E+00  1.23755293E+01  1.23755293E+01 -2.47510585E+01  0.00000000E+00
  1.23755293E+01  1.23755293E+01 -2.47510585E+01  0.00000000E+00  1.23755293E+01
  1.23755293E+01 -2.47510585E+01  0.00000000E+00  1.23755293E+01  1.23755293E+01
 -2.47510585E+01  0.00000000E+00  1.23755293E+01  1.23755293E+01 -2.47510585E+01
  0.00000000E+00  1.23755293E+01  1.23755293E+01 -2.47510585E+01  0.00000000E+00
  1.23755293E+01  1.23755293E+01 -2.47510585E+01  0.00000000E+00  1.23755293E+01
  1.23755293E+01 -2.47510585E+01  0.00000000E+00  1.23755293E+01  1.23755293E+01
 -2.47510585E+01  0.00000000E+00  1.23755293E+01  1.23755293E+01 -2.47510585E+01
  0.00000000E+00  1.23755293E+01  1.23755293E+01 -2.47510585E+01  0.00000000E+00
  1.23755293E+01  1.23755293E+01 -2.47510585E+01  0.00000000E+00  1.23755293E+01
  1.23755293E+01 -2.47510585E+01  0.00000000E+00  1.23755293E+01  1.23755293E+01
 -2.47510585E+01  0.00000000E+00  1.23755293E+01  1.23755293E+01 -2.47510585E+01
  0.00000000E+00  1.23755293E+01  1.23755293E+01 -2.47510585E+01  0.00000000E+00
  1.23755293E+01  1.23755293E+01 -2.47510585E+01  0.00000000E+00  1.23755293E+01
  1.23755293E+01 -2.47510585E+01  0.00000000E+00  1.23755293E+01  1.23755293E+01
 -2.47510585E+01  0.00000000E+00  1.23755293E+01  1.23755293E+01 -2.47510585E+01
  0.00000000E+00  1.23755293E+01  1.23755293E+01 -2.47510585E+01  0.00000000E+00
  1.23755293E+01  1.23755293E+01 -2.47510585E+01  0.00000000E+00  1.23755293E+01
  1.23755293E+01 -2.47510585E+01  0.00000000E+00  1.23755293E+01  1.23755293E+01
 -2.47510585E+01  0.00000000E+00  1.23755293E+01  1.23755293E+01 -2.47510585E+01
  0.00000000E+00  1.23755293E+01  1.23755293E+01 -2.47510585E+01  0.00000000E+00
  1.23755293E+01  1.23755293E+01 -2.47510585E+01  0.00000000E+00  1.23755293E+01
  1.23755293E+01 -2.47510585E+01  0.00000000E+00  1.23755293E+01  1.23755293E+01
 -2.47510585E+01  0.00000000E+00  1.23755293E+01  1.23755293E+01 -2.47510585E+01
  0.00000000E+00  1.23755293E+01  1.23755293E+01 -2.47510585E+01  0.00000000E+00
  1.23755293E+01  1.23755293E+01 -2.47510585E+01  0.00000000E+00  1.23755293E+01
  1.23755293E+01 -2.47510585E+01  0.00000000E+00  1.23755293E+01  1.23755293E+01
 -2.47510585E+01  0.00000000E+00  1.23755293E+01  1.23755293E+01 -2.47510585E+01
  0.00000000E+00  1.23755293E+01  1.23755293E+01 -2.47510585E+01  0.00000000E+00
  1.23755293E+01  1.23755293E+01 -2.47510585E+01  0.00000000E+00  1.23755293E+01
  1.23755293E+01 -2.47510585E+01  0.00000000E+00  1.23755293E+01  1.23755293E+01
 -2.47510585E+01  0.00000000E+00  1.23755293E+01  1.23755293E+01 -2.47510585E+01
  0.00000000E+00  1.23755293E+01  1.23755293E+01 -2.47510585E+01  0.00000000E+00
  1.23755293E+01  1.23755293E+01 -2.47510585E+01  0.00000000E+00  1.23755293E+01
  1.23755293E+01 -2.47510585E+01  0.00000000E+00  1.23755293E+01  1.23755293E+01
 -2.47510585E+01  0.00000000E+00  1.23755293E+01  1.23755293E+01 -2.47510585E+01
  0.00000000E+00  1.23755293E+01  1.23755293E+01 -2.47510585E+01  0.00000000E+00
  1.23755293E+01  1.23755293E+01 -2.47510585E+01  0.00000000E+00  1.23755293E+01
  1.23755293E+01 -2.47510585E+01  0.00000000E+00  1.23755293E+01  1.23755293E+01
 -2.47510585E+01  0.00000000E+00  1.23755293E+01  1.23755293E+01 -2.47510585E+01
  0.00000000E+00  1.23755293E+01  1.23755293E+01 -2.47510585E+01  0.00000000E+00
  1.23755293E+01  1.23755293E+01 -2.47510585E+01  0.00000000E+00  1.23755293E+01
  1.23755293E+01 -2.47510585E+01  0.00000000E+00  1.23755293E+01  1.23755293E+01
 -2.47510585E+01  0.00000000E+00  1.23755293E+01  1.23755293E+01 -2.47510585E+01
  0.00000000E+00  1.23755293E+01  1.23755293E+01 -2.47510585E+01  0.00000000E+00
  1.23755293E+01  1.23755293E+01 -2.47510585E+01  0.00000000E+00  1.23755293E+01
  1.23755293E+01 -2.47510585E+01  0.00000000E+00  1.23755293E+01  1.23755293E+01
 -2.47510585E+01  0.00000000E+00  1.23755293E+01  1.23755293E+01 -2.47510585E+01
  0.00000000E+00  1.23755293E+01  1.23755293E+01 -2.47510585E+01  0.00000000E+00
  1.23755293E+01  1.23755293E+01 -2.47510585E+01  0.00000000E+00  1.23755293E+01
  1.23755293E+01 -2.47510585E+01  0.00000000E+00  1.23755293E+01  1.23755293E+01
 -2.47510585E+01  0.00000000E+00  1.23755293E+01  1.23755293E+01 -2.47510585E+01
  0.00000000E+00  1.23755293E+01  1.23755293E+01 -2.47510585E+01  0.00000000E+00
  1.23755293E+01  1.23755293E+01 -2.47510585E+01  0.00000000E+00  1.23755293E+01
  1.23755293E+01 -2.47510585E+01  0.00000000E+00  1.23755293E+01  1.23755293E+01
 -2.47510585E+01  0.00000000E+00  1.23755293E+01  1.23755293E+01 -2.47510585E+01
  0.00000000E+00  1.23755293E+01  1.23755293E+01 -2.47510585E+01  0.00000000E+00
  1.23755293E+01  1.23755293E+01 -2.47510585E+01  0.00000000E+00  1.23755293E+01
  1.23755293E+01 -2.47510585E+01  0.00000000E+00  1.23755293E+01  1.23755293E+01
 -2.47510585E+01  0.00000000E+00  1.23755293E+01  1.23755293E+01 -2.47510585E+01
  0.00000000E+00  1.23755293E+01  1.23755293E+01 -2.47510585E+01  0.00000000E+00
  1.23755293E+01  1.23755293E+01 -2.47510585E+01  0.00000000E+00  1.23755293E+01
  1.23755293E+01 -2.47510585E+01  0.00000000E+00  1.23755293E+01  1.23755293E+01
 -2.47510585E+01  0.00000000E+00  1.23755293E+01  1.23755293E+01 -2.47510585E+01
  0.00000000E+00  1.23755293E+01  1.23755293E+01 -2.47510585E+01  0.00000000E+00
  1.23755293E+01  1.23755293E+01 -2.47510585E+01  0.00000000E+00  1.23755293E+01
  1.23755293E+01 -2.47510585E+01  0.00000000E+00  1.23755293E+01  1.23755293E+01
 -2.47510585E+01  0.00000000E+00  1.23755293E+01  1.23755293E+01 -2.47510585E+01
  0.00000000E+00  1.23755293E+01  1.23755293E+01 -2.47510585E+01  0.00000000E+00
  1.23755293E+01  1.23755293E+01 -2.47510585E+01  0.00000000E+00  1.23755293E+01
  1.23755293E+01 -2.47510585E+01  0.00000000E+00  1.23755293E+01  1.23755293E+01
 -2.47510585E+01  0.00000000E+00  1.23755293E+01  1.23755293E+01 -2.47510585E+01
  0.00000000E+00  1.23755293E+01  1.23755293E+01 -2.47510585E+01  0.00000000E+00
  1.23755293E+01  1.23755293E+01 -2.47510585E+01  0.00000000E+00  1.23755293E+01
  1.23755293E+01 -2.47510585E+01  0.00000000E+00  1.23755293E+01  1.23755293E+01
 -2.47510585E+01  0.00000000E+00  1.23755293E+01  1.23755293E+01 -2.47510585E+01
  0.00000000E+00  1.23755293E+01  1.23755293E+01 -2.47510585E+01  0.00000000E+00
  1.23755293E+01  1.23755293E+01 -2.47510585E+01  0.00000000E+00  1.23755293E+01
  1.23755293E+01 -2.47510585E+01  0.00000000E+00  1.23755293E+01  1.23755293E+01
 -2.47510585E+01  0.00000000E+00  1.23755293E+01  1.23755293E+01 -2.47510585E+01
  0.00000000E+00  1.23755293E+01  1.23755293E+01 -2.47510585E+01  0.00000000E+00
  1.23755293E+01  1.23755293E+01 -2.47510585E+01  0.00000000E+00  1.23755293E+01
  1.23755293E+01 -2.47510585E+01  0.00000000E+00  1.23755293E+01  1.23755293E+01
 -2.47510585E+01  0.00000000E+00  1.23755293E+01  1.23755293E+01 -2.47510585E+01
  0.00000000E+00  1.23755293E+01  1.23755293E+01 -2.47510585E+01  0.00000000E+00
  1.23755293E+01  1.23755293E+01 -2.47510585E+01  0.00000000E+00  1.23755293E+01
  1.23755293E+01 -2.47510585E+01  0.00000000E+00  1.23755293E+01  1.23755293E+01
 -2.47510585E+01  0.00000000E+00  1.23755293E+01  1.23755293E+01 -2.47510585E+01
  0.00000000E+00  1.23755293E+01  1.23755293E+01 -2.47510585E+01  0.00000000E+00
  1.23755293E+01  1.23755293E+01 -2.47510585E+01  0.00000000E+00  1.23755293E+01
  1.23755293E+01 -2.47510585E+01  0.00000000E+00  1.23755293E+01  1.23755293E+01
 -2.47510585E+01  0.00000000E+00  1.23755293E+01  1.23755293E+01 -2.47510585E+01
  0.00000000E+00  1.23755293E+01  1.23755293E+01 -2.47510585E+01  0.00000000E+00
  1.23755293E+01  1.23755293E+01 -2.47510585E+01  0.00000000E+00  1.23755293E+01
  1.23755293E+01 -2.47510585E+01  0.00000000E+00  1.23755293E+01  1.23755293E+01
 -2.47510585E+01  0.00000000E+00  1.23755293E+01  1.23755293E+01 -2.47510585E+01
  0.00000000E+00  1.23755293E+01  1.23755293E+01 -2.47510585E+01  0.00000000E+00
  1.23755293E+01  1.23755293E+01 -2.47510585E+01  0.00000000E+00  1.23755293E+01
  1.23755293E+01 -2.47510585E+01  0.00000000E+00  1.23755293E+01  1.23755293E+01
 -2.47510585E+01  0.00000000E+00  1.23755293E+01  1.23755293E+01 -2.47510585E+01
  0.00000000E+00  1.23755293E+01  1.23755293E+01 -2.47510585E+01  0.00000000E+00
  1.23755293E+01  1.23755293E+01 -2.47510585E+01  0.00000000E+00  1.23755293E+01
  1.23755293E+01 -2.47510585E+01  0.00000000E+00  1.23755293E+01  1.23755293E+01
 -2.47510585E+01  0.00000000E+00  1.23755293E+01  1.23755293E+01 -2.47510585E+01
  0.00000000E+00  1.23755293E+01  1.23755293E+01 -2.47510585E+01  0.00000000E+00
  1.23755293E+01  1.23755293E+01 -2.47510585E+01  0.00000000E+00  1.23755293E+01
  1.23755293E+01 -2.47510585E+01  0.00000000E+00  1.23755293E+01  1.23755293E+01
 -2.47510585E+01  0.00000000E+00  1.23755293E+01  1.23755293E+01 -2.47510585E+01
  0.00000000E+00  1.23755293E+01  1.23755293E+01 -2.47510585E+01  0.00000000E+00
  1.23755293E+01  1.23755293E+01 -2.47510585E+01  0.00000000E+00  1.23755293E+01
  1.23755293E+01 -2.47510585E+01  0.00000000E+00  1.23755293E+01  1.23755293E+01
 -2.47510585E+01  0.00000000E+00  1.23755293E+01  1.23755293E+01 -2.47510585E+01
  0.00000000E+00  1.23755293E+01  1.23755293E+01 -2.47510585E+01  0.00000000E+00
  1.23755293E+01  1.23755293E+01 -2.47510585E+01  0.00000000E+00  1.23755293E+01
  1.23755293E+01 -2.47510585E+01  0.00000000E+00  1.23755293E+01  1.23755293E+01
 -2.47510585E+01  0.00000000E+00  1.23755293E+01  1.23755293E+01 -2.47510585E+01
  0.00000000E+00  1.23755293E+01  1.23755293E+01 -2.47510585E+01  0.00000000E+00
  1.23755293E+01  1.23755293E+01 -2.47510585E+01  0.00000000E+00  1.23755293E+01
  1.23755293E+01 -2.47510585E+01  0.00000000E+00  1.23755293E+01  1.23755293E+01
 -2.47510585E+01  0.00000000E+00  1.23755293E+01  1.23755293E+01 -2.47510585E+01
  0.00000000E+00  1.23755293E+01  1.23755293E+01 -2.47510585E+01  0.00000000E+00
  1.23755293E+01  1.23755293E+01 -2.47510585E+01  0.00000000E+00  1.23755293E+01
  1.23755293E+01 -2.47510585E+01  0.00000000E+00  1.23755293E+01  1.23755293E+01
 -2.47510585E+01  0.00000000E+00  1.23755293E+01  1.23755293E+01 -2.47510585E+01
  0.00000000E+00  1.23755293E+01  1.23755293E+01 -2.47510585E+01  0.00000000E+00
  1.23755293E+01  1.23755293E+01 -2.47510585E+01  0.00000000E+00  1.23755293E+01
  1.23755293E+01 -2.47510585E+01  0.00000000E+00  1.23755293E+01  1.23755293E+01
 -2.47510585E+01  0.00000000E+00  1.23755293E+01  1.23755293E+01 -2.47510585E+01
  0.00000000E+00  1.23755293E+01  1.23755293E+01 -2.47510585E+01  0.00000000E+00
  1.23755293E+01  1.23755293E+01 -2.47510585E+01  0.00000000E+00  1.23755293E+01
  1.23755293E+01 -2.47510585E+01  0.00000000E+00  1.23755293E+01  1.23755293E+01
 -2.47510585E+01  0.00000000E+00  1.23755293E+01  1.23755293E+01 -2.47510585E+01
  0.00000000E+00  1.23755293E+01  1.23755293E+01 -2.47510585E+01  0.00000000E+00
  1.23755293E+01  1.23755293E+01 -2.47510585E+01  0.00000000E+00  1.23755293E+01
  1.23755293E+01 -2.47510585E+01  0.00000000E+00  1.23755293E+01  1.23755293E+01
 -2.47510585E+01  0.00000000E+00  1.23755293E+01  1.23755293E+01 -2.47510585E+01
  0.00000000E+00  1.23755293E+01  1.23755293E+01 -2.47510585E+01  0.00000000E+00
  1.23755293E+01  1.23755293E+01 -2.47510585E+01  0.00000000E+00  1.23755293E+01
  1.23755293E+01 -2.47510585E+01  0.00000000E+00  1.23755293E+01  1.23755293E+01
 -2.47510585E+01  0.00000000E+00  1.23755293E+01  1.23755293E+01 -2.47510585E+01
  0.00000000E+00  1.23755293E+01  1.23755293E+01 -2.47510585E+01  0.00000000E+00
  1.23755293E+01  1.23755293E+01 -2.47510585E+01  0.00000000E+00  1.23755293E+01
  1.23755293E+01 -2.47510585E+01  0.00000000E+00  1.23755293E+01  1.23755293E+01
 -2.47510585E+01  0.00000000E+00  1.23755293E+01  1.23755293E+01 -2.47510585E+01
  0.00000000E+00  1.23755293E+01  1.23755293E+01 -2.47510585E+01  0.00000000E+00
  1.23755293E+01  1.23755293E+01 -2.47510585E+01  0.00000000E+00  1.23755293E+01
  1.23755293E+01 -2.47510585E+01  0.00000000E+00  1.23755293E+01  1.23755293E+01
 -2.47510585E+01  0.00000000E+00  1.23755293E+01  1.23755293E+01 -2.47510585E+01
  0.00000000E+00  1.23755293E+01  1.23755293E+01 -2.47510585E+01  0.00000000E+00
  1.23755293E+01  1.23755293E+01 -2.47510585E+01  0.00000000E+00  1.23755293E+01
  1.23755293E+01 -2.47510585E+01  0.00000000E+00  1.23755293E+01  1.23755293E+01
 -2.47510585E+01  0.00000000E+00  1.23755293E+01  1.23755293E+01 -2.47510585E+01
  0.00000000E+00  1.23755293E+01  1.23755293E+01 -2.47510585E+01  0.00000000E+00
  1.23755293E+01  1.23755293E+01 -2.47510585E+01  0.00000000E+00  1.23755293E+01
  1.23755293E+01 -2.47510585E+01  0.00000000E+00  1.23755293E+01  1.23755293E+01
 -2.47510585E+01  0.00000000E+00  1.23755293E+01  1.23755293E+01 -2.47510585E+01
  0.00000000E+00  1.23755293E+01  1.23755293E+01 -2.47510585E+01  0.00000000E+00
  1.23755293E+01  1.23755293E+01 -2.47510585E+01  0.00000000E+00  1.23755293E+01
  1.23755293E+01 -2.47510585E+01  0.00000000E+00  1.23755293E+01  1.23755293E+01
 -2.47510585E+01  0.00000000E+00  1.23755293E+01  1.23755293E+01 -2.47510585E+01
  0.00000000E+00  1.23755293E+01  1.23755293E+01 -2.47510585E+01  0.00000000E+00
  1.23755293E+01  1.23755293E+01 -2.47510585E+01  0.00000000E+00  1.23755293E+01
  1.23755293E+01 -2.47510585E+01  0.00000000E+00  1.23755293E+01  1.23755293E+01
 -2.47510585E+01  0.00000000E+00  1.23755293E+01  1.23755293E+01 -2.47510585E+01
  0.00000000E+00  1.23755293E+01  1.23755293E+01 -2.47510585E+01  0.00000000E+00
  1.23755293E+01  1.23755293E+01 -2.47510585E+01  0.00000000E+00  1.23755293E+01
  1.23755293E+01 -2.47510585E+01  0.00000000E+00  1.23755293E+01  1.23755293E+01
 -2.47510585E+01  0.00000000E+00  1.23755293E+01  1.23755293E+01 -2.47510585E+01
  0.00000000E+00  1.23755293E+01  1.23755293E+01 -2.47510585E+01  0.00000000E+00
  1.23755293E+01  1.23755293E+01 -2.47510585E+01  0.00000000E+00  1.23755293E+01
  1.23755293E+01 -2.47510585E+01  0.00000000E+00  1.23755293E+01  1.23755293E+01
 -2.47510585E+01  0.00000000E+00  1.23755293E+01  1.23755293E+01 -2.47510585E+01
  0.00000000E+00  1.23755293E+01  1.23755293E+01 -2.47510585E+01  0.00000000E+00
  1.23755293E+01  1.23755293E+01 -2.47510585E+01  0.00000000E+00  1.23755293E+01
  1.23755293E+01 -2.47510585E+01  0.00000000E+00  1.23755293E+01  1.23755293E+01
 -2.47510585E+01  0.00000000E+00  1.23755293E+01  1.23755293E+01 -2.47510585E+01
  0.00000000E+00  1.23755293E+01  1.23755293E+01 -2.47510585E+01  0.00000000E+00
  1.23755293E+01  1.23755293E+01 -2.47510585E+01  0.00000000E+00  1.23755293E+01
  1.23755293E+01 -2.47510585E+01  0.00000000E+00  1.23755293E+01  1.23755293E+01
 -2.47510585E+01  0.00000000E+00  1.23755293E+01  1.23755293E+01 -2.47510585E+01
  0.00000000E+00  1.23755293E+01  1.23755293E+01 -2.47510585E+01  0.00000000E+00
  1.23755293E+01  1.23755293E+01 -2.47510585E+01  0.00000000E+00  1.23755293E+01
  1.23755293E+01 -2.47510585E+01  0.00000000E+00  1.23755293E+01  1.23755293E+01
 -2.47510585E+01  0.00000000E+00  1.23755293E+01  1.23755293E+01 -2.47510585E+01
  0.00000000E+00  1.23755293E+01  1.23755293E+01 -2.47510585E+01  0.00000000E+00
  1.23755293E+01  1.23755293E+01 -2.47510585E+01  0.00000000E+00  1.23755293E+01
  1.23755293E+01 -2.47510585E+01  0.00000000E+00  1.23755293E+01  1.23755293E+01
 -2.47510585E+01  0.00000000E+00  1.23755293E+01  1.23755293E+01 -2.47510585E+01
  0.00000000E+00  1.23755293E+01  1.23755293E+01 -2.47510585E+01  0.00000000E+00
  1.23755293E+01  1.23755293E+01 -2.47510585E+01  0.00000000E+00  1.23755293E+01
  1.23755293E+01 -2.47510585E+01  0.00000000E+00  1.23755293E+01  1.23755293E+01
 -2.47510585E+01  0.00000000E+00  1.23755293E+01  1.23755293E+01 -2.47510585E+01
  0.00000000E+00  1.23755293E+01  1.23755293E+01 -2.47510585E+01  0.00000000E+00
  1.23755293E+01  1.23755293E+01 -2.47510585E+01  0.00000000E+00  1.23755293E+01
  1.23755293E+01 -2.47510585E+01  0.00000000E+00  1.23755293E+01  1.23755293E+01
 -2.47510585E+01  0.00000000E+00  1.23755293E+01  1.23755293E+01 -2.47510585E+01
  0.00000000E+00  1.23755293E+01  1.23755293E+01 -2.47510585E+01  0.00000000E+00
  1.23755293E+01  1.23755293E+01 -2.47510585E+01  0.00000000E+00  1.23755293E+01
  1.23755293E+01 -2.47510585E+01  0.00000000E+00  1.23755293E+01  1.23755293E+01
 -2.47510585E+01  0.00000000E+00  1.23755293E+01  1.23755293E+01 -2.47510585E+01
  0.00000000E+00  1.23755293E+01  1.23755293E+01 -2.47510585E+01  0.00000000E+00
  1.23755293E+01  1.23755293E+01 -2.47510585E+01  0.00000000E+00  1.23755293E+01
  1.23755293E+01 -2.47510585E+01  0.00000000E+00  1.23755293E+01  1.23755293E+01
 -2.47510585E+01  0.00000000E+00  1.23755293E+01  1.23755293E+01 -2.47510585E+01
  0.00000000E+00  1.23755293E+01  1.23755293E+01 -2.47510585E+01  0.00000000E+00
  1.23755293E+01  1.23755293E+01 -2.47510585E+01  0.00000000E+00  1.23755293E+01
  1.23755293E+01 -2.47510585E+01  0.00000000E+00  1.23755293E+01  1.23755293E+01
 -2.47510585E+01  0.00000000E+00  1.23755293E+01  1.23755293E+01 -2.47510585E+01
  0.00000000E+00  1.23755293E+01  1.23755293E+01 -2.47510585E+01  0.00000000E+00
  1.23755293E+01  1.23755293E+01 -2.47510585E+01  0.00000000E+00  1.23755293E+01
  1.23755293E+01 -2.47510585E+01  0.00000000E+00  1.23755293E+01  1.23755293E+01
 -2.47510585E+01  0.00000000E+00  1.23755293E+01  1.23755293E+01 -2.47510585E+01
  0.00000000E+00  1.23755293E+01  1.23755293E+01 -2.47510585E+01  0.00000000E+00
  1.23755293E+01  1.23755293E+01 -2.47510585E+01  0.00000000E+00  1.23755293E+01
  1.23755293E+01 -2.47510585E+01  0.00000000E+00  1.23755293E+01  1.23755293E+01
 -2.47510585E+01  0.00000000E+00  1.23755293E+01  1.23755293E+01 -2.47510585E+01
  0.00000000E+00  1.23755293E+01  1.23755293E+01 -2.47510585E+01  0.00000000E+00
  1.23755293E+01  1.23755293E+01 -2.47510585E+01  0.00000000E+00  1.23755293E+01
  1.23755293E+01 -2.47510585E+01  0.00000000E+00  1.23755293E+01  1.23755293E+01
 -2.47510585E+01  0.00000000E+00  1.23755293E+01  1.23755293E+01 -2.47510585E+01
  0.00000000E+00  1.23755293E+01  1.23755293E+01 -2.47510585E+01  0.00000000E+00
  1.23755293E+01  1.23755293E+01 -2.47510585E+01  0.00000000E+00  1.23755293E+01
  1.23755293E+01 -2.47510585E+01  0.00000000E+00  1.23755293E+01  1.23755293E+01
 -2.47510585E+01  0.00000000E+00  1.23755293E+01  1.23755293E+01 -2.47510585E+01
  0.00000000E+00  1.23755293E+01  1.23755293E+01 -2.47510585E+01  0.00000000E+00
  1.23755293E+01  1.23755293E+01 -2.47510585E+01  0.00000000E+00  1.23755293E+01
  1.23755293E+01 -2.47510585E+01  0.00000000E+00  1.23755293E+01  1.23755293E+01
 -2.47510585E+01  0.00000000E+00  1.23755293E+01  1.23755293E+01 -2.47510585E+01
  0.00000000E+00  1.23755293E+01  1.23755293E+01 -2.47510585E+01  0.00000000E+00
  1.23755293E+01  1.23755293E+01 -2.47510585E+01  0.00000000E+00  1.23755293E+01
  1.23755293E+01 -2.47510585E+01  0.00000000E+00  1.23755293E+01  1.23755293E+01
 -2.47510585E+01  0.00000000E+00  1.23755293E+01  1.23755293E+01 -2.47510585E+01
  0.00000000E+00  1.23755293E+01  1.23755293E+01 -2.47510585E+01  0.00000000E+00
  1.23755293E+01  1.23755293E+01 -2.47510585E+01  0.00000000E+00  1.23755293E+01
  1.23755293E+01 -2.47510585E+01  0.00000000E+00  1.23755293E+01  1.23755293E+01
 -2.47510585E+01  0.00000000E+00  1.23755293E+01  1.23755293E+01 -2.47510585E+01
  0.00000000E+00  1.23755293E+01  1.23755293E+01 -2.47510585E+01  0.00000000E+00
  1.23755293E+01  1.23755293E+01 -2.47510585E+01  0.00000000E+00  1.23755293E+01
  1.23755293E+01 -2.47510585E+01  0.00000000E+00  1.23755293E+01  1.23755293E+01
 -2.47510585E+01  0.00000000E+00  1.23755293E+01  1.23755293E+01 -2.47510585E+01
  0.00000000E+00  1.23755293E+01  1.23755293E+01 -2.47510585E+01  0.00000000E+00
  1.23755293E+01  1.23755293E+01 -2.47510585E+01  0.00000000E+00  1.23755293E+01
  1.23755293E+01 -2.47510585E+01  0.00000000E+00  1.23755293E+01  1.23755293E+01
 -2.47510585E+01  0.00000000E+00  1.23755293E+01  1.23755293E+01 -2.47510585E+01
  0.00000000E+00  1.23755293E+01  1.23755293E+01 -2.47510585E+01  0.00000000E+00
  1.23755293E+01  1.23755293E+01 -2.47510585E+01  0.00000000E+00  1.23755293E+01
  1.23755293E+01 -2.47510585E+01  0.00000000E+00  1.23755293E+01  1.23755293E+01
 -2.47510585E+01  0.00000000E+00  1.23755293E+01  1.23755293E+01 -2.47510585E+01
  0.00000000E+00  1.23755293E+01  1.23755293E+01 -2.47510585E+01  0.00000000E+00
  1.23755293E+01  1.23755293E+01 -2.47510585E+01  0.00000000E+00  1.23755293E+01
  1.23755293E+01 -2.47510585E+01  0.00000000E+00  1.23755293E+01  1.23755293E+01
 -2.47510585E+01  0.00000000E+00  1.23755293E+01  1.23755293E+01 -2.47510585E+01
  0.00000000E+00  1.23755293E+01  1.23755293E+01 -2.47510585E+01  0.00000000E+00
  1.23755293E+01  1.23755293E+01 -2.47510585E+01  0.00000000E+00  1.23755293E+01
  1.23755293E+01 -2.47510585E+01  0.00000000E+00  1.23755293E+01  1.23755293E+01
 -2.47510585E+01  0.00000000E+00  1.23755293E+01  1.23755293E+01 -2.47510585E+01
  0.00000000E+00  1.23755293E+01  1.23755293E+01 -2.47510585E+01  0.00000000E+00
  1.23755293E+01  1.23755293E+01 -2.47510585E+01  0.00000000E+00  1.23755293E+01
  1.23755293E+01 -2.47510585E+01  0.00000000E+00  1.23755293E+01  1.23755293E+01
 -2.47510585E+01  0.00000000E+00  1.23755293E+01  1.23755293E+01 -2.47510585E+01
  0.00000000E+00  1.23755293E+01  1.23755293E+01 -2.47510585E+01  0.00000000E+00
  1.23755293E+01  1.23755293E+01 -2.47510585E+01  0.00000000E+00  1.23755293E+01
  1.23755293E+01 -2.47510585E+01  0.00000000E+00  1.23755293E+01  1.23755293E+01
 -2.47510585E+01  0.00000000E+00  1.23755293E+01  1.23755293E+01 -2.47510585E+01
  0.00000000E+00  1.23755293E+01  1.23755293E+01 -2.47510585E+01  0.00000000E+00
  1.23755293E+01  1.23755293E+01 -2.47510585E+01  0.00000000E+00  1.23755293E+01
  1.23755293E+01 -2.47510585E+01  0.00000000E+00  1.23755293E+01  1.23755293E+01
 -2.47510585E+01  0.00000000E+00  1.23755293E+01  1.23755293E+01 -2.47510585E+01
  0.00000000E+00  1.23755293E+01  1.23755293E+01 -2.47510585E+01  0.00000000E+00
  1.23755293E+01  1.23755293E+01 -2.47510585E+01  0.00000000E+00  1.23755293E+01
  1.23755293E+01 -2.47510585E+01  0.00000000E+00  1.23755293E+01  1.23755293E+01
 -2.47510585E+01  0.00000000E+00  1.23755293E+01  1.23755293E+01 -2.47510585E+01
  0.00000000E+00  1.23755293E+01  1.23755293E+01 -2.47510585E+01  0.00000000E+00
  1.23755293E+01  1.23755293E+01 -2.47510585E+01  0.00000000E+00  1.23755293E+01
  1.23755293E+01 -2.47510585E+01  0.00000000E+00  1.23755293E+01  1.23755293E+01
 -2.47510585E+01  0.00000000E+00  1.23755293E+01  1.23755293E+01 -2.47510585E+01
  0.00000000E+00  1.23755293E+01  1.23755293E+01 -2.47510585E+01  0.00000000E+00
  1.23755293E+01  1.23755293E+01 -2.47510585E+01  0.00000000E+00  1.23755293E+01
  1.23755293E+01 -2.47510585E+01  0.00000000E+00  1.23755293E+01  1.23755293E+01
 -2.47510585E+01  0.00000000E+00  1.23755293E+01  1.23755293E+01 -2.47510585E+01
  0.00000000E+00  1.23755293E+01  1.23755293E+01 -2.47510585E+01  0.00000000E+00
  1.23755293E+01  1.23755293E+01 -2.47510585E+01  0.00000000E+00  1.23755293E+01
  1.23755293E+01 -2.47510585E+01  0.00000000E+00  1.23755293E+01  1.23755293E+01
 -2.47510585E+01  0.00000000E+00  1.23755293E+01  1.23755293E+01 -2.47510585E+01
  0.00000000E+00  1.23755293E+01  1.23755293E+01 -2.47510585E+01  0.00000000E+00
  1.23755293E+01  1.23755293E+01 -2.47510585E+01  0.00000000E+00  1.23755293E+01
  1.23755293E+01 -2.47510585E+01  0.00000000E+00  1.23755293E+01  1.23755293E+01
 -2.47510585E+01  0.00000000E+00  1.23755293E+01  1.23755293E+01 -2.47510585E+01
  0.00000000E+00  1.23755293E+01  1.23755293E+01 -2.47510585E+01  0.00000000E+00
  1.23755293E+01  1.23755293E+01 -2.47510585E+01  0.00000000E+00  1.23755293E+01
  1.23755293E+01 -2.47510585E+01  0.00000000E+00  1.23755293E+01  1.23755293E+01
 -2.47510585E+01  0.00000000E+00  1.23755293E+01  1.23755293E+01 -2.47510585E+01
  0.00000000E+00  1.23755293E+01  1.23755293E+01 -2.47510585E+01  0.00000000E+00
  1.23755293E+01  1.23755293E+01 -2.47510585E+01  0.00000000E+00  1.23755293E+01
  1.23755293E+01 -2.47510585E+01  0.00000000E+00  1.23755293E+01  1.23755293E+01
 -2.47510585E+01  0.00000000E+00  1.23755293E+01  1.23755293E+01 -2.47510585E+01
  0.00000000E+00  1.23755293E+01  1.23755293E+01 -2.47510585E+01  0.00000000E+00
  1.23755293E+01  1.23755293E+01 -2.47510585E+01  0.00000000E+00  1.23755293E+01
  1.23755293E+01 -2.47510585E+01  0.00000000E+00  1.23755293E+01  1.23755293E+01
 -2.47510585E+01  0.00000000E+00  1.23755293E+01  1.23755293E+01 -2.47510585E+01
  0.00000000E+00  1.23755293E+01  1.23755293E+01 -2.47510585E+01  0.00000000E+00
  1.23755293E+01  1.23755293E+01 -2.47510585E+01  0.00000000E+00  1.23755293E+01
  1.23755293E+01 -2.47510585E+01  0.00000000E+00  1.23755293E+01  1.23755293E+01
 -2.47510585E+01  0.00000000E+00  1.23755293E+01  1.23755293E+01 -2.47510585E+01
  0.00000000E+00  1.23755293E+01  1.23755293E+01 -2.47510585E+01  0.00000000E+00
  1.23755293E+01  1.23755293E+01 -2.47510585E+01  0.00000000E+00  1.23755293E+01
  1.23755293E+01 -2.47510585E+01  0.00000000E+00  1.23755293E+01  1.23755293E+01
 -2.47510585E+01  0.00000000E+00  1.23755293E+01  1.23755293E+01 -2.47510585E+01
  0.00000000E+00  1.23755293E+01  1.23755293E+01 -2.47510585E+01  0.00000000E+00
  1.23755293E+01  1.23755293E+01 -2.47510585E+01  0.00000000E+00  1.23755293E+01
  1.23755293E+01 -2.47510585E+01  0.00000000E+00  1.23755293E+01  1.23755293E+01
 -2.47510585E+01  0.00000000E+00  1.23755293E+01  1.23755293E+01 -2.47510585E+01
  0.00000000E+00  1.23755293E+01  1.23755293E+01 -2.47510585E+01  0.00000000E+00
  1.23755293E+01  1.23755293E+01 -2.47510585E+01  0.00000000E+00  1.23755293E+01
  1.23755293E+01 -2.47510585E+01  0.00000000E+00  1.23755293E+01  1.23755293E+01
 -2.47510585E+01  0.00000000E+00  1.23755293E+01  1.23755293E+01 -2.47510585E+01
  0.00000000E+00  1.23755293E+01  1.23755293E+01 -2.47510585E+01  0.00000000E+00
  1.23755293E+01  1.23755293E+01 -2.47510585E+01  0.00000000E+00  1.23755293E+01
  1.23755293E+01 -2.47510585E+01  0.00000000E+00  1.23755293E+01  1.23755293E+01
 -2.47510585E+01  0.00000000E+00  1.23755293E+01  1.23755293E+01 -2.47510585E+01
  0.00000000E+00  1.23755293E+01  1.23755293E+01 -2.47510585E+01  0.00000000E+00
  1.23755293E+01  1.23755293E+01 -2.47510585E+01  0.00000000E+00  1.23755293E+01
  1.23755293E+01 -2.47510585E+01  0.00000000E+00  1.23755293E+01  1.23755293E+01
 -2.47510585E+01  0.00000000E+00  1.23755293E+01  1.23755293E+01 -2.47510585E+01
  0.00000000E+00  1.23755293E+01  1.23755293E+01 -2.47510585E+01  0.00000000E+00
  1.23755293E+01  1.23755293E+01 -2.47510585E+01  0.00000000E+00  1.23755293E+01
  1.23755293E+01 -2.47510585E+01  0.00000000E+00  1.23755293E+01  1.23755293E+01
 -2.47510585E+01  0.00000000E+00  1.23755293E+01  1.23755293E+01 -2.47510585E+01
  0.00000000E+00  1.23755293E+01  1.23755293E+01 -2.47510585E+01  0.00000000E+00
  1.23755293E+01  1.23755293E+01 -2.47510585E+01  0.00000000E+00  1.23755293E+01
  1.23755293E+01 -2.47510585E+01  0.00000000E+00  1.23755293E+01  1.23755293E+01
 -2.47510585E+01  0.00000000E+00  1.23755293E+01  1.23755293E+01 -2.47510585E+01
  0.00000000E+00  1.23755293E+01  1.23755293E+01 -2.47510585E+01  0.00000000E+00
  1.23755293E+01  1.23755293E+01 -2.47510585E+01  0.00000000E+00  1.23755293E+01
  1.23755293E+01 -2.47510585E+01  0.00000000E+00  1.23755293E+01  1.23755293E+01
 -2.47510585E+01  0.00000000E+00  1.23755293E+01  1.23755293E+01 -2.47510585E+01
  0.00000000E+00  1.23755293E+01  1.23755293E+01 -2.47510585E+01  0.00000000E+00
  1.23755293E+01  1.23755293E+01 -2.47510585E+01  0.00000000E+00  1.23755293E+01
  1.23755293E+01 -2.47510585E+01  0.00000000E+00  1.23755293E+01  1.23755293E+01
 -2.47510585E+01  0.00000000E+00  1.23755293E+01  1.23755293E+01 -2.47510585E+01
  0.00000000E+00  1.23755293E+01  1.23755293E+01 -2.47510585E+01  0.00000000E+00
  1.23755293E+01  1.23755293E+01 -2.47510585E+01  0.00000000E+00  1.23755293E+01
  1.23755293E+01 -2.47510585E+01  0.00000000E+00  1.23755293E+01  1.23755293E+01
 -2.47510585E+01  0.00000000E+00  1.23755293E+01  1.23755293E+01 -2.47510585E+01
  0.00000000E+00  1.23755293E+01  1.23755293E+01 -2.47510585E+01  0.00000000E+00
  1.23755293E+01  1.23755293E+01 -2.47510585E+01  0.00000000E+00  1.23755293E+01
  1.23755293E+01 -2.47510585E+01  0.00000000E+00  1.23755293E+01  1.23755293E+01
 -2.47510585E+01  0.00000000E+00  1.23755293E+01  1.23755293E+01 -2.47510585E+01
  0.00000000E+00  1.23755293E+01  1.23755293E+01 -2.47510585E+01  0.00000000E+00
  1.23755293E+01  1.23755293E+01 -2.47510585E+01  0.00000000E+00  1.23755293E+01
  1.23755293E+01 -2.47510585E+01  0.00000000E+00  1.23755293E+01  1.23755293E+01
 -2.47510585E+01  0.00000000E+00  1.23755293E+01  1.23755293E+01 -2.47510585E+01
  0.00000000E+00  1.23755293E+01  1.23755293E+01 -2.47510585E+01  0.00000000E+00
  1.23755293E+01  1.23755293E+01 -2.47510585E+01  0.00000000E+00  1.23755293E+01
  1.23755293E+01 -2.47510585E+01  0.00000000E+00  1.23755293E+01  1.23755293E+01
 -2.47510585E+01  0.00000000E+00  1.23755293E+01  1.23755293E+01 -2.47510585E+01
  0.00000000E+00  1.23755293E+01  1.23755293E+01 -2.47510585E+01  0.00000000E+00
  1.23755293E+01  1.23755293E+01 -2.47510585E+01  0.00000000E+00  1.23755293E+01
  1.23755293E+01 -2.47510585E+01  0.00000000E+00  1.23755293E+01  1.23755293E+01
 -2.47510585E+01  0.00000000E+00  1.23755293E+01  1.23755293E+01 -2.47510585E+01
  0.00000000E+00  1.23755293E+01  1.23755293E+01 -2.47510585E+01  0.00000000E+00
  1.23755293E+01  1.23755293E+01 -2.47510585E+01  0.00000000E+00  1.23755293E+01
  1.23755293E+01 -2.47510585E+01  0.00000000E+00  1.23755293E+01  1.23755293E+01
 -2.47510585E+01  0.00000000E+00  1.23755293E+01  1.23755293E+01 -2.47510585E+01
  0.00000000E+00  1.23755293E+01  1.23755293E+01 -2.47510585E+01  0.00000000E+00
  1.23755293E+01  1.23755293E+01 -2.47510585E+01  0.00000000E+00  1.23755293E+01
  1.23755293E+01 -2.47510585E+01  0.00000000E+00  1.23755293E+01  1.23755293E+01
 -2.47510585E+01  0.00000000E+00  1.23755293E+01  1.23755293E+01 -2.47510585E+01
  0.00000000E+00  1.23755293E+01  1.23755293E+01 -2.47510585E+01  0.00000000E+00
  1.23755293E+01  1.23755293E+01 -2.47510585E+01  0.00000000E+00  1.23755293E+01
  1.23755293E+01 -2.47510585E+01  0.00000000E+00  1.23755293E+01  1.23755293E+01
 -2.47510585E+01  0.00000000E+00  1.23755293E+01  1.23755293E+01 -2.47510585E+01
  0.00000000E+00  1.23755293E+01  1.23755293E+01 -2.47510585E+01  0.00000000E+00
  1.23755293E+01  1.23755293E+01 -2.47510585E+01  0.00000000E+00  1.23755293E+01
  1.23755293E+01 -2.47510585E+01  0.00000000E+00  1.23755293E+01  1.23755293E+01
 -2.47510585E+01  0.00000000E+00  1.23755293E+01  1.23755293E+01 -2.47510585E+01
  0.00000000E+00  1.23755293E+01  1.23755293E+01 -2.47510585E+01  0.00000000E+00
  1.23755293E+01  1.23755293E+01 -2.47510585E+01  0.00000000E+00  1.23755293E+01
  1.23755293E+01 -2.47510585E+01  0.00000000E+00  1.23755293E+01  1.23755293E+01
 -2.47510585E+01  0.00000000E+00  1.23755293E+01  1.23755293E+01 -2.47510585E+01
  0.00000000E+00  1.23755293E+01  1.23755293E+01 -2.47510585E+01  0.00000000E+00
  1.23755293E+01  1.23755293E+01 -2.47510585E+01  0.00000000E+00  1.23755293E+01
  1.23755293E+01 -2.47510585E+01  0.00000000E+00  1.23755293E+01  1.23755293E+01
 -2.47510585E+01  0.00000000E+00  1.23755293E+01  1.23755293E+01 -2.47510585E+01
  0.00000000E+00  1.23755293E+01  1.23755293E+01 -2.47510585E+01  0.00000000E+00
  1.23755293E+01  1.23755293E+01 -2.47510585E+01  0.00000000E+00  1.23755293E+01
  1.23755293E+01 -2.47510585E+01  0.00000000E+00  1.23755293E+01  1.23755293E+01
 -2.47510585E+01  0.00000000E+00  1.23755293E+01  1.23755293E+01 -2.47510585E+01
  0.00000000E+00  1.23755293E+01  1.23755293E+01 -2.47510585E+01  0.00000000E+00
  1.23755293E+01  1.23755293E+01 -2.47510585E+01  0.00000000E+00  1.23755293E+01
  1.23755293E+01 -2.47510585E+01  0.00000000E+00  1.23755293E+01  1.23755293E+01
 -2.47510585E+01  0.00000000E+00  1.23755293E+01  1.23755293E+01 -2.47510585E+01
  0.00000000E+00  1.23755293E+01  1.23755293E+01 -2.47510585E+01  0.00000000E+00
  1.23755293E+01  1.23755293E+01 -2.47510585E+01  0.00000000E+00  1.23755293E+01
  1.23755293E+01 -2.47510585E+01  0.00000000E+00  1.23755293E+01  1.23755293E+01
 -2.47510585E+01  0.00000000E+00  1.23755293E+01  1.23755293E+01 -2.47510585E+01
  0.00000000E+00  1.23755293E+01  1.23755293E+01 -2.47510585E+01  0.00000000E+00
  1.23755293E+01  1.23755293E+01 -2.47510585E+01  0.00000000E+00  1.23755293E+01
  1.23755293E+01 -2.47510585E+01  0.00000000E+00  1.23755293E+01  1.23755293E+01
 -2.47510585E+01  0.00000000E+00  1.23755293E+01  1.23755293E+01 -2.47510585E+01
  0.00000000E+00  1.23755293E+01  1.23755293E+01 -2.47510585E+01  0.00000000E+00
  1.23755293E+01  1.23755293E+01 -2.47510585E+01  0.00000000E+00  1.23755293E+01
  1.23755293E+01 -2.47510585E+01  0.00000000E+00  1.23755293E+01  1.23755293E+01
 -2.47510585E+01  0.00000000E+00  1.23755293E+01  1.23755293E+01 -2.47510585E+01
  0.00000000E+00  1.23755293E+01  1.23755293E+01 -2.47510585E+01  0.00000000E+00
  1.23755293E+01  1.23755293E+01 -2.47510585E+01  0.00000000E+00  1.23755293E+01
  1.23755293E+01 -2.47510585E+01  0.00000000E+00  1.23755293E+01  1.23755293E+01
 -2.47510585E+01  0.00000000E+00  1.23755293E+01  1.23755293E+01 -2.47510585E+01
  0.00000000E+00  1.23755293E+01  1.23755293E+01 -2.47510585E+01  0.00000000E+00
  1.23755293E+01  1.23755293E+01 -2.47510585E+01  0.00000000E+00  1.23755293E+01
  1.23755293E+01 -2.47510585E+01  0.00000000E+00  1.23755293E+01  1.23755293E+01
 -2.47510585E+01  0.00000000E+00  1.23755293E+01  1.23755293E+01 -2.47510585E+01
  0.00000000E+00  1.23755293E+01  1.23755293E+01 -2.47510585E+01  0.00000000E+00
  1.23755293E+01  1.23755293E+01 -2.47510585E+01  0.00000000E+00  1.23755293E+01
  1.23755293E+01 -2.47510585E+01  0.00000000E+00  1.23755293E+01  1.23755293E+01
 -2.47510585E+01  0.00000000E+00  1.23755293E+01  1.23755293E+01 -2.47510585E+01
  0.00000000E+00  1.23755293E+01  1.23755293E+01 -2.47510585E+01  0.00000000E+00
  1.23755293E+01  1.23755293E+01 -2.47510585E+01  0.00000000E+00  1.23755293E+01
  1.23755293E+01 -2.47510585E+01  0.00000000E+00  1.23755293E+01  1.23755293E+01
 -2.47510585E+01  0.00000000E+00  1.23755293E+01  1.23755293E+01 -2.47510585E+01
  0.00000000E+00  1.23755293E+01  1.23755293E+01 -2.47510585E+01  0.00000000E+00
  1.23755293E+01  1.23755293E+01 -2.47510585E+01  0.00000000E+00  1.23755293E+01
  1.23755293E+01 -2.47510585E+01  0.00000000E+00  1.23755293E+01  1.23755293E+01
 -2.47510585E+01  0.00000000E+00  1.23755293E+01  1.23755293E+01 -2.47510585E+01
  0.00000000E+00  1.23755293E+01  1.23755293E+01 -2.47510585E+01  0.00000000E+00
  1.23755293E+01  1.23755293E+01 -2.47510585E+01  0.00000000E+00  1.23755293E+01
  1.23755293E+01 -2.47510585E+01  0.00000000E+00  1.23755293E+01  1.23755293E+01
 -2.47510585E+01  0.00000000E+00  1.23755293E+01  1.23755293E+01 -2.47510585E+01
  0.00000000E+00  1.23755293E+01  1.23755293E+01 -2.47510585E+01  0.00000000E+00
  1.23755293E+01  1.23755293E+01 -2.47510585E+01  0.00000000E+00  1.23755293E+01
  1.23755293E+01 -2.47510585E+01  0.00000000E+00  1.23755293E+01  1.23755293E+01
 -2.47510585E+01  0.00000000E+00  1.23755293E+01  1.23755293E+01 -2.47510585E+01
  0.00000000E+00  1.23755293E+01  1.23755293E+01 -2.47510585E+01  0.00000000E+00
  1.23755293E+01  1.23755293E+01 -2.47510585E+01  0.00000000E+00  1.23755293E+01
  1.23755293E+01 -2.47510585E+01  0.00000000E+00  1.23755293E+01  1.23755293E+01
 -2.47510585E+01  0.00000000E+00  1.23755293E+01  1.23755293E+01 -2.47510585E+01
  0.00000000E+00  1.23755293E+01  1.23755293E+01 -2.47510585E+01  0.00000000E+00
  1.23755293E+01  1.23755293E+01 -2.47510585E+01  0.00000000E+00  1.23755293E+01
  1.23755293E+01 -2.47510585E+01  0.00000000E+00  1.23755293E+01  1.23755293E+01
 -2.47510585E+01  0.00000000E+00  1.23755293E+01  1.23755293E+01 -2.47510585E+01
  0.00000000E+00  1.23755293E+01  1.23755293E+01 -2.47510585E+01  0.00000000E+00
  1.23755293E+01  1.23755293E+01 -2.47510585E+01  0.00000000E+00  1.23755293E+01
  1.23755293E+01 -2.47510585E+01  0.00000000E+00  1.23755293E+01  1.23755293E+01
 -2.47510585E+01  0.00000000E+00  1.23755293E+01  1.23755293E+01 -2.47510585E+01
  0.00000000E+00  1.23755293E+01  1.23755293E+01 -2.47510585E+01  0.00000000E+00
  1.23755293E+01  1.23755293E+01 -2.47510585E+01  0.00000000E+00  1.23755293E+01
  1.23755293E+01 -2.47510585E+01  0.00000000E+00  1.23755293E+01  1.23755293E+01
 -2.47510585E+01  0.00000000E+00  1.23755293E+01  1.23755293E+01 -2.47510585E+01
  0.00000000E+00  1.23755293E+01  1.23755293E+01 -2.47510585E+01  0.00000000E+00
  1.23755293E+01  1.23755293E+01 -2.47510585E+01  0.00000000E+00  1.23755293E+01
  1.23755293E+01 -2.47510585E+01  0.00000000E+00  1.23755293E+01  1.23755293E+01
 -2.47510585E+01  0.00000000E+00  1.23755293E+01  1.23755293E+01 -2.47510585E+01
  0.00000000E+00  1.23755293E+01  1.23755293E+01 -2.47510585E+01  0.00000000E+00
  1.23755293E+01  1.23755293E+01 -2.47510585E+01  0.00000000E+00  1.23755293E+01
  1.23755293E+01 -2.47510585E+01  0.00000000E+00  1.23755293E+01  1.23755293E+01
 -2.47510585E+01  0.00000000E+00  1.23755293E+01  1.23755293E+01 -2.47510585E+01
  0.00000000E+00  1.23755293E+01  1.23755293E+01 -2.47510585E+01  0.00000000E+00
  1.23755293E+01  1.23755293E+01 -2.47510585E+01  0.00000000E+00  1.23755293E+01
  1.23755293E+01 -2.47510585E+01  0.00000000E+00  1.23755293E+01  1.23755293E+01
 -2.47510585E+01  0.00000000E+00  1.23755293E+01  1.23755293E+01 -2.47510585E+01
  0.00000000E+00  1.23755293E+01  1.23755293E+01 -2.47510585E+01  0.00000000E+00
  1.23755293E+01  1.23755293E+01 -2.47510585E+01  0.00000000E+00  1.23755293E+01
  1.23755293E+01 -2.47510585E+01  0.00000000E+00  1.23755293E+01  1.23755293E+01
 -2.47510585E+01  0.00000000E+00  1.23755293E+01  1.23755293E+01 -2.47510585E+01
  0.00000000E+00  1.23755293E+01  1.23755293E+01 -2.47510585E+01  0.00000000E+00
  1.23755293E+01  1.23755293E+01 -2.47510585E+01  0.00000000E+00  1.23755293E+01
  1.23755293E+01 -2.47510585E+01  0.00000000E+00  1.23755293E+01  1.23755293E+01
 -2.47510585E+01  0.00000000E+00  1.23755293E+01  1.23755293E+01 -2.47510585E+01
  0.00000000E+00  1.23755293E+01  1.23755293E+01 -2.47510585E+01  0.00000000E+00
  1.23755293E+01  1.23755293E+01 -2.47510585E+01  0.00000000E+00  1.23755293E+01
  1.23755293E+01 -2.47510585E+01  0.00000000E+00  1.23755293E+01  1.23755293E+01
 -2.47510585E+01  0.00000000E+00  1.23755293E+01  1.23755293E+01 -2.47510585E+01
  0.00000000E+00  1.23755293E+01  1.23755293E+01 -2.47510585E+01  0.00000000E+00
  1.23755293E+01  1.23755293E+01 -2.47510585E+01  0.00000000E+00  1.23755293E+01
  1.23755293E+01 -2.47510585E+01  0.00000000E+00  1.23755293E+01  1.23755293E+01
 -2.47510585E+01  0.00000000E+00  1.23755293E+01  1.23755293E+01 -2.47510585E+01
  0.00000000E+00  1.23755293E+01  1.23755293E+01 -2.47510585E+01  0.00000000E+00
  1.23755293E+01  1.23755293E+01 -2.47510585E+01  0.00000000E+00  1.23755293E+01
  1.23755293E+01 -2.47510585E+01  0.00000000E+00  1.23755293E+01  1.23755293E+01
 -2.47510585E+01  0.00000000E+00  1.23755293E+01  1.23755293E+01 -2.47510585E+01
  0.00000000E+00  1.23755293E+01  1.23755293E+01 -2.47510585E+01  0.00000000E+00
  1.23755293E+01  1.23755293E+01 -2.47510585E+01  0.00000000E+00  1.23755293E+01
  1.23755293E+01 -2.47510585E+01  0.00000000E+00  1.23755293E+01  1.23755293E+01
 -2.47510585E+01  0.00000000E+00  1.23755293E+01  1.23755293E+01 -2.47510585E+01
  0.00000000E+00  1.23755293E+01  1.23755293E+01 -2.47510585E+01  0.00000000E+00
  1.23755293E+01  1.23755293E+01 -2.47510585E+01  0.00000000E+00  1.23755293E+01
  1.23755293E+01 -2.47510585E+01  0.00000000E+00  1.23755293E+01  1.23755293E+01
 -2.47510585E+01  0.00000000E+00  1.23755293E+01  1.23755293E+01 -2.47510585E+01
  0.00000000E+00  1.23755293E+01  1.23755293E+01 -2.47510585E+01  0.00000000E+00
  1.23755293E+01  1.23755293E+01 -2.47510585E+01  0.00000000E+00  1.23755293E+01
  1.23755293E+01 -2.47510585E+01  0.00000000E+00  1.23755293E+01  1.23755293E+01
 -2.47510585E+01  0.00000000E+00  1.23755293E+01  1.23755293E+01 -2.47510585E+01
  0.00000000E+00  1.23755293E+01  1.23755293E+01 -2.47510585E+01  0.00000000E+00
  1.23755293E+01  1.23755293E+01 -2.47510585E+01  0.00000000E+00  1.23755293E+01
  1.23755293E+01 -2.47510585E+01  0.00000000E+00  1.23755293E+01  1.23755293E+01
 -2.47510585E+01  0.00000000E+00  1.23755293E+01  1.23755293E+01 -2.47510585E+01
  0.00000000E+00  1.23755293E+01  1.23755293E+01 -2.47510585E+01  0.00000000E+00
  1.23755293E+01  1.23755293E+01 -2.47510585E+01  0.00000000E+00  1.23755293E+01
  1.23755293E+01 -2.47510585E+01  0.00000000E+00  1.23755293E+01  1.23755293E+01
 -2.47510585E+01  0.00000000E+00  1.23755293E+01  1.23755293E+01 -2.47510585E+01
  0.00000000E+00  1.23755293E+01  1.23755293E+01 -2.47510585E+01  0.00000000E+00
  1.23755293E+01  1.23755293E+01 -2.47510585E+01  0.00000000E+00  1.23755293E+01
  1.23755293E+01 -2.47510585E+01  0.00000000E+00  1.23755293E+01  1.23755293E+01
 -2.47510585E+01  0.00000000E+00  1.23755293E+01  1.23755293E+01 -2.47510585E+01
  0.00000000E+00  1.23755293E+01  1.23755293E+01 -2.47510585E+01  0.00000000E+00
  1.23755293E+01  1.23755293E+01 -2.47510585E+01  0.00000000E+00  1.23755293E+01
  1.23755293E+01 -2.47510585E+01  0.00000000E+00  1.23755293E+01  1.23755293E+01
 -2.47510585E+01  0.00000000E+00  1.23755293E+01  1.23755293E+01 -2.47510585E+01
  0.00000000E+00  1.23755293E+01  1.23755293E+01 -2.47510585E+01  0.00000000E+00
  1.23755293E+01  1.23755293E+01 -2.47510585E+01  0.00000000E+00  1.23755293E+01
  1.23755293E+01 -2.47510585E+01  0.00000000E+00  1.23755293E+01  1.23755293E+01
 -2.47510585E+01  0.00000000E+00  1.23755293E+01  1.23755293E+01 -2.47510585E+01
  0.00000000E+00  1.23755293E+01  1.23755293E+01 -2.47510585E+01  0.00000000E+00
  1.23755293E+01  1.23755293E+01 -2.47510585E+01  0.00000000E+00  1.23755293E+01
  1.23755293E+01 -2.47510585E+01  0.00000000E+00  1.23755293E+01  1.23755293E+01
 -2.47510585E+01  0.00000000E+00  1.23755293E+01  1.23755293E+01 -2.47510585E+01
  0.00000000E+00  1.23755293E+01  1.23755293E+01 -2.47510585E+01  0.00000000E+00
  1.23755293E+01  1.23755293E+01 -2.47510585E+01  0.00000000E+00  1.23755293E+01
  1.23755293E+01 -2.47510585E+01  0.00000000E+00  1.23755293E+01  1.23755293E+01
 -2.47510585E+01  0.00000000E+00  1.23755293E+01  1.23755293E+01 -2.47510585E+01
  0.00000000E+00  1.23755293E+01  1.23755293E+01 -2.47510585E+01  0.00000000E+00
  1.23755293E+01  1.23755293E+01 -2.47510585E+01  0.00000000E+00  1.23755293E+01
  1.23755293E+01 -2.47510585E+01  0.00000000E+00  1.23755293E+01  1.23755293E+01
 -2.47510585E+01  0.00000000E+00  1.23755293E+01  1.23755293E+01 -2.47510585E+01
  0.00000000E+00  1.23755293E+01  1.23755293E+01 -2.47510585E+01  0.00000000E+00
  1.23755293E+01  1.23755293E+01 -2.47510585E+01  0.00000000E+00  1.23755293E+01
  1.23755293E+01 -2.47510585E+01  0.00000000E+00  1.23755293E+01  1.23755293E+01
 -2.47510585E+01  0.00000000E+00  1.23755293E+01  1.23755293E+01 -2.47510585E+01
  0.00000000E+00  1.23755293E+01  1.23755293E+01 -2.47510585E+01  0.00000000E+00
  1.23755293E+01  1.23755293E+01 -2.47510585E+01  0.00000000E+00  1.23755293E+01
  1.23755293E+01 -2.47510585E+01  0.00000000E+00  1.23755293E+01  1.23755293E+01
 -2.47510585E+01  0.00000000E+00  1.23755293E+01  1.23755293E+01 -2.47510585E+01
  0.00000000E+00  1.23755293E+01  1.23755293E+01 -2.47510585E+01  0.00000000E+00
  1.23755293E+01  1.23755293E+01 -2.47510585E+01  0.00000000E+00  1.23755293E+01
  1.23755293E+01 -2.47510585E+01  0.00000000E+00  1.23755293E+01  1.23755293E+01
 -2.47510585E+01  0.00000000E+00  1.23755293E+01  1.23755293E+01 -2.47510585E+01
  0.00000000E+00  1.23755293E+01  1.23755293E+01 -2.47510585E+01  0.00000000E+00
  1.23755293E+01  1.23755293E+01 -2.47510585E+01  0.00000000E+00  1.23755293E+01
  1.23755293E+01 -2.47510585E+01  0.00000000E+00  1.23755293E+01  1.23755293E+01
 -2.47510585E+01  0.00000000E+00  1.23755293E+01  1.23755293E+01 -2.47510585E+01
  0.00000000E+00  1.23755293E+01  1.23755293E+01 -2.47510585E+01  0.00000000E+00
  1.23755293E+01  1.23755293E+01 -2.47510585E+01  0.00000000E+00  1.23755293E+01
  1.23755293E+01 -2.47510585E+01  0.00000000E+00  1.23755293E+01  1.23755293E+01
 -2.47510585E+01  0.00000000E+00  1.23755293E+01  1.23755293E+01 -2.47510585E+01
  0.00000000E+00  1.23755293E+01  1.23755293E+01 -2.47510585E+01  0.00000000E+00
  1.23755293E+01  1.23755293E+01 -2.47510585E+01  0.00000000E+00  1.23755293E+01
  1.23755293E+01 -2.47510585E+01  0.00000000E+00  1.23755293E+01  1.23755293E+01
 -2.47510585E+01  0.00000000E+00  1.23755293E+01  1.23755293E+01 -2.47510585E+01
  0.00000000E+00  1.23755293E+01  1.23755293E+01 -2.47510585E+01  0.00000000E+00
  1.23755293E+01  1.23755293E+01 -2.47510585E+01  0.00000000E+00  1.23755293E+01
  1.23755293E+01 -2.47510585E+01  0.00000000E+00  1.23755293E+01  1.23755293E+01
 -2.47510585E+01  0.00000000E+00  1.23755293E+01  1.23755293E+01 -2.47510585E+01
  0.00000000E+00  1.23755293E+01  1.23755293E+01 -2.47510585E+01  0.00000000E+00
  1.23755293E+01  1.23755293E+01 -2.47510585E+01  0.00000000E+00  1.23755293E+01
  1.23755293E+01 -2.47510585E+01  0.00000000E+00  1.23755293E+01  1.23755293E+01
 -2.47510585E+01  0.00000000E+00  1.23755293E+01  1.23755293E+01 -2.47510585E+01
  0.00000000E+00  1.23755293E+01  1.23755293E+01 -2.47510585E+01  0.00000000E+00
  1.23755293E+01  1.23755293E+01 -2.47510585E+01  0.00000000E+00  1.23755293E+01
  1.23755293E+01 -2.47510585E+01  0.00000000E+00  1.23755293E+01  1.23755293E+01
 -2.47510585E+01  0.00000000E+00  1.23755293E+01  1.23755293E+01 -2.47510585E+01
  0.00000000E+00  1.23755293E+01  1.23755293E+01 -2.47510585E+01  0.00000000E+00
  1.23755293E+01  1.23755293E+01 -2.47510585E+01  0.00000000E+00  1.23755293E+01
  1.23755293E+01 -2.47510585E+01  0.00000000E+00  1.23755293E+01  1.23755293E+01
 -2.47510585E+01  0.00000000E+00  1.23755293E+01  1.23755293E+01 -2.47510585E+01
  0.00000000E+00  1.23755293E+01  1.23755293E+01 -2.47510585E+01  0.00000000E+00
  1.23755293E+01  1.23755293E+01 -2.47510585E+01  0.00000000E+00  1.23755293E+01
  1.23755293E+01 -2.47510585E+01  0.00000000E+00  1.23755293E+01  1.23755293E+01
 -2.47510585E+01  0.00000000E+00  1.23755293E+01  1.23755293E+01 -2.47510585E+01
  0.00000000E+00  1.23755293E+01  1.23755293E+01 -2.47510585E+01  0.00000000E+00
  1.23755293E+01  1.23755293E+01 -2.47510585E+01  0.00000000E+00  1.23755293E+01
  1.23755293E+01 -2.47510585E+01  0.00000000E+00  1.23755293E+01  1.23755293E+01
 -2.47510585E+01  0.00000000E+00  1.23755293E+01  1.23755293E+01 -2.47510585E+01
  0.00000000E+00  1.23755293E+01  1.23755293E+01 -2.47510585E+01  0.00000000E+00
  1.23755293E+01  1.23755293E+01 -2.47510585E+01  0.00000000E+00  1.23755293E+01
  1.23755293E+01 -2.47510585E+01  0.00000000E+00  1.23755293E+01  1.23755293E+01
 -2.47510585E+01  0.00000000E+00  1.23755293E+01  1.23755293E+01 -2.47510585E+01
  0.00000000E+00  1.23755293E+01  1.23755293E+01 -2.47510585E+01  0.00000000E+00
  1.23755293E+01  1.23755293E+01 -2.47510585E+01  0.00000000E+00  1.23755293E+01
  1.23755293E+01 -2.47510585E+01  0.00000000E+00  1.23755293E+01  1.23755293E+01
 -2.47510585E+01  0.00000000E+00  1.23755293E+01  1.23755293E+01 -2.47510585E+01
  0.00000000E+00  1.23755293E+01  1.23755293E+01 -2.47510585E+01  0.00000000E+00
  1.23755293E+01  1.23755293E+01 -2.47510585E+01  0.00000000E+00  1.23755293E+01
  1.23755293E+01 -2.47510585E+01  0.00000000E+00  1.23755293E+01  1.23755293E+01
 -2.47510585E+01  0.00000000E+00  1.23755293E+01  1.23755293E+01 -2.47510585E+01
  0.00000000E+00  1.23755293E+01  1.23755293E+01 -2.47510585E+01  0.00000000E+00
  1.23755293E+01  1.23755293E+01 -2.47510585E+01  0.00000000E+00  1.23755293E+01
  1.23755293E+01 -2.47510585E+01  0.00000000E+00  1.23755293E+01  1.23755293E+01
 -2.47510585E+01  0.00000000E+00  1.23755293E+01  1.23755293E+01 -2.47510585E+01
  0.00000000E+00  1.23755293E+01  1.23755293E+01 -2.47510585E+01  0.00000000E+00
  1.23755293E+01  1.23755293E+01 -2.47510585E+01  0.00000000E+00  1.23755293E+01
  1.23755293E+01 -2.47510585E+01  0.00000000E+00  1.23755293E+01  1.23755293E+01
 -2.47510585E+01  0.00000000E+00  1.23755293E+01  1.23755293E+01 -2.47510585E+01
  0.00000000E+00  1.23755293E+01  1.23755293E+01 -2.47510585E+01  0.00000000E+00
  1.23755293E+01  1.23755293E+01 -2.47510585E+01  0.00000000E+00  1.23755293E+01
  1.23755293E+01 -2.47510585E+01  0.00000000E+00  1.23755293E+01  1.23755293E+01
 -2.47510585E+01  0.00000000E+00  1.23755293E+01  1.23755293E+01 -2.47510585E+01
  0.00000000E+00  1.23755293E+01  1.23755293E+01 -2.47510585E+01  0.00000000E+00
  1.23755293E+01  1.23755293E+01 -2.47510585E+01  0.00000000E+00  1.23755293E+01
  1.23755293E+01 -2.47510585E+01  0.00000000E+00  1.23755293E+01  1.23755293E+01
 -2.47510585E+01  0.00000000E+00  1.23755293E+01  1.23755293E+01 -2.47510585E+01
  0.00000000E+00  1.23755293E+01  1.23755293E+01 -2.47510585E+01  0.00000000E+00
  1.23755293E+01  1.23755293E+01 -2.47510585E+01  0.00000000E+00  1.23755293E+01
  1.23755293E+01 -2.47510585E+01  0.00000000E+00  1.23755293E+01  1.23755293E+01
 -2.47510585E+01  0.00000000E+00  1.23755293E+01  1.23755293E+01 -2.47510585E+01
  0.00000000E+00  1.23755293E+01  1.23755293E+01 -2.47510585E+01  0.00000000E+00
  1.23755293E+01  1.23755293E+01 -2.47510585E+01  0.00000000E+00  1.23755293E+01
  1.23755293E+01 -2.47510585E+01  0.00000000E+00  1.23755293E+01  1.23755293E+01
 -2.47510585E+01  0.00000000E+00  1.23755293E+01  1.23755293E+01 -2.47510585E+01
  0.00000000E+00  1.23755293E+01  1.23755293E+01 -2.47510585E+01  0.00000000E+00
  1.23755293E+01  1.23755293E+01 -2.47510585E+01  0.00000000E+00  1.23755293E+01
  1.23755293E+01 -2.47510585E+01  0.00000000E+00  1.23755293E+01  1.23755293E+01
 -2.47510585E+01  0.00000000E+00  1.23755293E+01  1.23755293E+01 -2.47510585E+01
  0.00000000E+00  1.23755293E+01  1.23755293E+01 -2.47510585E+01  0.00000000E+00
  1.23755293E+01  1.23755293E+01 -2.47510585E+01  0.00000000E+00  1.23755293E+01
  1.23755293E+01 -2.47510585E+01  0.00000000E+00  1.23755293E+01  1.23755293E+01
 -2.47510585E+01  0.00000000E+00  1.23755293E+01  1.23755293E+01 -2.47510585E+01
  0.00000000E+00  1.23755293E+01  1.23755293E+01 -2.47510585E+01  0.00000000E+00
  1.23755293E+01  1.23755293E+01 -2.47510585E+01  0.00000000E+00  1.23755293E+01
  1.23755293E+01 -2.47510585E+01  0.00000000E+00  1.23755293E+01  1.23755293E+01
 -2.47510585E+01  0.00000000E+00  1.23755293E+01  1.23755293E+01 -2.47510585E+01
  0.00000000E+00  1.23755293E+01  1.23755293E+01 -2.47510585E+01  0.00000000E+00
  1.23755293E+01  1.23755293E+01 -2.47510585E+01  0.00000000E+00  1.23755293E+01
  1.23755293E+01 -2.47510585E+01  0.00000000E+00  1.23755293E+01  1.23755293E+01
 -2.47510585E+01  0.00000000E+00  1.23755293E+01  1.23755293E+01 -2.47510585E+01
  0.00000000E+00  1.23755293E+01  1.23755293E+01 -2.47510585E+01  0.00000000E+00
  1.23755293E+01  1.23755293E+01 -2.47510585E+01  0.00000000E+00  1.23755293E+01
  1.23755293E+01 -2.47510585E+01  0.00000000E+00  1.23755293E+01  1.23755293E+01
 -2.47510585E+01  0.00000000E+00  1.23755293E+01  1.23755293E+01 -2.47510585E+01
  0.00000000E+00  1.23755293E+01  1.23755293E+01 -2.47510585E+01  0.00000000E+00
  1.23755293E+01  1.23755293E+01 -2.47510585E+01  0.00000000E+00  1.23755293E+01
  1.23755293E+01 -2.47510585E+01  0.00000000E+00  1.23755293E+01  1.23755293E+01
 -2.47510585E+01  0.00000000E+00  1.23755293E+01  1.23755293E+01 -2.47510585E+01
  0.00000000E+00  1.23755293E+01  1.23755293E+01 -2.47510585E+01  0.00000000E+00
  1.23755293E+01  1.23755293E+01 -2.47510585E+01  0.00000000E+00  1.23755293E+01
  1.23755293E+01 -2.47510585E+01  0.00000000E+00  1.23755293E+01  1.23755293E+01
 -2.47510585E+01  0.00000000E+00  1.23755293E+01  1.23755293E+01 -2.47510585E+01
  0.00000000E+00  1.23755293E+01  1.23755293E+01 -2.47510585E+01  0.00000000E+00
  1.23755293E+01  1.23755293E+01 -2.47510585E+01  0.00000000E+00  1.23755293E+01
  1.23755293E+01 -2.47510585E+01  0.00000000E+00  1.23755293E+01  1.23755293E+01
 -2.47510585E+01  0.00000000E+00  1.23755293E+01  1.23755293E+01 -2.47510585E+01
  0.00000000E+00  1.23755293E+01  1.23755293E+01 -2.47510585E+01  0.00000000E+00
  1.23755293E+01  1.23755293E+01 -2.47510585E+01  0.00000000E+00  1.23755293E+01
  1.23755293E+01 -2.47510585E+01  0.00000000E+00  1.23755293E+01  1.23755293E+01
 -2.47510585E+01  0.00000000E+00  1.23755293E+01  1.23755293E+01 -2.47510585E+01
  0.00000000E+00  1.23755293E+01  1.23755293E+01 -2.47510585E+01  0.00000000E+00
  1.23755293E+01  1.23755293E+01 -2.47510585E+01  0.00000000E+00  1.23755293E+01
  1.23755293E+01 -2.47510585E+01  0.00000000E+00  1.23755293E+01  1.23755293E+01
 -2.47510585E+01  0.00000000E+00  1.23755293E+01  1.23755293E+01 -2.47510585E+01
  0.00000000E+00  1.23755293E+01  1.23755293E+01 -2.47510585E+01  0.00000000E+00
  1.23755293E+01  1.23755293E+01 -2.47510585E+01  0.00000000E+00  1.23755293E+01
  1.23755293E+01 -2.47510585E+01  0.00000000E+00  1.23755293E+01  1.23755293E+01
 -2.47510585E+01  0.00000000E+00  1.23755293E+01  1.23755293E+01 -2.47510585E+01
  0.00000000E+00  1.23755293E+01  1.23755293E+01 -2.47510585E+01  0.00000000E+00
  1.23755293E+01  1.23755293E+01 -2.47510585E+01  0.00000000E+00  1.23755293E+01
  1.23755293E+01 -2.47510585E+01  0.00000000E+00  1.23755293E+01  1.23755293E+01
 -2.47510585E+01  0.00000000E+00  1.23755293E+01  1.23755293E+01 -2.47510585E+01
  0.00000000E+00  1.23755293E+01  1.23755293E+01 -2.47510585E+01  0.00000000E+00
  1.23755293E+01  1.23755293E+01 -2.47510585E+01  0.00000000E+00  1.23755293E+01
  1.23755293E+01 -2.47510585E+01  0.00000000E+00  1.23755293E+01  1.23755293E+01
 -2.47510585E+01  0.00000000E+00  1.23755293E+01  1.23755293E+01 -2.47510585E+01
  0.00000000E+00  1.23755293E+01  1.23755293E+01 -2.47510585E+01  0.00000000E+00
  1.23755293E+01  1.23755293E+01 -2.47510585E+01  0.00000000E+00  1.23755293E+01
  1.23755293E+01 -2.47510585E+01  0.00000000E+00  1.23755293E+01  1.23755293E+01
 -2.47510585E+01  0.00000000E+00  1.23755293E+01  1.23755293E+01 -2.47510585E+01
  0.00000000E+00  1.23755293E+01  1.23755293E+01 -2.47510585E+01  0.00000000E+00
  1.23755293E+01  1.23755293E+01 -2.47510585E+01  0.00000000E+00  1.23755293E+01
  1.23755293E+01 -2.47510585E+01  0.00000000E+00  1.23755293E+01  1.23755293E+01
 -2.47510585E+01  0.00000000E+00  1.23755293E+01  1.23755293E+01 -2.47510585E+01
  0.00000000E+00  1.23755293E+01  1.23755293E+01 -2.47510585E+01  0.00000000E+00
  1.23755293E+01  1.23755293E+01 -2.47510585E+01  0.00000000E+00  1.23755293E+01
  1.23755293E+01 -2.47510585E+01  0.00000000E+00  1.23755293E+01  1.23755293E+01
 -2.47510585E+01  0.00000000E+00  1.23755293E+01  1.23755293E+01 -2.47510585E+01
  0.00000000E+00  1.23755293E+01  1.23755293E+01 -2.47510585E+01  0.00000000E+00
  1.23755293E+01  1.23755293E+01 -2.47510585E+01  0.00000000E+00  1.23755293E+01
  1.23755293E+01 -2.47510585E+01  0.00000000E+00  1.23755293E+01  1.23755293E+01
 -2.47510585E+01  0.00000000E+00  1.23755293E+01  1.23755293E+01 -2.47510585E+01
  0.00000000E+00  1.23755293E+01  1.23755293E+01 -2.47510585E+01  0.00000000E+00
  1.23755293E+01  1.23755293E+01 -2.47510585E+01  0.00000000E+00  1.23755293E+01
  1.23755293E+01 -2.47510585E+01  0.00000000E+00  1.23755293E+01  1.23755293E+01
 -2.47510585E+01  0.00000000E+00  1.23755293E+01  1.23755293E+01 -2.47510585E+01
  0.00000000E+00  1.23755293E+01  1.23755293E+01 -2.47510585E+01  0.00000000E+00
  1.23755293E+01  1.23755293E+01 -2.47510585E+01  0.00000000E+00  1.23755293E+01
  1.23755293E+01 -2.47510585E+01  0.00000000E+00  1.23755293E+01  1.23755293E+01
 -2.47510585E+01  0.00000000E+00  1.23755293E+01  1.23755293E+01 -2.47510585E+01
  0.00000000E+00  1.23755293E+01  1.23755293E+01 -2.47510585E+01  0.00000000E+00
  1.23755293E+01  1.23755293E+01 -2.47510585E+01  0.00000000E+00  1.23755293E+01
  1.23755293E+01 -2.47510585E+01  0.00000000E+00  1.23755293E+01  1.23755293E+01
 -2.47510585E+01  0.00000000E+00  1.23755293E+01  1.23755293E+01 -2.47510585E+01
  0.00000000E+00  1.23755293E+01  1.23755293E+01 -2.47510585E+01  0.00000000E+00
  1.23755293E+01  1.23755293E+01 -2.47510585E+01  0.00000000E+00  1.23755293E+01
  1.23755293E+01 -2.47510585E+01  0.00000000E+00  1.23755293E+01  1.23755293E+01
 -2.47510585E+01  0.00000000E+00  1.23755293E+01  1.23755293E+01 -2.47510585E+01
  0.00000000E+00  1.23755293E+01  1.23755293E+01 -2.47510585E+01  0.00000000E+00
  1.23755293E+01  1.23755293E+01 -2.47510585E+01  0.00000000E+00  1.23755293E+01
  1.23755293E+01 -2.47510585E+01  0.00000000E+00  1.23755293E+01  1.23755293E+01
 -2.47510585E+01  0.00000000E+00  1.23755293E+01  1.23755293E+01 -2.47510585E+01
  0.00000000E+00  1.23755293E+01  1.23755293E+01 -2.47510585E+01  0.00000000E+00
  1.23755293E+01  1.23755293E+01 -2.47510585E+01  0.00000000E+00  1.23755293E+01
  1.23755293E+01 -2.47510585E+01  0.00000000E+00  1.23755293E+01  1.23755293E+01
 -2.47510585E+01  0.00000000E+00  1.23755293E+01  1.23755293E+01 -2.47510585E+01
  0.00000000E+00  1.23755293E+01  1.23755293E+01 -2.47510585E+01  0.00000000E+00
  1.23755293E+01  1.23755293E+01 -2.47510585E+01  0.00000000E+00  1.23755293E+01
  1.23755293E+01 -2.47510585E+01  0.00000000E+00  1.23755293E+01  1.23755293E+01
 -2.47510585E+01  0.00000000E+00  1.23755293E+01  1.23755293E+01 -2.47510585E+01
  0.00000000E+00  1.23755293E+01  1.23755293E+01 -2.47510585E+01  0.00000000E+00
  1.23755293E+01  1.23755293E+01 -2.47510585E+01  0.00000000E+00  1.23755293E+01
  1.23755293E+01 -2.47510585E+01  0.00000000E+00  1.23755293E+01  1.23755293E+01
 -2.47510585E+01  0.00000000E+00  1.23755293E+01  1.23755293E+01 -2.47510585E+01
  0.00000000E+00  1.23755293E+01  1.23755293E+01 -2.47510585E+01  0.00000000E+00
  1.23755293E+01  1.23755293E+01 -2.47510585E+01  0.00000000E+00  1.23755293E+01
  1.23755293E+01 -2.47510585E+01  0.00000000E+00  1.23755293E+01  1.23755293E+01
 -2.47510585E+01  0.00000000E+00  1.23755293E+01  1.23755293E+01 -2.47510585E+01
  0.00000000E+00  1.23755293E+01  1.23755293E+01 -2.47510585E+01  0.00000000E+00
  1.23755293E+01  1.23755293E+01 -2.47510585E+01  0.00000000E+00  1.23755293E+01
  1.23755293E+01 -2.47510585E+01  0.00000000E+00  1.23755293E+01  1.23755293E+01
 -2.47510585E+01  0.00000000E+00  1.23755293E+01  1.23755293E+01 -2.47510585E+01
  0.00000000E+00  1.23755293E+01  1.23755293E+01 -2.47510585E+01  0.00000000E+00
  1.23755293E+01  1.23755293E+01 -2.47510585E+01  0.00000000E+00  1.23755293E+01
  1.23755293E+01 -2.47510585E+01  0.00000000E+00  1.23755293E+01  1.23755293E+01
 -2.47510585E+01  0.00000000E+00  1.23755293E+01  1.23755293E+01 -2.47510585E+01
  0.00000000E+00  1.23755293E+01  1.23755293E+01 -2.47510585E+01  0.00000000E+00
  1.23755293E+01  1.23755293E+01 -2.47510585E+01  0.00000000E+00  1.23755293E+01
  1.23755293E+01 -2.47510585E+01  0.00000000E+00  1.23755293E+01  1.23755293E+01
 -2.47510585E+01  0.00000000E+00  1.23755293E+01  1.23755293E+01 -2.47510585E+01
  0.00000000E+00  1.23755293E+01  1.23755293E+01 -2.47510585E+01  0.00000000E+00
  1.23755293E+01  1.23755293E+01 -2.47510585E+01  0.00000000E+00  1.23755293E+01
  1.23755293E+01 -2.47510585E+01  0.00000000E+00  1.23755293E+01  1.23755293E+01
 -2.47510585E+01  0.00000000E+00  1.23755293E+01  1.23755293E+01 -2.47510585E+01
  0.00000000E+00  1.23755293E+01  1.23755293E+01 -2.47510585E+01  0.00000000E+00
  1.23755293E+01  1.23755293E+01 -2.47510585E+01  0.00000000E+00  1.23755293E+01
  1.23755293E+01 -2.47510585E+01  0.00000000E+00  1.23755293E+01  1.23755293E+01
 -2.47510585E+01  0.00000000E+00  1.23755293E+01  1.23755293E+01 -2.47510585E+01
  0.00000000E+00  1.23755293E+01  1.23755293E+01 -2.47510585E+01  0.00000000E+00
  1.23755293E+01  1.23755293E+01 -2.47510585E+01  0.00000000E+00  1.23755293E+01
  1.23755293E+01 -2.47510585E+01  0.00000000E+00  1.23755293E+01  1.23755293E+01
 -2.47510585E+01  0.00000000E+00  1.23755293E+01  1.23755293E+01 -2.47510585E+01
  0.00000000E+00  1.23755293E+01  1.23755293E+01 -2.47510585E+01  0.00000000E+00
  1.23755293E+01  1.23755293E+01 -2.47510585E+01  0.00000000E+00  1.23755293E+01
  1.23755293E+01 -2.47510585E+01  0.00000000E+00  1.23755293E+01  1.23755293E+01
 -2.47510585E+01  0.00000000E+00  1.23755293E+01  1.23755293E+01 -2.47510585E+01
  0.00000000E+00  1.23755293E+01  1.23755293E+01 -2.47510585E+01  0.00000000E+00
  1.23755293E+01  1.23755293E+01 -2.47510585E+01  0.00000000E+00  1.23755293E+01
  1.23755293E+01 -2.47510585E+01  0.00000000E+00  1.23755293E+01  1.23755293E+01
 -2.47510585E+01  0.00000000E+00  1.23755293E+01  1.23755293E+01 -2.47510585E+01
  0.00000000E+00  1.23755293E+01  1.23755293E+01 -2.47510585E+01  0.00000000E+00
  1.23755293E+01  1.23755293E+01 -2.47510585E+01  0.00000000E+00  1.23755293E+01
  1.23755293E+01 -2.47510585E+01  0.00000000E+00  1.23755293E+01  1.23755293E+01
 -2.47510585E+01  0.00000000E+00  1.23755293E+01  1.23755293E+01 -2.47510585E+01
  0.00000000E+00  1.23755293E+01  1.23755293E+01 -2.47510585E+01  0.00000000E+00
  1.23755293E+01  1.23755293E+01 -2.47510585E+01  0.00000000E+00  1.23755293E+01
  1.23755293E+01 -2.47510585E+01  0.00000000E+00  1.23755293E+01  1.23755293E+01
 -2.47510585E+01  0.00000000E+00  1.23755293E+01  1.23755293E+01 -2.47510585E+01
  0.00000000E+00  1.23755293E+01  1.23755293E+01 -2.47510585E+01  0.00000000E+00
  1.23755293E+01  1.23755293E+01 -2.47510585E+01  0.00000000E+00  1.23755293E+01
  1.23755293E+01 -2.47510585E+01  0.00000000E+00  1.23755293E+01  1.23755293E+01
 -2.47510585E+01  0.00000000E+00  1.23755293E+01  1.23755293E+01 -2.47510585E+01
  0.00000000E+00  1.23755293E+01  1.23755293E+01 -2.47510585E+01  0.00000000E+00
  1.23755293E+01  1.23755293E+01 -2.47510585E+01  0.00000000E+00  1.23755293E+01
  1.23755293E+01 -2.47510585E+01  0.00000000E+00  1.23755293E+01  1.23755293E+01
 -2.47510585E+01  0.00000000E+00  1.23755293E+01  1.23755293E+01 -2.47510585E+01
  0.00000000E+00  1.23755293E+01  1.23755293E+01 -2.47510585E+01  0.00000000E+00
  1.23755293E+01  1.23755293E+01 -2.47510585E+01  0.00000000E+00  1.23755293E+01
  1.23755293E+01 -2.47510585E+01  0.00000000E+00  1.23755293E+01  1.23755293E+01
 -2.47510585E+01  0.00000000E+00  1.23755293E+01  1.23755293E+01 -2.47510585E+01
  0.00000000E+00  1.23755293E+01  1.23755293E+01 -2.47510585E+01  0.00000000E+00
  1.23755293E+01  1.23755293E+01 -2.47510585E+01  0.00000000E+00  1.23755293E+01
  1.23755293E+01 -2.47510585E+01  0.00000000E+00  1.23755293E+01  1.23755293E+01
 -2.47510585E+01  0.00000000E+00  1.23755293E+01  1.23755293E+01 -2.47510585E+01
  0.00000000E+00  1.23755293E+01  1.23755293E+01 -2.47510585E+01  0.00000000E+00
  1.23755293E+01  1.23755293E+01 -2.47510585E+01  0.00000000E+00  1.23755293E+01
  1.23755293E+01 -2.47510585E+01  0.00000000E+00  1.23755293E+01  1.23755293E+01
 -2.47510585E+01  0.00000000E+00  1.23755293E+01  1.23755293E+01 -2.47510585E+01
  0.00000000E+00  1.23755293E+01  1.23755293E+01 -2.47510585E+01  0.00000000E+00
  1.23755293E+01  1.23755293E+01 -2.47510585E+01  0.00000000E+00  1.23755293E+01
  1.23755293E+01 -2.47510585E+01  0.00000000E+00  1.23755293E+01  1.23755293E+01
 -2.47510585E+01  0.00000000E+00  1.23755293E+01  1.23755293E+01 -2.47510585E+01
  0.00000000E+00  1.23755293E+01  1.23755293E+01 -2.47510585E+01  0.00000000E+00
  1.23755293E+01  1.23755293E+01 -2.47510585E+01  0.00000000E+00  1.23755293E+01
  1.23755293E+01 -2.47510585E+01  0.00000000E+00  1.23755293E+01  1.23755293E+01
 -2.47510585E+01  0.00000000E+00  1.23755293E+01  1.23755293E+01 -2.47510585E+01
  0.00000000E+00  1.23755293E+01  1.23755293E+01 -2.47510585E+01  0.00000000E+00
  1.23755293E+01  1.23755293E+01 -2.47510585E+01  0.00000000E+00  1.23755293E+01
  1.23755293E+01 -2.47510585E+01  0.00000000E+00  1.23755293E+01  1.23755293E+01
 -2.47510585E+01  0.00000000E+00  1.23755293E+01  1.23755293E+01 -2.47510585E+01
  0.00000000E+00  1.23755293E+01  1.23755293E+01 -2.47510585E+01  0.00000000E+00
  1.23755293E+01  1.23755293E+01 -2.47510585E+01  0.00000000E+00  1.23755293E+01
  1.23755293E+01 -2.47510585E+01  0.00000000E+00  1.23755293E+01  1.23755293E+01
 -2.47510585E+01  0.00000000E+00  1.23755293E+01  1.23755293E+01 -2.47510585E+01
  0.00000000E+00  1.23755293E+01  1.23755293E+01 -2.47510585E+01  0.00000000E+00
  1.23755293E+01  1.23755293E+01 -2.47510585E+01  0.00000000E+00  1.23755293E+01
  1.23755293E+01 -2.47510585E+01  0.00000000E+00  1.23755293E+01  1.23755293E+01
 -2.47510585E+01  0.00000000E+00  1.23755293E+01  1.23755293E+01 -2.47510585E+01
  0.00000000E+00  1.23755293E+01  1.23755293E+01 -2.47510585E+01  0.00000000E+00
  1.23755293E+01  1.23755293E+01 -2.47510585E+01  0.00000000E+00  1.23755293E+01
  1.23755293E+01 -2.47510585E+01  0.00000000E+00  1.23755293E+01  1.23755293E+01
 -2.47510585E+01  0.00000000E+00  1.23755293E+01  1.23755293E+01 -2.47510585E+01
  0.00000000E+00  1.23755293E+01  1.23755293E+01 -2.47510585E+01  0.00000000E+00
  1.23755293E+01  1.23755293E+01 -2.47510585E+01  0.00000000E+00  1.23755293E+01
  1.23755293E+01 -2.47510585E+01  0.00000000E+00  1.23755293E+01  1.23755293E+01
 -2.47510585E+01  0.00000000E+00  1.23755293E+01  1.23755293E+01 -2.47510585E+01
  0.00000000E+00  1.23755293E+01  1.23755293E+01 -2.47510585E+01  0.00000000E+00
  1.23755293E+01  1.23755293E+01 -2.47510585E+01  0.00000000E+00  1.23755293E+01
  1.23755293E+01 -2.47510585E+01  0.00000000E+00  1.23755293E+01  1.23755293E+01
 -2.47510585E+01  0.00000000E+00  1.23755293E+01  1.23755293E+01 -2.47510585E+01
  0.00000000E+00  1.23755293E+01  1.23755293E+01 -2.47510585E+01  0.00000000E+00
  1.23755293E+01  1.23755293E+01 -2.47510585E+01  0.00000000E+00  1.23755293E+01
  1.23755293E+01 -2.47510585E+01  0.00000000E+00  1.23755293E+01  1.23755293E+01
 -2.47510585E+01  0.00000000E+00  1.23755293E+01  1.23755293E+01 -2.47510585E+01
  0.00000000E+00  1.23755293E+01  1.23755293E+01 -2.47510585E+01  0.00000000E+00
  1.23755293E+01  1.23755293E+01 -2.47510585E+01  0.00000000E+00  1.23755293E+01
  1.23755293E+01 -2.47510585E+01  0.00000000E+00  1.23755293E+01  1.23755293E+01
 -2.47510585E+01  0.00000000E+00  1.23755293E+01  1.23755293E+01 -2.47510585E+01
  0.00000000E+00  1.23755293E+01  1.23755293E+01 -2.47510585E+01  0.00000000E+00
  1.23755293E+01  1.23755293E+01 -2.47510585E+01  0.00000000E+00  1.23755293E+01
  1.23755293E+01 -2.47510585E+01  0.00000000E+00  1.23755293E+01  1.23755293E+01
 -2.47510585E+01  0.00000000E+00  1.23755293E+01  1.23755293E+01 -2.47510585E+01
  0.00000000E+00  1.23755293E+01  1.23755293E+01 -2.47510585E+01  0.00000000E+00
  1.23755293E+01  1.23755293E+01 -2.47510585E+01  0.00000000E+00  1.23755293E+01
  1.23755293E+01 -2.47510585E+01  0.00000000E+00  1.23755293E+01  1.23755293E+01
 -2.47510585E+01  0.00000000E+00  1.23755293E+01  1.23755293E+01 -2.47510585E+01
  0.00000000E+00  1.23755293E+01  1.23755293E+01 -2.47510585E+01  0.00000000E+00
  1.23755293E+01  1.23755293E+01 -2.47510585E+01  0.00000000E+00  1.23755293E+01
  1.23755293E+01 -2.47510585E+01  0.00000000E+00  1.23755293E+01  1.23755293E+01
 -2.47510585E+01  0.00000000E+00  1.23755293E+01  1.23755293E+01 -2.47510585E+01
  0.00000000E+00  1.23755293E+01  1.23755293E+01 -2.47510585E+01  0.00000000E+00
  1.23755293E+01  1.23755293E+01 -2.47510585E+01  0.00000000E+00  1.23755293E+01
  1.23755293E+01 -2.47510585E+01  0.00000000E+00  1.23755293E+01  1.23755293E+01
 -2.47510585E+01  0.00000000E+00  1.23755293E+01  1.23755293E+01 -2.47510585E+01
  0.00000000E+00  1.23755293E+01  1.23755293E+01 -2.47510585E+01  0.00000000E+00
  1.23755293E+01  1.23755293E+01 -2.47510585E+01  0.00000000E+00  1.23755293E+01
  1.23755293E+01 -2.47510585E+01  0.00000000E+00  1.23755293E+01  1.23755293E+01
 -2.47510585E+01  0.00000000E+00  1.23755293E+01  1.23755293E+01 -2.47510585E+01
  0.00000000E+00  1.23755293E+01  1.23755293E+01 -2.47510585E+01  0.00000000E+00
  1.23755293E+01  1.23755293E+01 -2.47510585E+01  0.00000000E+00  1.23755293E+01
  1.23755293E+01 -2.47510585E+01  0.00000000E+00  1.23755293E+01  1.23755293E+01
 -2.47510585E+01  0.00000000E+00  1.23755293E+01  1.23755293E+01 -2.47510585E+01
  0.00000000E+00  1.23755293E+01  1.23755293E+01 -2.47510585E+01  0.00000000E+00
  1.23755293E+01  1.23755293E+01 -2.47510585E+01  0.00000000E+00  1.23755293E+01
  1.23755293E+01 -2.47510585E+01  0.00000000E+00  1.23755293E+01  1.23755293E+01
 -2.47510585E+01  0.00000000E+00  1.23755293E+01  1.23755293E+01 -2.47510585E+01
  0.00000000E+00  1.23755293E+01  1.23755293E+01 -2.47510585E+01  0.00000000E+00
  1.23755293E+01  1.23755293E+01 -2.47510585E+01  0.00000000E+00  1.23755293E+01
  1.23755293E+01 -2.47510585E+01  0.00000000E+00  1.23755293E+01  1.23755293E+01
 -2.47510585E+01  0.00000000E+00  1.23755293E+01  1.23755293E+01 -2.47510585E+01
  0.00000000E+00  1.23755293E+01  1.23755293E+01 -2.47510585E+01  0.00000000E+00
  1.23755293E+01  1.23755293E+01 -2.47510585E+01  0.00000000E+00  1.23755293E+01
  1.23755293E+01 -2.47510585E+01  0.00000000E+00  1.23755293E+01  1.23755293E+01
 -2.47510585E+01  0.00000000E+00  1.23755293E+01  1.23755293E+01 -2.47510585E+01
  0.00000000E+00  1.23755293E+01  1.23755293E+01 -2.47510585E+01  0.00000000E+00
  1.23755293E+01  1.23755293E+01 -2.47510585E+01  0.00000000E+00  1.23755293E+01
  1.23755293E+01 -2.47510585E+01  0.00000000E+00  1.23755293E+01  1.23755293E+01
 -2.47510585E+01  0.00000000E+00  1.23755293E+01  1.23755293E+01 -2.47510585E+01
  0.00000000E+00  1.23755293E+01  1.23755293E+01 -2.47510585E+01  0.00000000E+00
  1.23755293E+01  1.23755293E+01 -2.47510585E+01  0.00000000E+00  1.23755293E+01
  1.23755293E+01 -2.47510585E+01  0.00000000E+00  1.23755293E+01  1.23755293E+01
 -2.47510585E+01  0.00000000E+00  1.23755293E+01  1.23755293E+01 -2.47510585E+01
  0.00000000E+00  1.23755293E+01  1.23755293E+01 -2.47510585E+01  0.00000000E+00
  1.23755293E+01  1.23755293E+01 -2.47510585E+01  0.00000000E+00  1.23755293E+01
  1.23755293E+01 -2.47510585E+01  0.00000000E+00  1.23755293E+01  1.23755293E+01
 -2.47510585E+01  0.00000000E+00  1.23755293E+01  1.23755293E+01 -2.47510585E+01
  0.00000000E+00  1.23755293E+01  1.23755293E+01 -2.47510585E+01  0.00000000E+00
  1.23755293E+01  1.23755293E+01 -2.47510585E+01  0.00000000E+00  1.23755293E+01
  1.23755293E+01 -2.47510585E+01  0.00000000E+00  1.23755293E+01  1.23755293E+01
 -2.47510585E+01  0.00000000E+00  1.23755293E+01  1.23755293E+01 -2.47510585E+01
  0.00000000E+00  1.23755293E+01  1.23755293E+01 -2.47510585E+01  0.00000000E+00
  1.23755293E+01  1.23755293E+01 -2.47510585E+01  0.00000000E+00  1.23755293E+01
  1.23755293E+01 -2.47510585E+01  0.00000000E+00  1.23755293E+01  1.23755293E+01
 -2.47510585E+01  0.00000000E+00  1.23755293E+01  1.23755293E+01 -2.47510585E+01
  0.00000000E+00  1.23755293E+01  1.23755293E+01 -2.47510585E+01  0.00000000E+00
  1.23755293E+01  1.23755293E+01 -2.47510585E+01  0.00000000E+00  1.23755293E+01
  1.23755293E+01 -2.47510585E+01  0.00000000E+00  1.23755293E+01  1.23755293E+01
 -2.47510585E+01  0.00000000E+00  1.23755293E+01  1.23755293E+01 -2.47510585E+01
  0.00000000E+00  1.23755293E+01  1.23755293E+01 -2.47510585E+01  0.00000000E+00
  1.23755293E+01  1.23755293E+01 -2.47510585E+01  0.00000000E+00  1.23755293E+01
  1.23755293E+01 -2.47510585E+01  0.00000000E+00  1.23755293E+01  1.23755293E+01
 -2.47510585E+01  0.00000000E+00  1.23755293E+01  1.23755293E+01 -2.47510585E+01
  0.00000000E+00  1.23755293E+01  1.23755293E+01 -2.47510585E+01  0.00000000E+00
  1.23755293E+01  1.23755293E+01 -2.47510585E+01  0.00000000E+00  1.23755293E+01
  1.23755293E+01 -2.47510585E+01  0.00000000E+00  1.23755293E+01  1.23755293E+01
 -2.47510585E+01  0.00000000E+00  1.23755293E+01  1.23755293E+01 -2.47510585E+01
  0.00000000E+00  1.23755293E+01  1.23755293E+01 -2.47510585E+01  0.00000000E+00
  1.23755293E+01  1.23755293E+01 -2.47510585E+01  0.00000000E+00  1.23755293E+01
  1.23755293E+01 -2.47510585E+01  0.00000000E+00  1.23755293E+01  1.23755293E+01
 -2.47510585E+01  0.00000000E+00  1.23755293E+01  1.23755293E+01 -2.47510585E+01
  0.00000000E+00  1.23755293E+01  1.23755293E+01 -2.47510585E+01  0.00000000E+00
  1.23755293E+01  1.23755293E+01 -2.47510585E+01  0.00000000E+00  1.23755293E+01
  1.23755293E+01 -2.47510585E+01  0.00000000E+00  1.23755293E+01  1.23755293E+01
 -2.47510585E+01  0.00000000E+00  1.23755293E+01  1.23755293E+01 -2.47510585E+01
  0.00000000E+00  1.23755293E+01  1.23755293E+01 -2.47510585E+01  0.00000000E+00
  1.23755293E+01  1.23755293E+01 -2.47510585E+01  0.00000000E+00  1.23755293E+01
  1.23755293E+01 -2.47510585E+01  0.00000000E+00  1.23755293E+01  1.23755293E+01
 -2.47510585E+01  0.00000000E+00  1.23755293E+01  1.23755293E+01 -2.47510585E+01
  0.00000000E+00  1.23755293E+01  1.23755293E+01 -2.47510585E+01  0.00000000E+00
  1.23755293E+01  1.23755293E+01 -2.47510585E+01  0.00000000E+00  1.23755293E+01
  1.23755293E+01 -2.47510585E+01  0.00000000E+00  1.23755293E+01  1.23755293E+01
 -2.47510585E+01  0.00000000E+00  1.23755293E+01  1.23755293E+01 -2.47510585E+01
  0.00000000E+00  1.23755293E+01  1.23755293E+01 -2.47510585E+01  0.00000000E+00
  1.23755293E+01  1.23755293E+01 -2.47510585E+01  0.00000000E+00  1.23755293E+01
  1.23755293E+01 -2.47510585E+01  0.00000000E+00  1.23755293E+01  1.23755293E+01
 -2.47510585E+01  0.00000000E+00  1.23755293E+01  1.23755293E+01 -2.47510585E+01
  0.00000000E+00  1.23755293E+01  1.23755293E+01 -2.47510585E+01  0.00000000E+00
  1.23755293E+01  1.23755293E+01 -2.47510585E+01  0.00000000E+00  1.23755293E+01
  1.23755293E+01 -2.47510585E+01  0.00000000E+00  1.23755293E+01  1.23755293E+01
 -2.47510585E+01  0.00000000E+00  1.23755293E+01  1.23755293E+01 -2.47510585E+01
  0.00000000E+00  1.23755293E+01  1.23755293E+01 -2.47510585E+01  0.00000000E+00
  1.23755293E+01  1.23755293E+01 -2.47510585E+01  0.00000000E+00  1.23755293E+01
  1.23755293E+01 -2.47510585E+01  0.00000000E+00  1.23755293E+01  1.23755293E+01
 -2.47510585E+01  0.00000000E+00  1.23755293E+01  1.23755293E+01 -2.47510585E+01
  0.00000000E+00  1.23755293E+01  1.23755293E+01 -2.47510585E+01  0.00000000E+00
  1.23755293E+01  1.23755293E+01 -2.47510585E+01  0.00000000E+00  1.23755293E+01
  1.23755293E+01 -2.47510585E+01  0.00000000E+00  1.23755293E+01  1.23755293E+01
 -2.47510585E+01  0.00000000E+00  1.23755293E+01  1.23755293E+01 -2.47510585E+01
  0.00000000E+00  1.23755293E+01  1.23755293E+01 -2.47510585E+01  0.00000000E+00
  1.23755293E+01  1.23755293E+01 -2.47510585E+01  0.00000000E+00  1.23755293E+01
  1.23755293E+01 -2.47510585E+01  0.00000000E+00  1.23755293E+01  1.23755293E+01
 -2.47510585E+01  0.00000000E+00  1.23755293E+01  1.23755293E+01 -2.47510585E+01
  0.00000000E+00  1.23755293E+01  1.23755293E+01 -2.47510585E+01  0.00000000E+00
  1.23755293E+01  1.23755293E+01 -2.47510585E+01  0.00000000E+00  1.23755293E+01
  1.23755293E+01 -2.47510585E+01  0.00000000E+00  1.23755293E+01  1.23755293E+01
 -2.47510585E+01  0.00000000E+00  1.23755293E+01  1.23755293E+01 -2.47510585E+01
  0.00000000E+00  1.23755293E+01  1.23755293E+01 -2.47510585E+01  0.00000000E+00
  1.23755293E+01  1.23755293E+01 -2.47510585E+01  0.00000000E+00  1.23755293E+01
  1.23755293E+01 -2.47510585E+01  0.00000000E+00  1.23755293E+01  1.23755293E+01
 -2.47510585E+01  0.00000000E+00  1.23755293E+01  1.23755293E+01 -2.47510585E+01
  0.00000000E+00  1.23755293E+01  1.23755293E+01 -2.47510585E+01  0.00000000E+00
  1.23755293E+01  1.23755293E+01 -2.47510585E+01  0.00000000E+00  1.23755293E+01
  1.23755293E+01 -2.47510585E+01  0.00000000E+00  1.23755293E+01  1.23755293E+01
 -2.47510585E+01  0.00000000E+00  1.23755293E+01  1.23755293E+01 -2.47510585E+01
  0.00000000E+00  1.23755293E+01  1.23755293E+01 -2.47510585E+01  0.00000000E+00
  1.23755293E+01  1.23755293E+01 -2.47510585E+01  0.00000000E+00  1.23755293E+01
  1.23755293E+01 -2.47510585E+01  0.00000000E+00  1.23755293E+01  1.23755293E+01
 -2.47510585E+01  0.00000000E+00  1.23755293E+01  1.23755293E+01 -2.47510585E+01
  0.00000000E+00  1.23755293E+01  1.23755293E+01 -2.47510585E+01  0.00000000E+00
  1.23755293E+01  1.23755293E+01 -2.47510585E+01  0.00000000E+00  1.23755293E+01
  1.23755293E+01 -2.47510585E+01  0.00000000E+00  1.23755293E+01  1.23755293E+01
 -2.47510585E+01  0.00000000E+00  1.23755293E+01  1.23755293E+01 -2.47510585E+01
  0.00000000E+00  1.23755293E+01  1.23755293E+01 -2.47510585E+01  0.00000000E+00
  1.23755293E+01  1.23755293E+01 -2.47510585E+01  0.00000000E+00  1.23755293E+01
  1.23755293E+01 -2.47510585E+01  0.00000000E+00  1.23755293E+01  1.23755293E+01
 -2.47510585E+01  0.00000000E+00  1.23755293E+01  1.23755293E+01 -2.47510585E+01
  0.00000000E+00  1.23755293E+01  1.23755293E+01 -2.47510585E+01  0.00000000E+00
  1.23755293E+01  1.23755293E+01 -2.47510585E+01  0.00000000E+00  1.23755293E+01
  1.23755293E+01 -2.47510585E+01  0.00000000E+00  1.23755293E+01  1.23755293E+01
 -2.47510585E+01  0.00000000E+00  1.23755293E+01  1.23755293E+01 -2.47510585E+01
  0.00000000E+00  1.23755293E+01  1.23755293E+01 -2.47510585E+01  0.00000000E+00
  1.23755293E+01  1.23755293E+01 -2.47510585E+01  0.00000000E+00  1.23755293E+01
  1.23755293E+01 -2.47510585E+01  0.00000000E+00  1.23755293E+01  1.23755293E+01
 -2.47510585E+01  0.00000000E+00  1.23755293E+01  1.23755293E+01 -2.47510585E+01
  0.00000000E+00  1.23755293E+01  1.23755293E+01 -2.47510585E+01  0.00000000E+00
  1.23755293E+01  1.23755293E+01 -2.47510585E+01  0.00000000E+00  1.23755293E+01
  1.23755293E+01 -2.47510585E+01  0.00000000E+00  1.23755293E+01  1.23755293E+01
 -2.47510585E+01  0.00000000E+00  1.23755293E+01  1.23755293E+01 -2.47510585E+01
  0.00000000E+00  1.23755293E+01  1.23755293E+01 -2.47510585E+01  0.00000000E+00
  1.23755293E+01  1.23755293E+01 -2.47510585E+01  0.00000000E+00  1.23755293E+01
  1.23755293E+01 -2.47510585E+01  0.00000000E+00  1.23755293E+01  1.23755293E+01
 -2.47510585E+01  0.00000000E+00  1.23755293E+01  1.23755293E+01 -2.47510585E+01
  0.00000000E+00  1.23755293E+01  1.23755293E+01 -2.47510585E+01  0.00000000E+00
  1.23755293E+01  1.23755293E+01 -2.47510585E+01  0.00000000E+00  1.23755293E+01
  1.23755293E+01 -2.47510585E+01  0.00000000E+00  1.23755293E+01  1.23755293E+01
 -2.47510585E+01  0.00000000E+00  1.23755293E+01  1.23755293E+01 -2.47510585E+01
  0.00000000E+00  1.23755293E+01  1.23755293E+01 -2.47510585E+01  0.00000000E+00
  1.23755293E+01  1.23755293E+01 -2.47510585E+01  0.00000000E+00  1.23755293E+01
  1.23755293E+01 -2.47510585E+01  0.00000000E+00  1.23755293E+01  1.23755293E+01
 -2.47510585E+01  0.00000000E+00  1.23755293E+01  1.23755293E+01 -2.47510585E+01
  0.00000000E+00  1.23755293E+01  1.23755293E+01 -2.47510585E+01  0.00000000E+00
  1.23755293E+01  1.23755293E+01 -2.47510585E+01  0.00000000E+00  1.23755293E+01
  1.23755293E+01 -2.47510585E+01  0.00000000E+00  1.23755293E+01  1.23755293E+01
 -2.47510585E+01  0.00000000E+00  1.23755293E+01  1.23755293E+01 -2.47510585E+01
  0.00000000E+00  1.23755293E+01  1.23755293E+01 -2.47510585E+01  0.00000000E+00
  1.23755293E+01  1.23755293E+01 -2.47510585E+01  0.00000000E+00  1.23755293E+01
  1.23755293E+01 -2.47510585E+01  0.00000000E+00  1.23755293E+01  1.23755293E+01
 -2.47510585E+01  0.00000000E+00  1.23755293E+01  1.23755293E+01 -2.47510585E+01
  0.00000000E+00  1.23755293E+01  1.23755293E+01 -2.47510585E+01  0.00000000E+00
  1.23755293E+01  1.23755293E+01 -2.47510585E+01  0.00000000E+00  1.23755293E+01
  1.23755293E+01 -2.47510585E+01  0.00000000E+00  1.23755293E+01  1.23755293E+01
 -2.47510585E+01  0.00000000E+00  1.23755293E+01  1.23755293E+01 -2.47510585E+01
  0.00000000E+00  1.23755293E+01  1.23755293E+01 -2.47510585E+01  0.00000000E+00
  1.23755293E+01  1.23755293E+01 -2.47510585E+01  0.00000000E+00  1.23755293E+01
  1.23755293E+01 -2.47510585E+01  0.00000000E+00  1.23755293E+01  1.23755293E+01
 -2.47510585E+01  0.00000000E+00  1.23755293E+01  1.23755293E+01 -2.47510585E+01
  0.00000000E+00  1.23755293E+01  1.23755293E+01 -2.47510585E+01  0.00000000E+00
  1.23755293E+01  1.23755293E+01 -2.47510585E+01  0.00000000E+00  1.23755293E+01
  1.23755293E+01 -2.47510585E+01  0.00000000E+00  1.23755293E+01  1.23755293E+01
 -2.47510585E+01  0.00000000E+00  1.23755293E+01  1.23755293E+01 -2.47510585E+01
  0.00000000E+00  1.23755293E+01  1.23755293E+01 -2.47510585E+01  0.00000000E+00
  1.23755293E+01  1.23755293E+01 -2.47510585E+01  0.00000000E+00  1.23755293E+01
  1.23755293E+01 -2.47510585E+01  0.00000000E+00  1.23755293E+01  1.23755293E+01
 -2.47510585E+01  0.00000000E+00  1.23755293E+01  1.23755293E+01 -2.47510585E+01
  0.00000000E+00  1.23755293E+01  1.23755293E+01 -2.47510585E+01  0.00000000E+00
  1.23755293E+01  1.23755293E+01 -2.47510585E+01  0.00000000E+00  1.23755293E+01
  1.23755293E+01 -2.47510585E+01  0.00000000E+00  1.23755293E+01  1.23755293E+01
 -2.47510585E+01  0.00000000E+00  1.23755293E+01  1.23755293E+01 -2.47510585E+01
  0.00000000E+00  1.23755293E+01  1.23755293E+01 -2.47510585E+01  0.00000000E+00
  1.23755293E+01  1.23755293E+01 -2.47510585E+01  0.00000000E+00  1.23755293E+01
  1.23755293E+01 -2.47510585E+01  0.00000000E+00  1.23755293E+01  1.23755293E+01
 -2.47510585E+01  0.00000000E+00  1.23755293E+01  1.23755293E+01 -2.47510585E+01
  0.00000000E+00  1.23755293E+01  1.23755293E+01 -2.47510585E+01  0.00000000E+00
  1.23755293E+01  1.23755293E+01 -2.47510585E+01  0.00000000E+00  1.23755293E+01
  1.23755293E+01 -2.47510585E+01  0.00000000E+00  1.23755293E+01  1.23755293E+01
 -2.47510585E+01  0.00000000E+00  1.23755293E+01  1.23755293E+01 -2.47510585E+01
  0.00000000E+00  1.23755293E+01  1.23755293E+01 -2.47510585E+01  0.00000000E+00
  1.23755293E+01  1.23755293E+01 -2.47510585E+01  0.00000000E+00  1.23755293E+01
  1.23755293E+01 -2.47510585E+01  0.00000000E+00  1.23755293E+01  1.23755293E+01
 -2.47510585E+01  0.00000000E+00  1.23755293E+01  1.23755293E+01 -2.47510585E+01
  0.00000000E+00  1.23755293E+01  1.23755293E+01 -2.47510585E+01  0.00000000E+00
  1.23755293E+01  1.23755293E+01 -2.47510585E+01  0.00000000E+00  1.23755293E+01
  1.23755293E+01 -2.47510585E+01  0.00000000E+00  1.23755293E+01  1.23755293E+01
 -2.47510585E+01  0.00000000E+00  1.23755293E+01  1.23755293E+01 -2.47510585E+01
  0.00000000E+00  1.23755293E+01  1.23755293E+01 -2.47510585E+01  0.00000000E+00
  1.23755293E+01  1.23755293E+01 -2.47510585E+01  0.00000000E+00  1.23755293E+01
  1.23755293E+01 -2.47510585E+01  0.00000000E+00  1.23755293E+01  1.23755293E+01
 -2.47510585E+01  0.00000000E+00  1.23755293E+01  1.23755293E+01 -2.47510585E+01
  0.00000000E+00  1.23755293E+01  1.23755293E+01 -2.47510585E+01  0.00000000E+00
  1.23755293E+01  1.23755293E+01 -2.47510585E+01  0.00000000E+00  1.23755293E+01
  1.23755293E+01 -2.47510585E+01  0.00000000E+00  1.23755293E+01  1.23755293E+01
 -2.47510585E+01  0.00000000E+00  1.23755293E+01  1.23755293E+01 -2.47510585E+01
  0.00000000E+00  1.23755293E+01  1.23755293E+01 -2.47510585E+01  0.00000000E+00
  1.23755293E+01  1.23755293E+01 -2.47510585E+01  0.00000000E+00  1.23755293E+01
  1.23755293E+01 -2.47510585E+01  0.00000000E+00  1.23755293E+01  1.23755293E+01
 -2.47510585E+01  0.00000000E+00  1.23755293E+01  1.23755293E+01 -2.47510585E+01
  0.00000000E+00  1.23755293E+01  1.23755293E+01 -2.47510585E+01  0.00000000E+00
  1.23755293E+01  1.23755293E+01 -2.47510585E+01  0.00000000E+00  1.23755293E+01
  1.23755293E+01 -2.47510585E+01  0.00000000E+00  1.23755293E+01  1.23755293E+01
 -2.47510585E+01  0.00000000E+00  1.23755293E+01  1.23755293E+01 -2.47510585E+01
  0.00000000E+00  1.23755293E+01  1.23755293E+01 -2.47510585E+01  0.00000000E+00
  1.23755293E+01  1.23755293E+01 -2.47510585E+01  0.00000000E+00  1.23755293E+01
  1.23755293E+01 -2.47510585E+01  0.00000000E+00  1.23755293E+01  1.23755293E+01
 -2.47510585E+01  0.00000000E+00  1.23755293E+01  1.23755293E+01 -2.47510585E+01
  0.00000000E+00  1.23755293E+01  1.23755293E+01 -2.47510585E+01  0.00000000E+00
  1.23755293E+01  1.23755293E+01 -2.47510585E+01  0.00000000E+00  1.23755293E+01
  1.23755293E+01 -2.47510585E+01  0.00000000E+00  1.23755293E+01  1.23755293E+01
 -2.47510585E+01  0.00000000E+00  1.23755293E+01  1.23755293E+01 -2.47510585E+01
  0.00000000E+00  1.23755293E+01  1.23755293E+01 -2.47510585E+01  0.00000000E+00
  1.23755293E+01  1.23755293E+01 -2.47510585E+01  0.00000000E+00  1.23755293E+01
  1.23755293E+01 -2.47510585E+01  0.00000000E+00  1.23755293E+01  1.23755293E+01
 -2.47510585E+01  0.00000000E+00  1.23755293E+01  1.23755293E+01 -2.47510585E+01
  0.00000000E+00  1.23755293E+01  1.23755293E+01 -2.47510585E+01  0.00000000E+00
  1.23755293E+01  1.23755293E+01 -2.47510585E+01  0.00000000E+00  1.23755293E+01
  1.23755293E+01 -2.47510585E+01  0.00000000E+00  1.23755293E+01  1.23755293E+01
 -2.47510585E+01  0.00000000E+00  1.23755293E+01  1.23755293E+01 -2.47510585E+01
  0.00000000E+00  1.23755293E+01  1.23755293E+01 -2.47510585E+01  0.00000000E+00
  1.23755293E+01  1.23755293E+01 -2.47510585E+01  0.00000000E+00  1.23755293E+01
  1.23755293E+01 -2.47510585E+01  0.00000000E+00  1.23755293E+01  1.23755293E+01
 -2.47510585E+01  0.00000000E+00  1.23755293E+01  1.23755293E+01 -2.47510585E+01
  0.00000000E+00  1.23755293E+01  1.23755293E+01 -2.47510585E+01  0.00000000E+00
  1.23755293E+01  1.23755293E+01 -2.47510585E+01  0.00000000E+00  1.23755293E+01
  1.23755293E+01 -2.47510585E+01  0.00000000E+00  1.23755293E+01  1.23755293E+01
 -2.47510585E+01  0.00000000E+00  1.23755293E+01  1.23755293E+01 -2.47510585E+01
  0.00000000E+00  1.23755293E+01  1.23755293E+01 -2.47510585E+01  0.00000000E+00
  1.23755293E+01  1.23755293E+01 -2.47510585E+01  0.00000000E+00  1.23755293E+01
  1.23755293E+01 -2.47510585E+01  0.00000000E+00  1.23755293E+01  1.23755293E+01
 -2.47510585E+01  0.00000000E+00  1.23755293E+01  1.23755293E+01 -2.47510585E+01
  0.00000000E+00  1.23755293E+01  1.23755293E+01 -2.47510585E+01  0.00000000E+00
  1.23755293E+01  1.23755293E+01 -2.47510585E+01  0.00000000E+00  1.23755293E+01
  1.23755293E+01 -2.47510585E+01  0.00000000E+00  1.23755293E+01  1.23755293E+01
 -2.47510585E+01  0.00000000E+00  1.23755293E+01  1.23755293E+01 -2.47510585E+01
  0.00000000E+00  1.23755293E+01  1.23755293E+01 -2.47510585E+01  0.00000000E+00
  1.23755293E+01  1.23755293E+01 -2.47510585E+01  0.00000000E+00  1.23755293E+01
  1.23755293E+01 -2.47510585E+01  0.00000000E+00  1.23755293E+01  1.23755293E+01
 -2.47510585E+01  0.00000000E+00  1.23755293E+01  1.23755293E+01 -2.47510585E+01
  0.00000000E+00  1.23755293E+01  1.23755293E+01 -2.47510585E+01  0.00000000E+00
  1.23755293E+01  1.23755293E+01 -2.47510585E+01  0.00000000E+00  1.23755293E+01
  1.23755293E+01 -2.47510585E+01  0.00000000E+00  1.23755293E+01  1.23755293E+01
 -2.47510585E+01  0.00000000E+00  1.23755293E+01  1.23755293E+01 -2.47510585E+01
  0.00000000E+00  1.23755293E+01  1.23755293E+01 -2.47510585E+01  0.00000000E+00
  1.23755293E+01  1.23755293E+01 -2.47510585E+01  0.00000000E+00  1.23755293E+01
  1.23755293E+01 -2.47510585E+01  0.00000000E+00  1.23755293E+01  1.23755293E+01
 -2.47510585E+01  0.00000000E+00  1.23755293E+01  1.23755293E+01 -2.47510585E+01
  0.00000000E+00  1.23755293E+01  1.23755293E+01 -2.47510585E+01  0.00000000E+00
  1.23755293E+01  1.23755293E+01 -2.47510585E+01  0.00000000E+00  1.23755293E+01
  1.23755293E+01 -2.47510585E+01  0.00000000E+00  1.23755293E+01  1.23755293E+01
 -2.47510585E+01  0.00000000E+00  1.23755293E+01  1.23755293E+01 -2.47510585E+01
  0.00000000E+00  1.23755293E+01  1.23755293E+01 -2.47510585E+01  0.00000000E+00
  1.23755293E+01  1.23755293E+01 -2.47510585E+01  0.00000000E+00  1.23755293E+01
  1.23755293E+01 -2.47510585E+01  0.00000000E+00  1.23755293E+01  1.23755293E+01
 -2.47510585E+01  0.00000000E+00  1.23755293E+01  1.23755293E+01 -2.47510585E+01
  0.00000000E+00  1.23755293E+01  1.23755293E+01 -2.47510585E+01  0.00000000E+00
  1.23755293E+01  1.23755293E+01 -2.47510585E+01  0.00000000E+00  1.23755293E+01
  1.23755293E+01 -2.47510585E+01  0.00000000E+00  1.23755293E+01  1.23755293E+01
 -2.47510585E+01  0.00000000E+00  1.23755293E+01  1.23755293E+01 -2.47510585E+01
  0.00000000E+00  1.23755293E+01  1.23755293E+01 -2.47510585E+01  0.00000000E+00
  1.23755293E+01  1.23755293E+01 -2.47510585E+01  0.00000000E+00  1.23755293E+01
  1.23755293E+01 -2.47510585E+01  0.00000000E+00  1.23755293E+01  1.23755293E+01
 -2.47510585E+01  0.00000000E+00  1.23755293E+01  1.23755293E+01 -2.47510585E+01
  0.00000000E+00  1.23755293E+01  1.23755293E+01 -2.47510585E+01  0.00000000E+00
  1.23755293E+01  1.23755293E+01 -2.47510585E+01  0.00000000E+00  1.23755293E+01
  1.23755293E+01 -2.47510585E+01  0.00000000E+00  1.23755293E+01  1.23755293E+01
 -2.47510585E+01  0.00000000E+00  1.23755293E+01  1.23755293E+01 -2.47510585E+01
  0.00000000E+00  1.23755293E+01  1.23755293E+01 -2.47510585E+01  0.00000000E+00
  1.23755293E+01  1.23755293E+01 -2.47510585E+01  0.00000000E+00  1.23755293E+01
  1.23755293E+01 -2.47510585E+01  0.00000000E+00  1.23755293E+01  1.23755293E+01
 -2.47510585E+01  0.00000000E+00  1.23755293E+01  1.23755293E+01 -2.47510585E+01
  0.00000000E+00  1.23755293E+01  1.23755293E+01 -2.47510585E+01  0.00000000E+00
  1.23755293E+01  1.23755293E+01 -2.47510585E+01  0.00000000E+00  1.23755293E+01
  1.23755293E+01 -2.47510585E+01  0.00000000E+00  1.23755293E+01  1.23755293E+01
 -2.47510585E+01  0.00000000E+00  1.23755293E+01  1.23755293E+01 -2.47510585E+01
  0.00000000E+00  1.23755293E+01  1.23755293E+01 -2.47510585E+01  0.00000000E+00
  1.23755293E+01  1.23755293E+01 -2.47510585E+01  0.00000000E+00  1.23755293E+01
  1.23755293E+01 -2.47510585E+01  0.00000000E+00  1.23755293E+01  1.23755293E+01
 -2.47510585E+01  0.00000000E+00  1.23755293E+01  1.23755293E+01 -2.47510585E+01
  0.00000000E+00  1.23755293E+01  1.23755293E+01 -2.47510585E+01  0.00000000E+00
  1.23755293E+01  1.23755293E+01 -2.47510585E+01  0.00000000E+00  1.23755293E+01
  1.23755293E+01 -2.47510585E+01  0.00000000E+00  1.23755293E+01  1.23755293E+01
 -2.47510585E+01  0.00000000E+00  1.23755293E+01  1.23755293E+01 -2.47510585E+01
  0.00000000E+00  1.23755293E+01  1.23755293E+01 -2.47510585E+01  0.00000000E+00
  1.23755293E+01  1.23755293E+01 -2.47510585E+01  0.00000000E+00  1.23755293E+01
  1.23755293E+01 -2.47510585E+01  0.00000000E+00  1.23755293E+01  1.23755293E+01
 -2.47510585E+01  0.00000000E+00  1.23755293E+01  1.23755293E+01 -2.47510585E+01
  0.00000000E+00  1.23755293E+01  1.23755293E+01 -2.47510585E+01  0.00000000E+00
  1.23755293E+01  1.23755293E+01 -2.47510585E+01  0.00000000E+00  1.23755293E+01
  1.23755293E+01 -2.47510585E+01  0.00000000E+00  1.23755293E+01  1.23755293E+01
 -2.47510585E+01  0.00000000E+00  1.23755293E+01  1.23755293E+01 -2.47510585E+01
  0.00000000E+00  1.23755293E+01  1.23755293E+01 -2.47510585E+01  0.00000000E+00
  1.23755293E+01  1.23755293E+01 -2.47510585E+01  0.00000000E+00  1.23755293E+01
  1.23755293E+01 -2.47510585E+01  0.00000000E+00  1.23755293E+01  1.23755293E+01
 -2.47510585E+01  0.00000000E+00  1.23755293E+01  1.23755293E+01 -2.47510585E+01
  0.00000000E+00  1.23755293E+01  1.23755293E+01 -2.47510585E+01  0.00000000E+00
  1.23755293E+01  1.23755293E+01 -2.47510585E+01  0.00000000E+00  1.23755293E+01
  1.23755293E+01 -2.47510585E+01  0.00000000E+00  1.23755293E+01  1.23755293E+01
 -2.47510585E+01  0.00000000E+00  1.23755293E+01  1.23755293E+01 -2.47510585E+01
  0.00000000E+00  1.23755293E+01  1.23755293E+01 -2.47510585E+01  0.00000000E+00
  1.23755293E+01  1.23755293E+01 -2.47510585E+01  0.00000000E+00  1.23755293E+01
  1.23755293E+01 -2.47510585E+01  0.00000000E+00  1.23755293E+01  1.23755293E+01
 -2.47510585E+01  0.00000000E+00  1.23755293E+01  1.23755293E+01 -2.47510585E+01
  0.00000000E+00  1.23755293E+01  1.23755293E+01 -2.47510585E+01  0.00000000E+00
  1.23755293E+01  1.23755293E+01 -2.47510585E+01  0.00000000E+00  1.23755293E+01
  1.23755293E+01 -2.47510585E+01  0.00000000E+00  1.23755293E+01  1.23755293E+01
 -2.47510585E+01  0.00000000E+00  1.23755293E+01  1.23755293E+01 -2.47510585E+01
  0.00000000E+00  1.23755293E+01  1.23755293E+01 -2.47510585E+01  0.00000000E+00
  1.23755293E+01  1.23755293E+01 -2.47510585E+01  0.00000000E+00  1.23755293E+01
  1.23755293E+01 -2.47510585E+01  0.00000000E+00  1.23755293E+01  1.23755293E+01
 -2.47510585E+01  0.00000000E+00  1.23755293E+01  1.23755293E+01 -2.47510585E+01
  0.00000000E+00  1.23755293E+01  1.23755293E+01 -2.47510585E+01  0.00000000E+00
  1.23755293E+01  1.23755293E+01 -2.47510585E+01  0.00000000E+00  1.23755293E+01
  1.23755293E+01 -2.47510585E+01  0.00000000E+00  1.23755293E+01  1.23755293E+01
 -2.47510585E+01  0.00000000E+00  1.23755293E+01  1.23755293E+01 -2.47510585E+01
  0.00000000E+00  1.23755293E+01  1.23755293E+01 -2.47510585E+01  0.00000000E+00
  1.23755293E+01  1.23755293E+01 -2.47510585E+01  0.00000000E+00  1.23755293E+01
  1.23755293E+01 -2.47510585E+01  0.00000000E+00  1.23755293E+01  1.23755293E+01
 -2.47510585E+01  0.00000000E+00  1.23755293E+01  1.23755293E+01 -2.47510585E+01
  0.00000000E+00  1.23755293E+01  1.23755293E+01 -2.47510585E+01  0.00000000E+00
  1.23755293E+01  1.23755293E+01 -2.47510585E+01  0.00000000E+00  1.23755293E+01
  1.23755293E+01 -2.47510585E+01  0.00000000E+00  1.23755293E+01  1.23755293E+01
 -2.47510585E+01  0.00000000E+00  1.23755293E+01  1.23755293E+01 -2.47510585E+01
  0.00000000E+00  1.23755293E+01  1.23755293E+01 -2.47510585E+01  0.00000000E+00
  1.23755293E+01  1.23755293E+01 -2.47510585E+01  0.00000000E+00  1.23755293E+01
  1.23755293E+01 -2.47510585E+01  0.00000000E+00  1.23755293E+01  1.23755293E+01
 -2.47510585E+01  0.00000000E+00  1.23755293E+01  1.23755293E+01 -2.47510585E+01
  0.00000000E+00  1.23755293E+01  1.23755293E+01 -2.47510585E+01  0.00000000E+00
  1.23755293E+01  1.23755293E+01 -2.47510585E+01  0.00000000E+00  1.23755293E+01
  1.23755293E+01 -2.47510585E+01  0.00000000E+00  1.23755293E+01  1.23755293E+01
 -2.47510585E+01  0.00000000E+00  1.23755293E+01  1.23755293E+01 -2.47510585E+01
  0.00000000E+00  1.23755293E+01  1.23755293E+01 -2.47510585E+01  0.00000000E+00
  1.23755293E+01  1.23755293E+01 -2.47510585E+01  0.00000000E+00  1.23755293E+01
  1.23755293E+01 -2.47510585E+01  0.00000000E+00  1.23755293E+01  1.23755293E+01
 -2.47510585E+01  0.00000000E+00  1.23755293E+01  1.23755293E+01 -2.47510585E+01
  0.00000000E+00  1.23755293E+01  1.23755293E+01 -2.47510585E+01  0.00000000E+00
  1.23755293E+01  1.23755293E+01 -2.47510585E+01  0.00000000E+00  1.23755293E+01
  1.23755293E+01 -2.47510585E+01  0.00000000E+00  1.23755293E+01  1.23755293E+01
 -2.47510585E+01  0.00000000E+00  1.23755293E+01  1.23755293E+01 -2.47510585E+01
  0.00000000E+00  1.23755293E+01  1.23755293E+01 -2.47510585E+01  0.00000000E+00
  1.23755293E+01  1.23755293E+01 -2.47510585E+01  0.00000000E+00  1.23755293E+01
  1.23755293E+01 -2.47510585E+01  0.00000000E+00  1.23755293E+01  1.23755293E+01
 -2.47510585E+01  0.00000000E+00  1.23755293E+01  1.23755293E+01 -2.47510585E+01
  0.00000000E+00  1.23755293E+01  1.23755293E+01 -2.47510585E+01  0.00000000E+00
  1.23755293E+01  1.23755293E+01 -2.47510585E+01  0.00000000E+00  1.23755293E+01
  1.23755293E+01 -2.47510585E+01  0.00000000E+00  1.23755293E+01  1.23755293E+01
 -2.47510585E+01  0.00000000E+00  1.23755293E+01  1.23755293E+01 -2.47510585E+01
  0.00000000E+00  1.23755293E+01  1.23755293E+01 -2.47510585E+01  0.00000000E+00
  1.23755293E+01  1.23755293E+01 -2.47510585E+01  0.00000000E+00  1.23755293E+01
  1.23755293E+01 -2.47510585E+01  0.00000000E+00  1.23755293E+01  1.23755293E+01
 -2.47510585E+01  0.00000000E+00  1.23755293E+01  1.23755293E+01 -2.47510585E+01
  0.00000000E+00  1.23755293E+01  1.23755293E+01 -2.47510585E+01  0.00000000E+00
  1.23755293E+01  1.23755293E+01 -2.47510585E+01  0.00000000E+00  1.23755293E+01
  1.23755293E+01 -2.47510585E+01  0.00000000E+00  1.23755293E+01  1.23755293E+01
 -2.47510585E+01  0.00000000E+00  1.23755293E+01  1.23755293E+01 -2.47510585E+01
  0.00000000E+00  1.23755293E+01  1.23755293E+01 -2.47510585E+01  0.00000000E+00
  1.23755293E+01  1.23755293E+01 -2.47510585E+01  0.00000000E+00  1.23755293E+01
  1.23755293E+01 -2.47510585E+01  0.00000000E+00  1.23755293E+01  1.23755293E+01
 -2.47510585E+01  0.00000000E+00  1.23755293E+01  1.23755293E+01 -2.47510585E+01
  0.00000000E+00  1.23755293E+01  1.23755293E+01 -2.47510585E+01  0.00000000E+00
  1.23755293E+01  1.23755293E+01 -2.47510585E+01  0.00000000E+00  1.23755293E+01
  1.23755293E+01 -2.47510585E+01  0.00000000E+00  1.23755293E+01  1.23755293E+01
 -2.47510585E+01  0.00000000E+00  1.23755293E+01  1.23755293E+01 -2.47510585E+01
  0.00000000E+00  1.23755293E+01  1.23755293E+01 -2.47510585E+01  0.00000000E+00
  1.23755293E+01  1.23755293E+01 -2.47510585E+01  0.00000000E+00  1.23755293E+01
  1.23755293E+01 -2.47510585E+01  0.00000000E+00  1.23755293E+01  1.23755293E+01
 -2.47510585E+01  0.00000000E+00  1.23755293E+01  1.23755293E+01 -2.47510585E+01
  0.00000000E+00  1.23755293E+01  1.23755293E+01 -2.47510585E+01  0.00000000E+00
  1.23755293E+01  1.23755293E+01 -2.47510585E+01  0.00000000E+00  1.23755293E+01
  1.23755293E+01 -2.47510585E+01  0.00000000E+00  1.23755293E+01  1.23755293E+01
 -2.47510585E+01  0.00000000E+00  1.23755293E+01  1.23755293E+01 -2.47510585E+01
  0.00000000E+00  1.23755293E+01  1.23755293E+01 -2.47510585E+01  0.00000000E+00
  1.23755293E+01  1.23755293E+01 -2.47510585E+01  0.00000000E+00  1.23755293E+01
  1.23755293E+01 -2.47510585E+01  0.00000000E+00  1.23755293E+01  1.23755293E+01
 -2.47510585E+01  0.00000000E+00  1.23755293E+01  1.23755293E+01 -2.47510585E+01
  0.00000000E+00  1.23755293E+01  1.23755293E+01 -2.47510585E+01  0.00000000E+00
  1.23755293E+01  1.23755293E+01 -2.47510585E+01  0.00000000E+00  1.23755293E+01
  1.23755293E+01 -2.47510585E+01  0.00000000E+00  1.23755293E+01  1.23755293E+01
 -2.47510585E+01  0.00000000E+00  1.23755293E+01  1.23755293E+01 -2.47510585E+01
  0.00000000E+00  1.23755293E+01  1.23755293E+01 -2.47510585E+01  0.00000000E+00
  1.23755293E+01  1.23755293E+01 -2.47510585E+01  0.00000000E+00  1.23755293E+01
  1.23755293E+01 -2.47510585E+01  0.00000000E+00  1.23755293E+01  1.23755293E+01
 -2.47510585E+01  0.00000000E+00  1.23755293E+01  1.23755293E+01 -2.47510585E+01
  0.00000000E+00  1.23755293E+01  1.23755293E+01 -2.47510585E+01  0.00000000E+00
  1.23755293E+01  1.23755293E+01 -2.47510585E+01  0.00000000E+00  1.23755293E+01
  1.23755293E+01 -2.47510585E+01  0.00000000E+00  1.23755293E+01  1.23755293E+01
 -2.47510585E+01  0.00000000E+00  1.23755293E+01  1.23755293E+01 -2.47510585E+01
  0.00000000E+00  1.23755293E+01  1.23755293E+01 -2.47510585E+01  0.00000000E+00
  1.23755293E+01  1.23755293E+01 -2.47510585E+01  0.00000000E+00  1.23755293E+01
  1.23755293E+01 -2.47510585E+01  0.00000000E+00  1.23755293E+01  1.23755293E+01
 -2.47510585E+01  0.00000000E+00  1.23755293E+01  1.23755293E+01 -2.47510585E+01
  0.00000000E+00  1.23755293E+01  1.23755293E+01 -2.47510585E+01  0.00000000E+00
  1.23755293E+01  1.23755293E+01 -2.47510585E+01  0.00000000E+00  1.23755293E+01
  1.23755293E+01 -2.47510585E+01  0.00000000E+00  1.23755293E+01  1.23755293E+01
 -2.47510585E+01  0.00000000E+00  1.23755293E+01  1.23755293E+01 -2.47510585E+01
  0.00000000E+00  1.23755293E+01  1.23755293E+01 -2.47510585E+01  0.00000000E+00
  1.23755293E+01  1.23755293E+01 -2.47510585E+01  0.00000000E+00  1.23755293E+01
  1.23755293E+01 -2.47510585E+01  0.00000000E+00  1.23755293E+01  1.23755293E+01
 -2.47510585E+01  0.00000000E+00  1.23755293E+01  1.23755293E+01 -2.47510585E+01
  0.00000000E+00  1.23755293E+01  1.23755293E+01 -2.47510585E+01  0.00000000E+00
  1.23755293E+01  1.23755293E+01 -2.47510585E+01  0.00000000E+00  1.23755293E+01
  1.23755293E+01 -2.47510585E+01  0.00000000E+00  1.23755293E+01  1.23755293E+01
 -2.47510585E+01  0.00000000E+00  1.23755293E+01  1.23755293E+01 -2.47510585E+01
  0.00000000E+00  1.23755293E+01  1.23755293E+01 -2.47510585E+01  0.00000000E+00
  1.23755293E+01  1.23755293E+01 -2.47510585E+01  0.00000000E+00  1.23755293E+01
  1.23755293E+01 -2.47510585E+01  0.00000000E+00  1.23755293E+01  1.23755293E+01
 -2.47510585E+01  0.00000000E+00  1.23755293E+01  1.23755293E+01 -2.47510585E+01
  0.00000000E+00  1.23755293E+01  1.23755293E+01 -2.47510585E+01  0.00000000E+00
  1.23755293E+01  1.23755293E+01 -2.47510585E+01  0.00000000E+00  1.23755293E+01
  1.23755293E+01 -2.47510585E+01  0.00000000E+00  1.23755293E+01  1.23755293E+01
 -2.47510585E+01  0.00000000E+00  1.23755293E+01  1.23755293E+01 -2.47510585E+01
  0.00000000E+00  1.23755293E+01  1.23755293E+01 -2.47510585E+01  0.00000000E+00
  1.23755293E+01  1.23755293E+01 -2.47510585E+01  0.00000000E+00  1.23755293E+01
  1.23755293E+01 -2.47510585E+01  0.00000000E+00  1.23755293E+01  1.23755293E+01
 -2.47510585E+01  0.00000000E+00  1.23755293E+01  1.23755293E+01 -2.47510585E+01
  0.00000000E+00  1.23755293E+01  1.23755293E+01 -2.47510585E+01  0.00000000E+00
  1.23755293E+01  1.23755293E+01 -2.47510585E+01  0.00000000E+00  1.23755293E+01
  1.23755293E+01 -2.47510585E+01  0.00000000E+00  1.23755293E+01  1.23755293E+01
 -2.47510585E+01  0.00000000E+00  1.23755293E+01  1.23755293E+01 -2.47510585E+01
  0.00000000E+00  1.23755293E+01  1.23755293E+01 -2.47510585E+01  0.00000000E+00
  1.23755293E+01  1.23755293E+01 -2.47510585E+01  0.00000000E+00  1.23755293E+01
  1.23755293E+01 -2.47510585E+01  0.00000000E+00  1.23755293E+01  1.23755293E+01
 -2.47510585E+01  0.00000000E+00  1.23755293E+01  1.23755293E+01 -2.47510585E+01
  0.00000000E+00  1.23755293E+01  1.23755293E+01 -2.47510585E+01  0.00000000E+00
  1.23755293E+01  1.23755293E+01 -2.47510585E+01  0.00000000E+00  1.23755293E+01
  1.23755293E+01 -2.47510585E+01  0.00000000E+00  1.23755293E+01  1.23755293E+01
 -2.47510585E+01  0.00000000E+00  1.23755293E+01  1.23755293E+01 -2.47510585E+01
  0.00000000E+00  1.23755293E+01  1.23755293E+01 -2.47510585E+01  0.00000000E+00
  1.23755293E+01  1.23755293E+01 -2.47510585E+01  0.00000000E+00  1.23755293E+01
  1.23755293E+01 -2.47510585E+01  0.00000000E+00  1.23755293E+01  1.23755293E+01
 -2.47510585E+01  0.00000000E+00  1.23755293E+01  1.23755293E+01 -2.47510585E+01
  0.00000000E+00  1.23755293E+01  1.23755293E+01 -2.47510585E+01  0.00000000E+00
  1.23755293E+01  1.23755293E+01 -2.47510585E+01  0.00000000E+00  1.23755293E+01
  1.23755293E+01 -2.47510585E+01  0.00000000E+00  1.23755293E+01  1.23755293E+01
 -2.47510585E+01  0.00000000E+00  1.23755293E+01  1.23755293E+01 -2.47510585E+01
  0.00000000E+00  1.23755293E+01  1.23755293E+01 -2.47510585E+01  0.00000000E+00
  1.23755293E+01  1.23755293E+01 -2.47510585E+01  0.00000000E+00  1.23755293E+01
  1.23755293E+01 -2.47510585E+01  0.00000000E+00  1.23755293E+01  1.23755293E+01
 -2.47510585E+01  0.00000000E+00  1.23755293E+01  1.23755293E+01 -2.47510585E+01
  0.00000000E+00  1.23755293E+01  1.23755293E+01 -2.47510585E+01  0.00000000E+00
  1.23755293E+01  1.23755293E+01 -2.47510585E+01  0.00000000E+00  1.23755293E+01
  1.23755293E+01 -2.47510585E+01  0.00000000E+00  1.23755293E+01  1.23755293E+01
 -2.47510585E+01  0.00000000E+00  1.23755293E+01  1.23755293E+01 -2.47510585E+01
  0.00000000E+00  1.23755293E+01  1.23755293E+01 -2.47510585E+01  0.00000000E+00
  1.23755293E+01  1.23755293E+01 -2.47510585E+01  0.00000000E+00  1.23755293E+01
  1.23755293E+01 -2.47510585E+01  0.00000000E+00  1.23755293E+01  1.23755293E+01
 -2.47510585E+01  0.00000000E+00  1.23755293E+01  1.23755293E+01 -2.47510585E+01
  0.00000000E+00  1.23755293E+01  1.23755293E+01 -2.47510585E+01  0.00000000E+00
  1.23755293E+01  1.23755293E+01 -2.47510585E+01  0.00000000E+00  1.23755293E+01
  1.23755293E+01 -2.47510585E+01  0.00000000E+00  1.23755293E+01  1.23755293E+01
 -2.47510585E+01  0.00000000E+00  1.23755293E+01  1.23755293E+01 -2.47510585E+01
  0.00000000E+00  1.23755293E+01  1.23755293E+01 -2.47510585E+01  0.00000000E+00
  1.23755293E+01  1.23755293E+01 -2.47510585E+01  0.00000000E+00  1.23755293E+01
  1.23755293E+01 -2.47510585E+01  0.00000000E+00  1.23755293E+01  1.23755293E+01
 -2.47510585E+01  0.00000000E+00  1.23755293E+01  1.23755293E+01 -2.47510585E+01
  0.00000000E+00  1.23755293E+01  1.23755293E+01 -2.47510585E+01  0.00000000E+00
  1.23755293E+01  1.23755293E+01 -2.47510585E+01  0.00000000E+00  1.23755293E+01
  1.23755293E+01 -2.47510585E+01  0.00000000E+00  1.23755293E+01  1.23755293E+01
 -2.47510585E+01  0.00000000E+00  1.23755293E+01  1.23755293E+01 -2.47510585E+01
  0.00000000E+00  1.23755293E+01  1.23755293E+01 -2.47510585E+01  0.00000000E+00
  1.23755293E+01  1.23755293E+01 -2.47510585E+01  0.00000000E+00  1.23755293E+01
  1.23755293E+01 -2.47510585E+01  0.00000000E+00  1.23755293E+01  1.23755293E+01
 -2.47510585E+01  0.00000000E+00  1.23755293E+01  1.23755293E+01 -2.47510585E+01
  0.00000000E+00  1.23755293E+01  1.23755293E+01 -2.47510585E+01  0.00000000E+00
  1.23755293E+01  1.23755293E+01 -2.47510585E+01  0.00000000E+00  1.23755293E+01
  1.23755293E+01 -2.47510585E+01  0.00000000E+00  1.23755293E+01  1.23755293E+01
 -2.47510585E+01  0.00000000E+00  1.23755293E+01  1.23755293E+01 -2.47510585E+01
  0.00000000E+00  1.23755293E+01  1.23755293E+01 -2.47510585E+01  0.00000000E+00
  1.23755293E+01  1.23755293E+01 -2.47510585E+01  0.00000000E+00  1.23755293E+01
  1.23755293E+01 -2.47510585E+01  0.00000000E+00  1.23755293E+01  1.23755293E+01
 -2.47510585E+01  0.00000000E+00  1.23755293E+01  1.23755293E+01 -2.47510585E+01
  0.00000000E+00  1.23755293E+01  1.23755293E+01 -2.47510585E+01  0.00000000E+00
  1.23755293E+01  1.23755293E+01 -2.47510585E+01  0.00000000E+00  1.23755293E+01
  1.23755293E+01 -2.47510585E+01  0.00000000E+00  1.23755293E+01  1.23755293E+01
 -2.47510585E+01  0.00000000E+00  1.23755293E+01  1.23755293E+01 -2.47510585E+01
  0.00000000E+00  1.23755293E+01  1.23755293E+01 -2.47510585E+01  0.00000000E+00
  1.23755293E+01  1.23755293E+01 -2.47510585E+01  0.00000000E+00  1.23755293E+01
  1.23755293E+01 -2.47510585E+01  0.00000000E+00  1.23755293E+01  1.23755293E+01
 -2.47510585E+01  0.00000000E+00  1.23755293E+01  1.23755293E+01 -2.47510585E+01
  0.00000000E+00  1.23755293E+01  1.23755293E+01 -2.47510585E+01  0.00000000E+00
  1.23755293E+01  1.23755293E+01 -2.47510585E+01  0.00000000E+00  1.23755293E+01
  1.23755293E+01 -2.47510585E+01  0.00000000E+00  1.23755293E+01  1.23755293E+01
 -2.47510585E+01  0.00000000E+00  1.23755293E+01  1.23755293E+01 -2.47510585E+01
  0.00000000E+00  1.23755293E+01  1.23755293E+01 -2.47510585E+01  0.00000000E+00
  1.23755293E+01  1.23755293E+01 -2.47510585E+01  0.00000000E+00  1.23755293E+01
  1.23755293E+01 -2.47510585E+01  0.00000000E+00  1.23755293E+01  1.23755293E+01
 -2.47510585E+01  0.00000000E+00  1.23755293E+01  1.23755293E+01 -2.47510585E+01
  0.00000000E+00  1.23755293E+01  1.23755293E+01 -2.47510585E+01  0.00000000E+00
  1.23755293E+01  1.23755293E+01 -2.47510585E+01  0.00000000E+00  1.23755293E+01
  1.23755293E+01 -2.47510585E+01  0.00000000E+00  1.23755293E+01  1.23755293E+01
 -2.47510585E+01  0.00000000E+00  1.23755293E+01  1.23755293E+01 -2.47510585E+01
  0.00000000E+00  1.23755293E+01  1.23755293E+01 -2.47510585E+01  0.00000000E+00
  1.23755293E+01  1.23755293E+01 -2.47510585E+01  0.00000000E+00  1.23755293E+01
  1.23755293E+01 -2.47510585E+01  0.00000000E+00  1.23755293E+01  1.23755293E+01
 -2.47510585E+01  0.00000000E+00  1.23755293E+01  1.23755293E+01 -2.47510585E+01
  0.00000000E+00  1.23755293E+01  1.23755293E+01 -2.47510585E+01  0.00000000E+00
  1.23755293E+01  1.23755293E+01 -2.47510585E+01  0.00000000E+00  1.23755293E+01
  1.23755293E+01 -2.47510585E+01  0.00000000E+00  1.23755293E+01  1.23755293E+01
 -2.47510585E+01  0.00000000E+00  1.23755293E+01  1.23755293E+01 -2.47510585E+01
  0.00000000E+00  1.23755293E+01  1.23755293E+01 -2.47510585E+01  0.00000000E+00
  1.23755293E+01  1.23755293E+01 -2.47510585E+01  0.00000000E+00  1.23755293E+01
  1.23755293E+01 -2.47510585E+01  0.00000000E+00  1.23755293E+01  1.23755293E+01
 -2.47510585E+01  0.00000000E+00  1.23755293E+01  1.23755293E+01 -2.47510585E+01
  0.00000000E+00  1.23755293E+01  1.23755293E+01 -2.47510585E+01  0.00000000E+00
  1.23755293E+01  1.23755293E+01 -2.47510585E+01  0.00000000E+00  1.23755293E+01
  1.23755293E+01 -2.47510585E+01  0.00000000E+00  1.23755293E+01  1.23755293E+01
 -2.47510585E+01  0.00000000E+00  1.23755293E+01  1.23755293E+01 -2.47510585E+01
  0.00000000E+00  1.23755293E+01  1.23755293E+01 -2.47510585E+01  0.00000000E+00
  1.23755293E+01  1.23755293E+01 -2.47510585E+01  0.00000000E+00  1.23755293E+01
  1.23755293E+01 -2.47510585E+01  0.00000000E+00  1.23755293E+01  1.23755293E+01
 -2.47510585E+01  0.00000000E+00  1.23755293E+01  1.23755293E+01 -2.47510585E+01
  0.00000000E+00  1.23755293E+01  1.23755293E+01 -2.47510585E+01  0.00000000E+00
  1.23755293E+01  1.23755293E+01 -2.47510585E+01  0.00000000E+00  1.23755293E+01
  1.23755293E+01 -2.47510585E+01  0.00000000E+00  1.23755293E+01  1.23755293E+01
 -2.47510585E+01  0.00000000E+00  1.23755293E+01  1.23755293E+01 -2.47510585E+01
  0.00000000E+00  1.23755293E+01  1.23755293E+01 -2.47510585E+01  0.00000000E+00
  1.23755293E+01  1.23755293E+01 -2.47510585E+01  0.00000000E+00  1.23755293E+01
  1.23755293E+01 -2.47510585E+01  0.00000000E+00  1.23755293E+01  1.23755293E+01
 -2.47510585E+01  0.00000000E+00  1.23755293E+01  1.23755293E+01 -2.47510585E+01
  0.00000000E+00  1.23755293E+01  1.23755293E+01 -2.47510585E+01  0.00000000E+00
  1.23755293E+01  1.23755293E+01 -2.47510585E+01  0.00000000E+00  1.23755293E+01
  1.23755293E+01 -2.47510585E+01  0.00000000E+00  1.23755293E+01  1.23755293E+01
 -2.47510585E+01  0.00000000E+00  1.23755293E+01  1.23755293E+01 -2.47510585E+01
  0.00000000E+00  1.23755293E+01  1.23755293E+01 -2.47510585E+01  0.00000000E+00
  1.23755293E+01  1.23755293E+01 -2.47510585E+01  0.00000000E+00  1.23755293E+01
  1.23755293E+01 -2.47510585E+01  0.00000000E+00  1.23755293E+01  1.23755293E+01
 -2.47510585E+01  0.00000000E+00  1.23755293E+01  1.23755293E+01 -2.47510585E+01
  0.00000000E+00  1.23755293E+01  1.23755293E+01 -2.47510585E+01  0.00000000E+00
  1.23755293E+01  1.23755293E+01 -2.47510585E+01  0.00000000E+00  1.23755293E+01
  1.23755293E+01 -2.47510585E+01  0.00000000E+00  1.23755293E+01  1.23755293E+01
 -2.47510585E+01  0.00000000E+00  1.23755293E+01  1.23755293E+01 -2.47510585E+01
  0.00000000E+00  1.23755293E+01  1.23755293E+01 -2.47510585E+01  0.00000000E+00
  1.23755293E+01  1.23755293E+01 -2.47510585E+01  0.00000000E+00  1.23755293E+01
  1.23755293E+01 -2.47510585E+01  0.00000000E+00  1.23755293E+01  1.23755293E+01
 -2.47510585E+01  0.00000000E+00  1.23755293E+01  1.23755293E+01 -2.47510585E+01
  0.00000000E+00  1.23755293E+01  1.23755293E+01 -2.47510585E+01  0.00000000E+00
  1.23755293E+01  1.23755293E+01 -2.47510585E+01  0.00000000E+00  1.23755293E+01
  1.23755293E+01 -2.47510585E+01  0.00000000E+00  1.23755293E+01  1.23755293E+01
 -2.47510585E+01  0.00000000E+00  1.23755293E+01  1.23755293E+01 -2.47510585E+01
  0.00000000E+00  1.23755293E+01  1.23755293E+01 -2.47510585E+01  0.00000000E+00
  1.23755293E+01  1.23755293E+01 -2.47510585E+01  0.00000000E+00  1.23755293E+01
  1.23755293E+01 -2.47510585E+01  0.00000000E+00  1.23755293E+01  1.23755293E+01
 -2.47510585E+01  0.00000000E+00  1.23755293E+01  1.23755293E+01 -2.47510585E+01
  0.00000000E+00  1.23755293E+01  1.23755293E+01 -2.47510585E+01  0.00000000E+00
  1.23755293E+01  1.23755293E+01 -2.47510585E+01  0.00000000E+00  1.23755293E+01
  1.23755293E+01 -2.47510585E+01  0.00000000E+00  1.23755293E+01  1.23755293E+01
 -2.47510585E+01  0.00000000E+00  1.23755293E+01  1.23755293E+01 -2.47510585E+01
  0.00000000E+00  1.23755293E+01  1.23755293E+01 -2.47510585E+01  0.00000000E+00
  1.23755293E+01  1.23755293E+01 -2.47510585E+01  0.00000000E+00  1.23755293E+01
  1.23755293E+01 -2.47510585E+01  0.00000000E+00  1.23755293E+01  1.23755293E+01
 -2.47510585E+01  0.00000000E+00  1.23755293E+01  1.23755293E+01 -2.47510585E+01
  0.00000000E+00  1.23755293E+01  1.23755293E+01 -2.47510585E+01  0.00000000E+00
  1.23755293E+01  1.23755293E+01 -2.47510585E+01  0.00000000E+00  1.23755293E+01
  1.23755293E+01 -2.47510585E+01  0.00000000E+00  1.23755293E+01  1.23755293E+01
 -2.47510585E+01  0.00000000E+00  1.23755293E+01  1.23755293E+01 -2.47510585E+01
  0.00000000E+00  1.23755293E+01  1.23755293E+01 -2.47510585E+01  0.00000000E+00
  1.23755293E+01  1.23755293E+01 -2.47510585E+01  0.00000000E+00  1.23755293E+01
  1.23755293E+01 -2.47510585E+01  0.00000000E+00  1.23755293E+01  1.23755293E+01
 -2.47510585E+01  0.00000000E+00  1.23755293E+01  1.23755293E+01 -2.47510585E+01
  0.00000000E+00  1.23755293E+01  1.23755293E+01 -2.47510585E+01  0.00000000E+00
  1.23755293E+01  1.23755293E+01 -2.47510585E+01  0.00000000E+00  1.23755293E+01
  1.23755293E+01 -2.47510585E+01  0.00000000E+00  1.23755293E+01  1.23755293E+01
 -2.47510585E+01  0.00000000E+00  1.23755293E+01  1.23755293E+01 -2.47510585E+01
  0.00000000E+00  1.23755293E+01  1.23755293E+01 -2.47510585E+01  0.00000000E+00
  1.23755293E+01  1.23755293E+01 -2.47510585E+01  0.00000000E+00  1.23755293E+01
  1.23755293E+01 -2.47510585E+01  0.00000000E+00  1.23755293E+01  1.23755293E+01
 -2.47510585E+01  0.00000000E+00  1.23755293E+01  1.23755293E+01 -2.47510585E+01
  0.00000000E+00  1.23755293E+01  1.23755293E+01 -2.47510585E+01  0.00000000E+00
  1.23755293E+01  1.23755293E+01 -2.47510585E+01  0.00000000E+00  1.23755293E+01
  1.23755293E+01 -2.47510585E+01  0.00000000E+00  1.23755293E+01  1.23755293E+01
 -2.47510585E+01  0.00000000E+00  1.23755293E+01  1.23755293E+01 -2.47510585E+01
  0.00000000E+00  1.23755293E+01  1.23755293E+01 -2.47510585E+01  0.00000000E+00
  1.23755293E+01  1.23755293E+01 -2.47510585E+01  0.00000000E+00  1.23755293E+01
  1.23755293E+01 -2.47510585E+01  0.00000000E+00  1.23755293E+01  1.23755293E+01
 -2.47510585E+01  0.00000000E+00  1.23755293E+01  1.23755293E+01 -2.47510585E+01
  0.00000000E+00  1.23755293E+01  1.23755293E+01 -2.47510585E+01  0.00000000E+00
  1.23755293E+01  1.23755293E+01 -2.47510585E+01  0.00000000E+00  1.23755293E+01
  1.23755293E+01 -2.47510585E+01  0.00000000E+00  1.23755293E+01  1.23755293E+01
 -2.47510585E+01  0.00000000E+00  1.23755293E+01  1.23755293E+01 -2.47510585E+01
  0.00000000E+00  1.23755293E+01  1.23755293E+01 -2.47510585E+01  0.00000000E+00
  1.23755293E+01  1.23755293E+01 -2.47510585E+01  0.00000000E+00  1.23755293E+01
  1.23755293E+01 -2.47510585E+01  0.00000000E+00  1.23755293E+01  1.23755293E+01
 -2.47510585E+01  0.00000000E+00  1.23755293E+01  1.23755293E+01 -2.47510585E+01
  0.00000000E+00  1.23755293E+01  1.23755293E+01 -2.47510585E+01  0.00000000E+00
  1.23755293E+01  1.23755293E+01 -2.47510585E+01  0.00000000E+00  1.23755293E+01
  1.23755293E+01 -2.47510585E+01  0.00000000E+00  1.23755293E+01  1.23755293E+01
 -2.47510585E+01  0.00000000E+00  1.23755293E+01  1.23755293E+01 -2.47510585E+01
  0.00000000E+00  1.23755293E+01  1.23755293E+01 -2.47510585E+01  0.00000000E+00
  1.23755293E+01  1.23755293E+01 -2.47510585E+01  0.00000000E+00  1.23755293E+01
  1.23755293E+01 -2.47510585E+01  0.00000000E+00  1.23755293E+01  1.23755293E+01
 -2.47510585E+01  0.00000000E+00  1.23755293E+01  1.23755293E+01 -2.47510585E+01
  0.00000000E+00  1.23755293E+01  1.23755293E+01 -2.47510585E+01  0.00000000E+00
  1.23755293E+01  1.23755293E+01 -2.47510585E+01  0.00000000E+00  1.23755293E+01
  1.23755293E+01 -2.47510585E+01  0.00000000E+00  1.23755293E+01  1.23755293E+01
 -2.47510585E+01  0.00000000E+00  1.23755293E+01  1.23755293E+01 -2.47510585E+01
  0.00000000E+00  1.23755293E+01  1.23755293E+01 -2.47510585E+01  0.00000000E+00
  1.23755293E+01  1.23755293E+01 -2.47510585E+01  0.00000000E+00  1.23755293E+01
  1.23755293E+01 -2.47510585E+01  0.00000000E+00  1.23755293E+01  1.23755293E+01
 -2.47510585E+01  0.00000000E+00  1.23755293E+01  1.23755293E+01 -2.47510585E+01
  0.00000000E+00  1.23755293E+01  1.23755293E+01 -2.47510585E+01  0.00000000E+00
  1.23755293E+01  1.23755293E+01 -2.47510585E+01  0.00000000E+00  1.23755293E+01
  1.23755293E+01 -2.47510585E+01  0.00000000E+00  1.23755293E+01  1.23755293E+01
 -2.47510585E+01  0.00000000E+00  1.23755293E+01  1.23755293E+01 -2.47510585E+01
  0.00000000E+00  1.23755293E+01  1.23755293E+01 -2.47510585E+01  0.00000000E+00
  1.23755293E+01  1.23755293E+01 -2.47510585E+01  0.00000000E+00  1.23755293E+01
  1.23755293E+01 -2.47510585E+01  0.00000000E+00  1.23755293E+01  1.23755293E+01
 -2.47510585E+01  0.00000000E+00  1.23755293E+01  1.23755293E+01 -2.47510585E+01
  0.00000000E+00  1.23755293E+01  1.23755293E+01 -2.47510585E+01  0.00000000E+00
  1.23755293E+01  1.23755293E+01 -2.47510585E+01  0.00000000E+00  1.23755293E+01
  1.23755293E+01 -2.47510585E+01  0.00000000E+00  1.23755293E+01  1.23755293E+01
 -2.47510585E+01  0.00000000E+00  1.23755293E+01  1.23755293E+01 -2.47510585E+01
  0.00000000E+00  1.23755293E+01  1.23755293E+01 -2.47510585E+01  0.00000000E+00
  1.23755293E+01  1.23755293E+01 -2.47510585E+01  0.00000000E+00  1.23755293E+01
  1.23755293E+01 -2.47510585E+01  0.00000000E+00  1.23755293E+01  1.23755293E+01
 -2.47510585E+01  0.00000000E+00  1.23755293E+01  1.23755293E+01 -2.47510585E+01
  0.00000000E+00  1.23755293E+01  1.23755293E+01 -2.47510585E+01  0.00000000E+00
  1.23755293E+01  1.23755293E+01 -2.47510585E+01  0.00000000E+00  1.23755293E+01
  1.23755293E+01 -2.47510585E+01  0.00000000E+00  1.23755293E+01  1.23755293E+01
 -2.47510585E+01  0.00000000E+00  1.23755293E+01  1.23755293E+01 -2.47510585E+01
  0.00000000E+00  1.23755293E+01  1.23755293E+01 -2.47510585E+01  0.00000000E+00
  1.23755293E+01  1.23755293E+01 -2.47510585E+01  0.00000000E+00  1.23755293E+01
  1.23755293E+01 -2.47510585E+01  0.00000000E+00  1.23755293E+01  1.23755293E+01
 -2.47510585E+01  0.00000000E+00  1.23755293E+01  1.23755293E+01 -2.47510585E+01
  0.00000000E+00  1.23755293E+01  1.23755293E+01 -2.47510585E+01  0.00000000E+00
  1.23755293E+01  1.23755293E+01 -2.47510585E+01  0.00000000E+00  1.23755293E+01
  1.23755293E+01 -2.47510585E+01  0.00000000E+00  1.23755293E+01  1.23755293E+01
 -2.47510585E+01  0.00000000E+00  1.23755293E+01  1.23755293E+01 -2.47510585E+01
  0.00000000E+00  1.23755293E+01  1.23755293E+01 -2.47510585E+01  0.00000000E+00
  1.23755293E+01  1.23755293E+01 -2.47510585E+01  0.00000000E+00  1.23755293E+01
  1.23755293E+01 -2.47510585E+01  0.00000000E+00  1.23755293E+01  1.23755293E+01
 -2.47510585E+01  0.00000000E+00  1.23755293E+01  1.23755293E+01 -2.47510585E+01
  0.00000000E+00  1.23755293E+01  1.23755293E+01 -2.47510585E+01  0.00000000E+00
  1.23755293E+01  1.23755293E+01 -2.47510585E+01  0.00000000E+00  1.23755293E+01
  1.23755293E+01 -2.47510585E+01  0.00000000E+00  1.23755293E+01  1.23755293E+01
 -2.47510585E+01  0.00000000E+00  1.23755293E+01  1.23755293E+01 -2.47510585E+01
  0.00000000E+00  1.23755293E+01  1.23755293E+01 -2.47510585E+01  0.00000000E+00
  1.23755293E+01  1.23755293E+01 -2.47510585E+01  0.00000000E+00  1.23755293E+01
  1.23755293E+01 -2.47510585E+01  0.00000000E+00  1.23755293E+01  1.23755293E+01
 -2.47510585E+01  0.00000000E+00  1.23755293E+01  1.23755293E+01 -2.47510585E+01
  0.00000000E+00  1.23755293E+01  1.23755293E+01 -2.47510585E+01  0.00000000E+00
  1.23755293E+01  1.23755293E+01 -2.47510585E+01  0.00000000E+00  1.23755293E+01
  1.23755293E+01 -2.47510585E+01  0.00000000E+00  1.23755293E+01  1.23755293E+01
 -2.47510585E+01  0.00000000E+00  1.23755293E+01  1.23755293E+01 -2.47510585E+01
  0.00000000E+00  1.23755293E+01  1.23755293E+01 -2.47510585E+01  0.00000000E+00
  1.23755293E+01  1.23755293E+01 -2.47510585E+01  0.00000000E+00  1.23755293E+01
  1.23755293E+01 -2.47510585E+01  0.00000000E+00  1.23755293E+01  1.23755293E+01
 -2.47510585E+01  0.00000000E+00  1.23755293E+01  1.23755293E+01 -2.47510585E+01
  0.00000000E+00  1.23755293E+01  1.23755293E+01 -2.47510585E+01  0.00000000E+00
  1.23755293E+01  1.23755293E+01 -2.47510585E+01  0.00000000E+00  1.23755293E+01
  1.23755293E+01 -2.47510585E+01  0.00000000E+00  1.23755293E+01  1.23755293E+01
 -2.47510585E+01  0.00000000E+00  1.23755293E+01  1.23755293E+01 -2.47510585E+01
  0.00000000E+00  1.23755293E+01  1.23755293E+01 -2.47510585E+01  0.00000000E+00
  1.23755293E+01  1.23755293E+01 -2.47510585E+01  0.00000000E+00  1.23755293E+01
  1.23755293E+01 -2.47510585E+01  0.00000000E+00  1.23755293E+01  1.23755293E+01
 -2.47510585E+01  0.00000000E+00  1.23755293E+01  1.23755293E+01 -2.47510585E+01
  0.00000000E+00  1.23755293E+01  1.23755293E+01 -2.47510585E+01  0.00000000E+00
  1.23755293E+01  1.23755293E+01 -2.47510585E+01  0.00000000E+00  1.23755293E+01
  1.23755293E+01 -2.47510585E+01  0.00000000E+00  1.23755293E+01  1.23755293E+01
 -2.47510585E+01  0.00000000E+00  1.23755293E+01  1.23755293E+01 -2.47510585E+01
  0.00000000E+00  1.23755293E+01  1.23755293E+01 -2.47510585E+01  0.00000000E+00
  1.23755293E+01  1.23755293E+01 -2.47510585E+01  0.00000000E+00  1.23755293E+01
  1.23755293E+01 -2.47510585E+01  0.00000000E+00  1.23755293E+01  1.23755293E+01
 -2.47510585E+01  0.00000000E+00  1.23755293E+01  1.23755293E+01 -2.47510585E+01
  0.00000000E+00  1.23755293E+01  1.23755293E+01 -2.47510585E+01  0.00000000E+00
  1.23755293E+01  1.23755293E+01 -2.47510585E+01  0.00000000E+00  1.23755293E+01
  1.23755293E+01 -2.47510585E+01  0.00000000E+00  1.23755293E+01  1.23755293E+01
 -2.47510585E+01  0.00000000E+00  1.23755293E+01  1.23755293E+01 -2.47510585E+01
  0.00000000E+00  1.23755293E+01  1.23755293E+01 -2.47510585E+01  0.00000000E+00
  1.23755293E+01  1.23755293E+01 -2.47510585E+01  0.00000000E+00  1.23755293E+01
  1.23755293E+01 -2.47510585E+01  0.00000000E+00  1.23755293E+01  1.23755293E+01
 -2.47510585E+01  0.00000000E+00  1.23755293E+01  1.23755293E+01 -2.47510585E+01
  0.00000000E+00  1.23755293E+01  1.23755293E+01 -2.47510585E+01  0.00000000E+00
  1.23755293E+01  1.23755293E+01 -2.47510585E+01  0.00000000E+00  1.23755293E+01
  1.23755293E+01 -2.47510585E+01  0.00000000E+00  1.23755293E+01  1.23755293E+01
 -2.47510585E+01  0.00000000E+00  1.23755293E+01  1.23755293E+01 -2.47510585E+01
  0.00000000E+00  1.23755293E+01  1.23755293E+01 -2.47510585E+01  0.00000000E+00
  1.23755293E+01  1.23755293E+01 -2.47510585E+01  0.00000000E+00  1.23755293E+01
  1.23755293E+01 -2.47510585E+01  0.00000000E+00  1.23755293E+01  1.23755293E+01
 -2.47510585E+01  0.00000000E+00  1.23755293E+01  1.23755293E+01 -2.47510585E+01
  0.00000000E+00  1.23755293E+01  1.23755293E+01 -2.47510585E+01  0.00000000E+00
  1.23755293E+01  1.23755293E+01 -2.47510585E+01  0.00000000E+00  1.23755293E+01
  1.23755293E+01 -2.47510585E+01  0.00000000E+00  1.23755293E+01  1.23755293E+01
 -2.47510585E+01  0.00000000E+00  1.23755293E+01  1.23755293E+01 -2.47510585E+01
  0.00000000E+00  1.23755293E+01  1.23755293E+01 -2.47510585E+01  0.00000000E+00
  1.23755293E+01  1.23755293E+01 -2.47510585E+01  0.00000000E+00  1.23755293E+01
  1.23755293E+01 -2.47510585E+01  0.00000000E+00  1.23755293E+01  1.23755293E+01
 -2.47510585E+01  0.00000000E+00  1.23755293E+01  1.23755293E+01 -2.47510585E+01
  0.00000000E+00  1.23755293E+01  1.23755293E+01 -2.47510585E+01  0.00000000E+00
  1.23755293E+01  1.23755293E+01 -2.47510585E+01  0.00000000E+00  1.23755293E+01
  1.23755293E+01 -2.47510585E+01  0.00000000E+00  1.23755293E+01  1.23755293E+01
 -2.47510585E+01  0.00000000E+00  1.23755293E+01  1.23755293E+01 -2.47510585E+01
  0.00000000E+00  1.23755293E+01  1.23755293E+01 -2.47510585E+01  0.00000000E+00
  1.23755293E+01  1.23755293E+01 -2.47510585E+01  0.00000000E+00  1.23755293E+01
  1.23755293E+01 -2.47510585E+01  0.00000000E+00  1.23755293E+01  1.23755293E+01
 -2.47510585E+01  0.00000000E+00  1.23755293E+01  1.23755293E+01 -2.47510585E+01
  0.00000000E+00  1.23755293E+01  1.23755293E+01 -2.47510585E+01  0.00000000E+00
  1.23755293E+01  1.23755293E+01 -2.47510585E+01  0.00000000E+00  1.23755293E+01
  1.23755293E+01 -2.47510585E+01  0.00000000E+00  1.23755293E+01  1.23755293E+01
 -2.47510585E+01  0.00000000E+00  1.23755293E+01  1.23755293E+01 -2.47510585E+01
  0.00000000E+00  1.23755293E+01  1.23755293E+01 -2.47510585E+01  0.00000000E+00
  1.23755293E+01  1.23755293E+01 -2.47510585E+01  0.00000000E+00  1.23755293E+01
  1.23755293E+01 -2.47510585E+01  0.00000000E+00  1.23755293E+01  1.23755293E+01
 -2.47510585E+01  0.00000000E+00  1.23755293E+01  1.23755293E+01 -2.47510585E+01
  0.00000000E+00  1.23755293E+01  1.23755293E+01 -2.47510585E+01  0.00000000E+00
  1.23755293E+01  1.23755293E+01 -2.47510585E+01  0.00000000E+00  1.23755293E+01
  1.23755293E+01 -2.47510585E+01  0.00000000E+00  1.23755293E+01  1.23755293E+01
 -2.47510585E+01  0.00000000E+00  1.23755293E+01  1.23755293E+01 -2.47510585E+01
  0.00000000E+00  1.23755293E+01  1.23755293E+01 -2.47510585E+01  0.00000000E+00
  1.23755293E+01  1.23755293E+01 -2.47510585E+01  0.00000000E+00  1.23755293E+01
  1.23755293E+01 -2.47510585E+01  0.00000000E+00  1.23755293E+01  1.23755293E+01
 -2.47510585E+01  0.00000000E+00  1.23755293E+01  1.23755293E+01 -2.47510585E+01
  0.00000000E+00  1.23755293E+01  1.23755293E+01 -2.47510585E+01  0.00000000E+00
  1.23755293E+01  1.23755293E+01 -2.47510585E+01  0.00000000E+00  1.23755293E+01
  1.23755293E+01 -2.47510585E+01  0.00000000E+00  1.23755293E+01  1.23755293E+01
 -2.47510585E+01  0.00000000E+00  1.23755293E+01  1.23755293E+01 -2.47510585E+01
  0.00000000E+00  1.23755293E+01  1.23755293E+01 -2.47510585E+01  0.00000000E+00
  1.23755293E+01  1.23755293E+01 -2.47510585E+01  0.00000000E+00  1.23755293E+01
  1.23755293E+01 -2.47510585E+01  0.00000000E+00  1.23755293E+01  1.23755293E+01
 -2.47510585E+01  0.00000000E+00  1.23755293E+01  1.23755293E+01 -2.47510585E+01
  0.00000000E+00  1.23755293E+01  1.23755293E+01 -2.47510585E+01  0.00000000E+00
  1.23755293E+01  1.23755293E+01 -2.47510585E+01  0.00000000E+00  1.23755293E+01
  1.23755293E+01 -2.47510585E+01  0.00000000E+00  1.23755293E+01  1.23755293E+01
 -2.47510585E+01  0.00000000E+00  1.23755293E+01  1.23755293E+01 -2.47510585E+01
  0.00000000E+00  1.23755293E+01  1.23755293E+01 -2.47510585E+01  0.00000000E+00
  1.23755293E+01  1.23755293E+01 -2.47510585E+01  0.00000000E+00  1.23755293E+01
  1.23755293E+01 -2.47510585E+01  0.00000000E+00  1.23755293E+01  1.23755293E+01
 -2.47510585E+01  0.00000000E+00  1.23755293E+01  1.23755293E+01 -2.47510585E+01
  0.00000000E+00  1.23755293E+01  1.23755293E+01 -2.47510585E+01  0.00000000E+00
  1.23755293E+01  1.23755293E+01 -2.47510585E+01  0.00000000E+00  1.23755293E+01
  1.23755293E+01 -2.47510585E+01  0.00000000E+00  1.23755293E+01  1.23755293E+01
 -2.47510585E+01  0.00000000E+00  1.23755293E+01  1.23755293E+01 -2.47510585E+01
  0.00000000E+00  1.23755293E+01  1.23755293E+01 -2.47510585E+01  0.00000000E+00
  1.23755293E+01  1.23755293E+01 -2.47510585E+01  0.00000000E+00  1.23755293E+01
  1.23755293E+01 -2.47510585E+01  0.00000000E+00  1.23755293E+01  1.23755293E+01
 -2.47510585E+01  0.00000000E+00  1.23755293E+01  1.23755293E+01 -2.47510585E+01
  0.00000000E+00  1.23755293E+01  1.23755293E+01 -2.47510585E+01  0.00000000E+00
  1.23755293E+01  1.23755293E+01 -2.47510585E+01  0.00000000E+00  1.23755293E+01
  1.23755293E+01 -2.47510585E+01  0.00000000E+00  1.23755293E+01  1.23755293E+01
 -2.47510585E+01  0.00000000E+00  1.23755293E+01  1.23755293E+01 -2.47510585E+01
  0.00000000E+00  1.23755293E+01  1.23755293E+01 -2.47510585E+01  0.00000000E+00
  1.23755293E+01  1.23755293E+01 -2.47510585E+01  0.00000000E+00  1.23755293E+01
  1.23755293E+01 -2.47510585E+01  0.00000000E+00  1.23755293E+01  1.23755293E+01
 -2.47510585E+01  0.00000000E+00  1.23755293E+01  1.23755293E+01 -2.47510585E+01
  0.00000000E+00  1.23755293E+01  1.23755293E+01 -2.47510585E+01  0.00000000E+00
  1.23755293E+01  1.23755293E+01 -2.47510585E+01  0.00000000E+00  1.23755293E+01
  1.23755293E+01 -2.47510585E+01  0.00000000E+00  1.23755293E+01  1.23755293E+01
 -2.47510585E+01  0.00000000E+00  1.23755293E+01  1.23755293E+01 -2.47510585E+01
  0.00000000E+00  1.23755293E+01  1.23755293E+01 -2.47510585E+01  0.00000000E+00
  1.23755293E+01  1.23755293E+01 -2.47510585E+01  0.00000000E+00  1.23755293E+01
  1.23755293E+01 -2.47510585E+01  0.00000000E+00  1.23755293E+01  1.23755293E+01
 -2.47510585E+01  0.00000000E+00  1.23755293E+01  1.23755293E+01 -2.47510585E+01
  0.00000000E+00  1.23755293E+01  1.23755293E+01 -2.47510585E+01  0.00000000E+00
  1.23755293E+01  1.23755293E+01 -2.47510585E+01  0.00000000E+00  1.23755293E+01
  1.23755293E+01 -2.47510585E+01  0.00000000E+00  1.23755293E+01  1.23755293E+01
 -2.47510585E+01  0.00000000E+00  1.23755293E+01  1.23755293E+01 -2.47510585E+01
  0.00000000E+00  1.23755293E+01  1.23755293E+01 -2.47510585E+01  0.00000000E+00
  1.23755293E+01  1.23755293E+01 -2.47510585E+01  0.00000000E+00  1.23755293E+01
  1.23755293E+01 -2.47510585E+01  0.00000000E+00  1.23755293E+01  1.23755293E+01
 -2.47510585E+01  0.00000000E+00  1.23755293E+01  1.23755293E+01 -2.47510585E+01
  0.00000000E+00  1.23755293E+01  1.23755293E+01 -2.47510585E+01  0.00000000E+00
  1.23755293E+01  1.23755293E+01 -2.47510585E+01  0.00000000E+00  1.23755293E+01
  1.23755293E+01 -2.47510585E+01  0.00000000E+00  1.23755293E+01  1.23755293E+01
 -2.47510585E+01  0.00000000E+00  1.23755293E+01  1.23755293E+01 -2.47510585E+01
  0.00000000E+00  1.23755293E+01  1.23755293E+01 -2.47510585E+01  0.00000000E+00
  1.23755293E+01  1.23755293E+01 -2.47510585E+01  0.00000000E+00  1.23755293E+01
  1.23755293E+01 -2.47510585E+01  0.00000000E+00  1.23755293E+01  1.23755293E+01
 -2.47510585E+01  0.00000000E+00  1.23755293E+01  1.23755293E+01 -2.47510585E+01
  0.00000000E+00  1.23755293E+01  1.23755293E+01 -2.47510585E+01  0.00000000E+00
  1.23755293E+01  1.23755293E+01 -2.47510585E+01  0.00000000E+00  1.23755293E+01
  1.23755293E+01 -2.47510585E+01  0.00000000E+00  1.23755293E+01  1.23755293E+01
 -2.47510585E+01  0.00000000E+00  1.23755293E+01  1.23755293E+01 -2.47510585E+01
  0.00000000E+00  1.23755293E+01  1.23755293E+01 -2.47510585E+01  0.00000000E+00
  1.23755293E+01  1.23755293E+01 -2.47510585E+01  0.00000000E+00  1.23755293E+01
  1.23755293E+01 -2.47510585E+01  0.00000000E+00  1.23755293E+01  1.23755293E+01
 -2.47510585E+01  0.00000000E+00  1.23755293E+01  1.23755293E+01 -2.47510585E+01
  0.00000000E+00  1.23755293E+01  1.23755293E+01 -2.47510585E+01  0.00000000E+00
  1.23755293E+01  1.23755293E+01 -2.47510585E+01  0.00000000E+00  1.23755293E+01
  1.23755293E+01 -2.47510585E+01  0.00000000E+00  1.23755293E+01  1.23755293E+01
 -2.47510585E+01  0.00000000E+00  1.23755293E+01  1.23755293E+01 -2.47510585E+01
  0.00000000E+00  1.23755293E+01  1.23755293E+01 -2.47510585E+01  0.00000000E+00
  1.23755293E+01  1.23755293E+01 -2.47510585E+01  0.00000000E+00  1.23755293E+01
  1.23755293E+01 -2.47510585E+01  0.00000000E+00  1.23755293E+01  1.23755293E+01
 -2.47510585E+01  0.00000000E+00  1.23755293E+01  1.23755293E+01 -2.47510585E+01
  0.00000000E+00  1.23755293E+01  1.23755293E+01 -2.47510585E+01  0.00000000E+00
  1.23755293E+01  1.23755293E+01 -2.47510585E+01  0.00000000E+00  1.23755293E+01
  1.23755293E+01 -2.47510585E+01  0.00000000E+00  1.23755293E+01  1.23755293E+01
 -2.47510585E+01  0.00000000E+00  1.23755293E+01  1.23755293E+01 -2.47510585E+01
  0.00000000E+00  1.23755293E+01  1.23755293E+01 -2.47510585E+01  0.00000000E+00
  1.23755293E+01  1.23755293E+01 -2.47510585E+01  0.00000000E+00  1.23755293E+01
  1.23755293E+01 -2.47510585E+01  0.00000000E+00  1.23755293E+01  1.23755293E+01
 -2.47510585E+01  0.00000000E+00  1.23755293E+01  1.23755293E+01 -2.47510585E+01
  0.00000000E+00  1.23755293E+01  1.23755293E+01 -2.47510585E+01  0.00000000E+00
  1.23755293E+01  1.23755293E+01 -2.47510585E+01  0.00000000E+00  1.23755293E+01
  1.23755293E+01 -2.47510585E+01  0.00000000E+00  1.23755293E+01  1.23755293E+01
 -2.47510585E+01  0.00000000E+00  1.23755293E+01  1.23755293E+01 -2.47510585E+01
  0.00000000E+00  1.23755293E+01  1.23755293E+01 -2.47510585E+01  0.00000000E+00
  1.23755293E+01  1.23755293E+01 -2.47510585E+01  0.00000000E+00  1.23755293E+01
  1.23755293E+01 -2.47510585E+01  0.00000000E+00  1.23755293E+01  1.23755293E+01
 -2.47510585E+01  0.00000000E+00  1.23755293E+01  1.23755293E+01 -2.47510585E+01
  0.00000000E+00  1.23755293E+01  1.23755293E+01 -2.47510585E+01  0.00000000E+00
  1.23755293E+01  1.23755293E+01 -2.47510585E+01  0.00000000E+00  1.23755293E+01
  1.23755293E+01 -2.47510585E+01  0.00000000E+00  1.23755293E+01  1.23755293E+01
 -2.47510585E+01  0.00000000E+00  1.23755293E+01  1.23755293E+01 -2.47510585E+01
  0.00000000E+00  1.23755293E+01  1.23755293E+01 -2.47510585E+01  0.00000000E+00
  1.23755293E+01  1.23755293E+01 -2.47510585E+01  0.00000000E+00  1.23755293E+01
  1.23755293E+01 -2.47510585E+01  0.00000000E+00  1.23755293E+01  1.23755293E+01
 -2.47510585E+01  0.00000000E+00  1.23755293E+01  1.23755293E+01 -2.47510585E+01
  0.00000000E+00  1.23755293E+01  1.23755293E+01 -2.47510585E+01  0.00000000E+00
  1.23755293E+01  1.23755293E+01 -2.47510585E+01  0.00000000E+00  1.23755293E+01
  1.23755293E+01 -2.47510585E+01  0.00000000E+00  1.23755293E+01  1.23755293E+01
 -2.47510585E+01  0.00000000E+00  1.23755293E+01  1.23755293E+01 -2.47510585E+01
  0.00000000E+00  1.23755293E+01  1.23755293E+01 -2.47510585E+01  0.00000000E+00
  1.23755293E+01  1.23755293E+01 -2.47510585E+01  0.00000000E+00  1.23755293E+01
  1.23755293E+01 -2.47510585E+01  0.00000000E+00  1.23755293E+01  1.23755293E+01
 -2.47510585E+01  0.00000000E+00  1.23755293E+01  1.23755293E+01 -2.47510585E+01
  0.00000000E+00  1.23755293E+01  1.23755293E+01 -2.47510585E+01  0.00000000E+00
  1.23755293E+01  1.23755293E+01 -2.47510585E+01  0.00000000E+00  1.23755293E+01
  1.23755293E+01 -2.47510585E+01  0.00000000E+00  1.23755293E+01  1.23755293E+01
 -2.47510585E+01  0.00000000E+00  1.23755293E+01  1.23755293E+01 -2.47510585E+01
  0.00000000E+00  1.23755293E+01  1.23755293E+01 -2.47510585E+01  0.00000000E+00
  1.23755293E+01  1.23755293E+01 -2.47510585E+01  0.00000000E+00  1.23755293E+01
  1.23755293E+01 -2.47510585E+01  0.00000000E+00  1.23755293E+01  1.23755293E+01
 -2.47510585E+01  0.00000000E+00  1.23755293E+01  1.23755293E+01 -2.47510585E+01
  0.00000000E+00  1.23755293E+01  1.23755293E+01 -2.47510585E+01  0.00000000E+00
  1.23755293E+01  1.23755293E+01 -2.47510585E+01  0.00000000E+00  1.23755293E+01
  1.23755293E+01 -2.47510585E+01  0.00000000E+00  1.23755293E+01  1.23755293E+01
 -2.47510585E+01  0.00000000E+00  1.23755293E+01  1.23755293E+01 -2.47510585E+01
  0.00000000E+00  1.23755293E+01  1.23755293E+01 -2.47510585E+01  0.00000000E+00
  1.23755293E+01  1.23755293E+01 -2.47510585E+01  0.00000000E+00  1.23755293E+01
  1.23755293E+01 -2.47510585E+01  0.00000000E+00  1.23755293E+01  1.23755293E+01
 -2.47510585E+01  0.00000000E+00  1.23755293E+01  1.23755293E+01 -2.47510585E+01
  0.00000000E+00  1.23755293E+01  1.23755293E+01 -2.47510585E+01  0.00000000E+00
  1.23755293E+01  1.23755293E+01 -2.47510585E+01  0.00000000E+00  1.23755293E+01
  1.23755293E+01 -2.47510585E+01  0.00000000E+00  1.23755293E+01  1.23755293E+01
 -2.47510585E+01  0.00000000E+00  1.23755293E+01  1.23755293E+01 -2.47510585E+01
  0.00000000E+00  1.23755293E+01  1.23755293E+01 -2.47510585E+01  0.00000000E+00
  1.23755293E+01  1.23755293E+01 -2.47510585E+01  0.00000000E+00  1.23755293E+01
  1.23755293E+01 -2.47510585E+01  0.00000000E+00  1.23755293E+01  1.23755293E+01
 -2.47510585E+01  0.00000000E+00  1.23755293E+01  1.23755293E+01 -2.47510585E+01
  0.00000000E+00  1.23755293E+01  1.23755293E+01 -2.47510585E+01  0.00000000E+00
  1.23755293E+01  1.23755293E+01 -2.47510585E+01  0.00000000E+00  1.23755293E+01
  1.23755293E+01 -2.47510585E+01  0.00000000E+00  1.23755293E+01  1.23755293E+01
 -2.47510585E+01  0.00000000E+00  1.23755293E+01  1.23755293E+01 -2.47510585E+01
  0.00000000E+00  1.23755293E+01  1.23755293E+01 -2.47510585E+01  0.00000000E+00
  1.23755293E+01  1.23755293E+01 -2.47510585E+01  0.00000000E+00  1.23755293E+01
  1.23755293E+01 -2.47510585E+01  0.00000000E+00  1.23755293E+01  1.23755293E+01
 -2.47510585E+01  0.00000000E+00  1.23755293E+01  1.23755293E+01 -2.47510585E+01
  0.00000000E+00  1.23755293E+01  1.23755293E+01 -2.47510585E+01  0.00000000E+00
  1.23755293E+01  1.23755293E+01 -2.47510585E+01  0.00000000E+00  1.23755293E+01
  1.23755293E+01 -2.47510585E+01  0.00000000E+00  1.23755293E+01  1.23755293E+01
 -2.47510585E+01  0.00000000E+00  1.23755293E+01  1.23755293E+01 -2.47510585E+01
  0.00000000E+00  1.23755293E+01  1.23755293E+01 -2.47510585E+01  0.00000000E+00
  1.23755293E+01  1.23755293E+01 -2.47510585E+01  0.00000000E+00  1.23755293E+01
  1.23755293E+01 -2.47510585E+01  0.00000000E+00  1.23755293E+01  1.23755293E+01
 -2.47510585E+01  0.00000000E+00  1.23755293E+01  1.23755293E+01 -2.47510585E+01
  0.00000000E+00  1.23755293E+01  1.23755293E+01 -2.47510585E+01  0.00000000E+00
  1.23755293E+01  1.23755293E+01 -2.47510585E+01  0.00000000E+00  1.23755293E+01
  1.23755293E+01 -2.47510585E+01  0.00000000E+00  1.23755293E+01  1.23755293E+01
 -2.47510585E+01  0.00000000E+00  1.23755293E+01  1.23755293E+01 -2.47510585E+01
  0.00000000E+00  1.23755293E+01  1.23755293E+01 -2.47510585E+01  0.00000000E+00
  1.23755293E+01  1.23755293E+01 -2.47510585E+01  0.00000000E+00  1.23755293E+01
  1.23755293E+01 -2.47510585E+01  0.00000000E+00  1.23755293E+01  1.23755293E+01
 -2.47510585E+01  0.00000000E+00  1.23755293E+01  1.23755293E+01 -2.47510585E+01
  0.00000000E+00  1.23755293E+01  1.23755293E+01 -2.47510585E+01  0.00000000E+00
  1.23755293E+01  1.23755293E+01 -2.47510585E+01  0.00000000E+00  1.23755293E+01
  1.23755293E+01 -2.47510585E+01  0.00000000E+00  1.23755293E+01  1.23755293E+01
 -2.47510585E+01  0.00000000E+00  1.23755293E+01  1.23755293E+01 -2.47510585E+01
  0.00000000E+00  1.23755293E+01  1.23755293E+01 -2.47510585E+01  0.00000000E+00
  1.23755293E+01  1.23755293E+01 -2.47510585E+01  0.00000000E+00  1.23755293E+01
  1.23755293E+01 -2.47510585E+01  0.00000000E+00  1.23755293E+01  1.23755293E+01
 -2.47510585E+01  0.00000000E+00  1.23755293E+01  1.23755293E+01 -2.47510585E+01
  0.00000000E+00  1.23755293E+01  1.23755293E+01 -2.47510585E+01  0.00000000E+00
  1.23755293E+01  1.23755293E+01 -2.47510585E+01  0.00000000E+00  1.23755293E+01
  1.23755293E+01 -2.47510585E+01  0.00000000E+00  1.23755293E+01  1.23755293E+01
 -2.47510585E+01  0.00000000E+00  1.23755293E+01  1.23755293E+01 -2.47510585E+01
  0.00000000E+00  1.23755293E+01  1.23755293E+01 -2.47510585E+01  0.00000000E+00
  1.23755293E+01  1.23755293E+01 -2.47510585E+01  0.00000000E+00  1.23755293E+01
  1.23755293E+01 -2.47510585E+01  0.00000000E+00  1.23755293E+01  1.23755293E+01
 -2.47510585E+01  0.00000000E+00  1.23755293E+01  1.23755293E+01 -2.47510585E+01
  0.00000000E+00  1.23755293E+01  1.23755293E+01 -2.47510585E+01  0.00000000E+00
  1.23755293E+01  1.23755293E+01 -2.47510585E+01  0.00000000E+00  1.23755293E+01
  1.23755293E+01 -2.47510585E+01  0.00000000E+00  1.23755293E+01  1.23755293E+01
 -2.47510585E+01  0.00000000E+00  1.23755293E+01  1.23755293E+01 -2.47510585E+01
  0.00000000E+00  1.23755293E+01  1.23755293E+01 -2.47510585E+01  0.00000000E+00
  1.23755293E+01  1.23755293E+01 -2.47510585E+01  0.00000000E+00  1.23755293E+01
  1.23755293E+01 -2.47510585E+01  0.00000000E+00  1.23755293E+01  1.23755293E+01
 -2.47510585E+01  0.00000000E+00  1.23755293E+01  1.23755293E+01 -2.47510585E+01
  0.00000000E+00  1.23755293E+01  1.23755293E+01 -2.47510585E+01  0.00000000E+00
  1.23755293E+01  1.23755293E+01 -2.47510585E+01  0.00000000E+00  1.23755293E+01
  1.23755293E+01 -2.47510585E+01  0.00000000E+00  1.23755293E+01  1.23755293E+01
 -2.47510585E+01  0.00000000E+00  1.23755293E+01  1.23755293E+01 -2.47510585E+01
  0.00000000E+00  1.23755293E+01  1.23755293E+01 -2.47510585E+01  0.00000000E+00
  1.23755293E+01  1.23755293E+01 -2.47510585E+01  0.00000000E+00  1.23755293E+01
  1.23755293E+01 -2.47510585E+01  0.00000000E+00  1.23755293E+01  1.23755293E+01
 -2.47510585E+01  0.00000000E+00  1.23755293E+01  1.23755293E+01 -2.47510585E+01
  0.00000000E+00  1.23755293E+01  1.23755293E+01 -2.47510585E+01  0.00000000E+00
  1.23755293E+01  1.23755293E+01 -2.47510585E+01  0.00000000E+00  1.23755293E+01
  1.23755293E+01 -2.47510585E+01  0.00000000E+00  1.23755293E+01  1.23755293E+01
 -2.47510585E+01  0.00000000E+00  1.23755293E+01  1.23755293E+01 -2.47510585E+01
  0.00000000E+00  1.23755293E+01  1.23755293E+01 -2.47510585E+01  0.00000000E+00
  1.23755293E+01  1.23755293E+01 -2.47510585E+01  0.00000000E+00  1.23755293E+01
  1.23755293E+01 -2.47510585E+01  0.00000000E+00  1.23755293E+01  1.23755293E+01
 -2.47510585E+01  0.00000000E+00  1.23755293E+01  1.23755293E+01 -2.47510585E+01
  0.00000000E+00  1.23755293E+01  1.23755293E+01 -2.47510585E+01  0.00000000E+00
  1.23755293E+01  1.23755293E+01 -2.47510585E+01  0.00000000E+00  1.23755293E+01
  1.23755293E+01 -2.47510585E+01  0.00000000E+00  1.23755293E+01  1.23755293E+01
 -2.47510585E+01  0.00000000E+00  1.23755293E+01  1.23755293E+01 -2.47510585E+01
  0.00000000E+00  1.23755293E+01  1.23755293E+01 -2.47510585E+01  0.00000000E+00
  1.23755293E+01  1.23755293E+01 -2.47510585E+01  0.00000000E+00  1.23755293E+01
  1.23755293E+01 -2.47510585E+01  0.00000000E+00  1.23755293E+01  1.23755293E+01
 -2.47510585E+01  0.00000000E+00  1.23755293E+01  1.23755293E+01 -2.47510585E+01
  0.00000000E+00  1.23755293E+01  1.23755293E+01 -2.47510585E+01  0.00000000E+00
  1.23755293E+01  1.23755293E+01 -2.47510585E+01  0.00000000E+00  1.23755293E+01
  1.23755293E+01 -2.47510585E+01  0.00000000E+00  1.23755293E+01  1.23755293E+01
 -2.47510585E+01  0.00000000E+00  1.23755293E+01  1.23755293E+01 -2.47510585E+01
  0.00000000E+00  1.23755293E+01  1.23755293E+01 -2.47510585E+01  0.00000000E+00
  1.23755293E+01  1.23755293E+01 -2.47510585E+01  0.00000000E+00  1.23755293E+01
  1.23755293E+01 -2.47510585E+01  0.00000000E+00  1.23755293E+01  1.23755293E+01
 -2.47510585E+01  0.00000000E+00  1.23755293E+01  1.23755293E+01 -2.47510585E+01
  0.00000000E+00  1.23755293E+01  1.23755293E+01 -2.47510585E+01  0.00000000E+00
  1.23755293E+01  1.23755293E+01 -2.47510585E+01  0.00000000E+00  1.23755293E+01
  1.23755293E+01 -2.47510585E+01  0.00000000E+00  1.23755293E+01  1.23755293E+01
 -2.47510585E+01  0.00000000E+00  1.23755293E+01  1.23755293E+01 -2.47510585E+01
  0.00000000E+00  1.23755293E+01  1.23755293E+01 -2.47510585E+01  0.00000000E+00
  1.23755293E+01  1.23755293E+01 -2.47510585E+01  0.00000000E+00  1.23755293E+01
  1.23755293E+01 -2.47510585E+01  0.00000000E+00  1.23755293E+01  1.23755293E+01
 -2.47510585E+01  0.00000000E+00  1.23755293E+01  1.23755293E+01 -2.47510585E+01
  0.00000000E+00  1.23755293E+01  1.23755293E+01 -2.47510585E+01  0.00000000E+00
  1.23755293E+01  1.23755293E+01 -2.47510585E+01  0.00000000E+00  1.23755293E+01
  1.23755293E+01 -2.47510585E+01  0.00000000E+00  1.23755293E+01  1.23755293E+01
 -2.47510585E+01  0.00000000E+00  1.23755293E+01  1.23755293E+01 -2.47510585E+01
  0.00000000E+00  1.23755293E+01  1.23755293E+01 -2.47510585E+01  0.00000000E+00
  1.23755293E+01  1.23755293E+01 -2.47510585E+01  0.00000000E+00  1.23755293E+01
  1.23755293E+01 -2.47510585E+01  0.00000000E+00  1.23755293E+01  1.23755293E+01
 -2.47510585E+01  0.00000000E+00  1.23755293E+01  1.23755293E+01 -2.47510585E+01
  0.00000000E+00  1.23755293E+01  1.23755293E+01 -2.47510585E+01  0.00000000E+00
  1.23755293E+01  1.23755293E+01 -2.47510585E+01  0.00000000E+00  1.23755293E+01
  1.23755293E+01 -2.47510585E+01  0.00000000E+00  1.23755293E+01  1.23755293E+01
 -2.47510585E+01  0.00000000E+00  1.23755293E+01  1.23755293E+01 -2.47510585E+01
  0.00000000E+00  1.23755293E+01  1.23755293E+01 -2.47510585E+01  0.00000000E+00
  1.23755293E+01  1.23755293E+01 -2.47510585E+01  0.00000000E+00  1.23755293E+01
  1.23755293E+01 -2.47510585E+01  0.00000000E+00  1.23755293E+01  1.23755293E+01
 -2.47510585E+01  0.00000000E+00  1.23755293E+01  1.23755293E+01 -2.47510585E+01
  0.00000000E+00  1.23755293E+01  1.23755293E+01 -2.47510585E+01  0.00000000E+00
  1.23755293E+01  1.23755293E+01 -2.47510585E+01  0.00000000E+00  1.23755293E+01
  1.23755293E+01 -2.47510585E+01  0.00000000E+00  1.23755293E+01  1.23755293E+01
 -2.47510585E+01  0.00000000E+00  1.23755293E+01  1.23755293E+01 -2.47510585E+01
  0.00000000E+00  1.23755293E+01  1.23755293E+01 -2.47510585E+01  0.00000000E+00
  1.23755293E+01  1.23755293E+01 -2.47510585E+01  0.00000000E+00  1.23755293E+01
  1.23755293E+01 -2.47510585E+01  0.00000000E+00  1.23755293E+01  1.23755293E+01
 -2.47510585E+01  0.00000000E+00  1.23755293E+01  1.23755293E+01 -2.47510585E+01
  0.00000000E+00  1.23755293E+01  1.23755293E+01 -2.47510585E+01  0.00000000E+00
  1.23755293E+01  1.23755293E+01 -2.47510585E+01  0.00000000E+00  1.23755293E+01
  1.23755293E+01 -2.47510585E+01  0.00000000E+00  1.23755293E+01  1.23755293E+01
 -2.47510585E+01  0.00000000E+00  1.23755293E+01  1.23755293E+01 -2.47510585E+01
  0.00000000E+00  1.23755293E+01  1.23755293E+01 -2.47510585E+01  0.00000000E+00
  1.23755293E+01  1.23755293E+01 -2.47510585E+01  0.00000000E+00  1.23755293E+01
  1.23755293E+01 -2.47510585E+01  0.00000000E+00  1.23755293E+01  1.23755293E+01
 -2.47510585E+01  0.00000000E+00  1.23755293E+01  1.23755293E+01 -2.47510585E+01
  0.00000000E+00  1.23755293E+01  1.23755293E+01 -2.47510585E+01  0.00000000E+00
  1.23755293E+01  1.23755293E+01 -2.47510585E+01  0.00000000E+00  1.23755293E+01
  1.23755293E+01 -2.47510585E+01  0.00000000E+00  1.23755293E+01  1.23755293E+01
 -2.47510585E+01  0.00000000E+00  1.23755293E+01  1.23755293E+01 -2.47510585E+01
  0.00000000E+00  1.23755293E+01  1.23755293E+01 -2.47510585E+01  0.00000000E+00
  1.23755293E+01  1.23755293E+01 -2.47510585E+01  0.00000000E+00  1.23755293E+01
  1.23755293E+01 -2.47510585E+01  0.00000000E+00  1.23755293E+01  1.23755293E+01
 -2.47510585E+01  0.00000000E+00  1.23755293E+01  1.23755293E+01 -2.47510585E+01
  0.00000000E+00  1.23755293E+01  1.23755293E+01 -2.47510585E+01  0.00000000E+00
  1.23755293E+01  1.23755293E+01 -2.47510585E+01  0.00000000E+00  1.23755293E+01
  1.23755293E+01 -2.47510585E+01  0.00000000E+00  1.23755293E+01  1.23755293E+01
 -2.47510585E+01  0.00000000E+00  1.23755293E+01  1.23755293E+01 -2.47510585E+01
  0.00000000E+00  1.23755293E+01  1.23755293E+01 -2.47510585E+01  0.00000000E+00
  1.23755293E+01  1.23755293E+01 -2.47510585E+01  0.00000000E+00  1.23755293E+01
  1.23755293E+01 -2.47510585E+01  0.00000000E+00  1.23755293E+01  1.23755293E+01
 -2.47510585E+01  0.00000000E+00  1.23755293E+01  1.23755293E+01 -2.47510585E+01
  0.00000000E+00  1.23755293E+01  1.23755293E+01 -2.47510585E+01  0.00000000E+00
  1.23755293E+01  1.23755293E+01 -2.47510585E+01  0.00000000E+00  1.23755293E+01
  1.23755293E+01 -2.47510585E+01  0.00000000E+00  1.23755293E+01  1.23755293E+01
 -2.47510585E+01  0.00000000E+00  1.23755293E+01  1.23755293E+01 -2.47510585E+01
  0.00000000E+00  1.23755293E+01  1.23755293E+01 -2.47510585E+01  0.00000000E+00
  1.23755293E+01  1.23755293E+01 -2.47510585E+01  0.00000000E+00  1.23755293E+01
  1.23755293E+01 -2.47510585E+01  0.00000000E+00  1.23755293E+01  1.23755293E+01
 -2.47510585E+01  0.00000000E+00  1.23755293E+01  1.23755293E+01 -2.47510585E+01
  0.00000000E+00  1.23755293E+01  1.23755293E+01 -2.47510585E+01  0.00000000E+00
  1.23755293E+01  1.23755293E+01 -2.47510585E+01  0.00000000E+00  1.23755293E+01
  1.23755293E+01 -2.47510585E+01  0.00000000E+00  1.23755293E+01  1.23755293E+01
 -2.47510585E+01  0.00000000E+00  1.23755293E+01  1.23755293E+01 -2.47510585E+01
  0.00000000E+00  1.23755293E+01  1.23755293E+01 -2.47510585E+01  0.00000000E+00
  1.23755293E+01  1.23755293E+01 -2.47510585E+01  0.00000000E+00  1.23755293E+01
  1.23755293E+01 -2.47510585E+01  0.00000000E+00  1.23755293E+01  1.23755293E+01
 -2.47510585E+01  0.00000000E+00  1.23755293E+01  1.23755293E+01 -2.47510585E+01
  0.00000000E+00  1.23755293E+01  1.23755293E+01 -2.47510585E+01  0.00000000E+00
  1.23755293E+01  1.23755293E+01 -2.47510585E+01  0.00000000E+00  1.23755293E+01
  1.23755293E+01 -2.47510585E+01  0.00000000E+00  1.23755293E+01  1.23755293E+01
 -2.47510585E+01  0.00000000E+00  1.23755293E+01  1.23755293E+01 -2.47510585E+01
  0.00000000E+00  1.23755293E+01  1.23755293E+01 -2.47510585E+01  0.00000000E+00
  1.23755293E+01  1.23755293E+01 -2.47510585E+01  0.00000000E+00  1.23755293E+01
  1.23755293E+01 -2.47510585E+01  0.00000000E+00  1.23755293E+01  1.23755293E+01
 -2.47510585E+01  0.00000000E+00  1.23755293E+01  1.23755293E+01 -2.47510585E+01
  0.00000000E+00  1.23755293E+01  1.23755293E+01 -2.47510585E+01  0.00000000E+00
  1.23755293E+01  1.23755293E+01 -2.47510585E+01  0.00000000E+00  1.23755293E+01
  1.23755293E+01 -2.47510585E+01  0.00000000E+00  1.23755293E+01  1.23755293E+01
 -2.47510585E+01  0.00000000E+00  1.23755293E+01  1.23755293E+01 -2.47510585E+01
  0.00000000E+00  1.23755293E+01  1.23755293E+01 -2.47510585E+01  0.00000000E+00
  1.23755293E+01  1.23755293E+01 -2.47510585E+01  0.00000000E+00  1.23755293E+01
  1.23755293E+01 -2.47510585E+01  0.00000000E+00  1.23755293E+01  1.23755293E+01
 -2.47510585E+01  0.00000000E+00  1.23755293E+01  1.23755293E+01 -2.47510585E+01
  0.00000000E+00  1.23755293E+01  1.23755293E+01 -2.47510585E+01  0.00000000E+00
  1.23755293E+01  1.23755293E+01 -2.47510585E+01  0.00000000E+00  1.23755293E+01
  1.23755293E+01 -2.47510585E+01  0.00000000E+00  1.23755293E+01  1.23755293E+01
 -2.47510585E+01  0.00000000E+00  1.23755293E+01  1.23755293E+01 -2.47510585E+01
  0.00000000E+00  1.23755293E+01  1.23755293E+01 -2.47510585E+01  0.00000000E+00
  1.23755293E+01  1.23755293E+01 -2.47510585E+01  0.00000000E+00  1.23755293E+01
  1.23755293E+01 -2.47510585E+01  0.00000000E+00  1.23755293E+01  1.23755293E+01
 -2.47510585E+01  0.00000000E+00  1.23755293E+01  1.23755293E+01 -2.47510585E+01
  0.00000000E+00  1.23755293E+01  1.23755293E+01 -2.47510585E+01  0.00000000E+00
  1.23755293E+01  1.23755293E+01 -2.47510585E+01  0.00000000E+00  1.23755293E+01
  1.23755293E+01 -2.47510585E+01  0.00000000E+00  1.23755293E+01  1.23755293E+01
 -2.47510585E+01  0.00000000E+00  1.23755293E+01  1.23755293E+01 -2.47510585E+01
  0.00000000E+00  1.23755293E+01  1.23755293E+01 -2.47510585E+01  0.00000000E+00
  1.23755293E+01  1.23755293E+01 -2.47510585E+01  0.00000000E+00  1.23755293E+01
  1.23755293E+01 -2.47510585E+01  0.00000000E+00  1.23755293E+01  1.23755293E+01
 -2.47510585E+01  0.00000000E+00  1.23755293E+01  1.23755293E+01 -2.47510585E+01
  0.00000000E+00  1.23755293E+01  1.23755293E+01 -2.47510585E+01  0.00000000E+00
  1.23755293E+01  1.23755293E+01 -2.47510585E+01  0.00000000E+00  1.23755293E+01
  1.23755293E+01 -2.47510585E+01  0.00000000E+00  1.23755293E+01  1.23755293E+01
 -2.47510585E+01  0.00000000E+00  1.23755293E+01  1.23755293E+01 -2.47510585E+01
  0.00000000E+00  1.23755293E+01  1.23755293E+01 -2.47510585E+01  0.00000000E+00
  1.23755293E+01  1.23755293E+01 -2.47510585E+01  0.00000000E+00  1.23755293E+01
  1.23755293E+01 -2.47510585E+01  0.00000000E+00  1.23755293E+01  1.23755293E+01
 -2.47510585E+01  0.00000000E+00  1.23755293E+01  1.23755293E+01 -2.47510585E+01
  0.00000000E+00  1.23755293E+01  1.23755293E+01 -2.47510585E+01  0.00000000E+00
  1.23755293E+01  1.23755293E+01 -2.47510585E+01  0.00000000E+00  1.23755293E+01
  1.23755293E+01 -2.47510585E+01  0.00000000E+00  1.23755293E+01  1.23755293E+01
 -2.47510585E+01  0.00000000E+00  1.23755293E+01  1.23755293E+01 -2.47510585E+01
  0.00000000E+00  1.23755293E+01  1.23755293E+01 -2.47510585E+01  0.00000000E+00
  1.23755293E+01  1.23755293E+01 -2.47510585E+01  0.00000000E+00  1.23755293E+01
  1.23755293E+01 -2.47510585E+01  0.00000000E+00  1.23755293E+01  1.23755293E+01
 -2.47510585E+01  0.00000000E+00  1.23755293E+01  1.23755293E+01 -2.47510585E+01
  0.00000000E+00  1.23755293E+01  1.23755293E+01 -2.47510585E+01  0.00000000E+00
  1.23755293E+01  1.23755293E+01 -2.47510585E+01  0.00000000E+00  1.23755293E+01
  1.23755293E+01 -2.47510585E+01  0.00000000E+00  1.23755293E+01  1.23755293E+01
 -2.47510585E+01  0.00000000E+00  1.23755293E+01  1.23755293E+01 -2.47510585E+01
  0.00000000E+00  1.23755293E+01  1.23755293E+01 -2.47510585E+01  0.00000000E+00
  1.23755293E+01  1.23755293E+01 -2.47510585E+01  0.00000000E+00  1.23755293E+01
  1.23755293E+01 -2.47510585E+01  0.00000000E+00  1.23755293E+01  1.23755293E+01
 -2.47510585E+01  0.00000000E+00  1.23755293E+01  1.23755293E+01 -2.47510585E+01
  0.00000000E+00  1.23755293E+01  1.23755293E+01 -2.47510585E+01  0.00000000E+00
  1.23755293E+01  1.23755293E+01 -2.47510585E+01  0.00000000E+00  1.23755293E+01
  1.23755293E+01 -2.47510585E+01  0.00000000E+00  1.23755293E+01  1.23755293E+01
 -2.47510585E+01  0.00000000E+00  1.23755293E+01  1.23755293E+01 -2.47510585E+01
  0.00000000E+00  1.23755293E+01  1.23755293E+01 -2.47510585E+01  0.00000000E+00
  1.23755293E+01  1.23755293E+01 -2.47510585E+01  0.00000000E+00  1.23755293E+01
  1.23755293E+01 -2.47510585E+01  0.00000000E+00  1.23755293E+01  1.23755293E+01
 -2.47510585E+01  0.00000000E+00  1.23755293E+01  1.23755293E+01 -2.47510585E+01
  0.00000000E+00  1.23755293E+01  1.23755293E+01 -2.47510585E+01  0.00000000E+00
  1.23755293E+01  1.23755293E+01 -2.47510585E+01  0.00000000E+00  1.23755293E+01
  1.23755293E+01 -2.47510585E+01  0.00000000E+00  1.23755293E+01  1.23755293E+01
 -2.47510585E+01  0.00000000E+00  1.23755293E+01  1.23755293E+01 -2.47510585E+01
  0.00000000E+00  1.23755293E+01  1.23755293E+01 -2.47510585E+01  0.00000000E+00
  1.23755293E+01  1.23755293E+01 -2.47510585E+01  0.00000000E+00  1.23755293E+01
  1.23755293E+01 -2.47510585E+01  0.00000000E+00  1.23755293E+01  1.23755293E+01
 -2.47510585E+01  0.00000000E+00  1.23755293E+01  1.23755293E+01 -2.47510585E+01
  0.00000000E+00  1.23755293E+01  1.23755293E+01 -2.47510585E+01  0.00000000E+00
  1.23755293E+01  1.23755293E+01 -2.47510585E+01  0.00000000E+00  1.23755293E+01
  1.23755293E+01 -2.47510585E+01  0.00000000E+00  1.23755293E+01  1.23755293E+01
 -2.47510585E+01  0.00000000E+00  1.23755293E+01  1.23755293E+01 -2.47510585E+01
  0.00000000E+00  1.23755293E+01  1.23755293E+01 -2.47510585E+01  0.00000000E+00
  1.23755293E+01  1.23755293E+01 -2.47510585E+01  0.00000000E+00  1.23755293E+01
  1.23755293E+01 -2.47510585E+01  0.00000000E+00  1.23755293E+01  1.23755293E+01
 -2.47510585E+01  0.00000000E+00  1.23755293E+01  1.23755293E+01 -2.47510585E+01
  0.00000000E+00  1.23755293E+01  1.23755293E+01 -2.47510585E+01  0.00000000E+00
  1.23755293E+01  1.23755293E+01 -2.47510585E+01  0.00000000E+00  1.23755293E+01
  1.23755293E+01 -2.47510585E+01  0.00000000E+00  1.23755293E+01  1.23755293E+01
 -2.47510585E+01  0.00000000E+00  1.23755293E+01  1.23755293E+01 -2.47510585E+01
  0.00000000E+00  1.23755293E+01  1.23755293E+01 -2.47510585E+01  0.00000000E+00
  1.23755293E+01  1.23755293E+01 -2.47510585E+01  0.00000000E+00  1.23755293E+01
  1.23755293E+01 -2.47510585E+01  0.00000000E+00  1.23755293E+01  1.23755293E+01
 -2.47510585E+01  0.00000000E+00  1.23755293E+01  1.23755293E+01 -2.47510585E+01
  0.00000000E+00  1.23755293E+01  1.23755293E+01 -2.47510585E+01  0.00000000E+00
  1.23755293E+01  1.23755293E+01 -2.47510585E+01  0.00000000E+00  1.23755293E+01
  1.23755293E+01 -2.47510585E+01  0.00000000E+00  1.23755293E+01  1.23755293E+01
 -2.47510585E+01  0.00000000E+00  1.23755293E+01  1.23755293E+01 -2.47510585E+01
  0.00000000E+00  1.23755293E+01  1.23755293E+01 -2.47510585E+01  0.00000000E+00
  1.23755293E+01  1.23755293E+01 -2.47510585E+01  0.00000000E+00  1.23755293E+01
  1.23755293E+01 -2.47510585E+01  0.00000000E+00  1.23755293E+01  1.23755293E+01
 -2.47510585E+01  0.00000000E+00  1.23755293E+01  1.23755293E+01 -2.47510585E+01
  0.00000000E+00  1.23755293E+01  1.23755293E+01 -2.47510585E+01  0.00000000E+00
  1.23755293E+01  1.23755293E+01 -2.47510585E+01  0.00000000E+00  1.23755293E+01
  1.23755293E+01 -2.47510585E+01  0.00000000E+00  1.23755293E+01  1.23755293E+01
 -2.47510585E+01  0.00000000E+00  1.23755293E+01  1.23755293E+01 -2.47510585E+01
  0.00000000E+00  1.23755293E+01  1.23755293E+01 -2.47510585E+01  0.00000000E+00
  1.23755293E+01  1.23755293E+01 -2.47510585E+01  0.00000000E+00  1.23755293E+01
  1.23755293E+01 -2.47510585E+01  0.00000000E+00  1.23755293E+01  1.23755293E+01
 -2.47510585E+01  0.00000000E+00  1.23755293E+01  1.23755293E+01 -2.47510585E+01
  0.00000000E+00  1.23755293E+01  1.23755293E+01 -2.47510585E+01  0.00000000E+00
  1.23755293E+01  1.23755293E+01 -2.47510585E+01  0.00000000E+00  1.23755293E+01
  1.23755293E+01 -2.47510585E+01  0.00000000E+00  1.23755293E+01  1.23755293E+01
 -2.47510585E+01  0.00000000E+00  1.23755293E+01  1.23755293E+01 -2.47510585E+01
  0.00000000E+00  1.23755293E+01  1.23755293E+01 -2.47510585E+01  0.00000000E+00
  1.23755293E+01  1.23755293E+01 -2.47510585E+01  0.00000000E+00  1.23755293E+01
  1.23755293E+01 -2.47510585E+01  0.00000000E+00  1.23755293E+01  1.23755293E+01
 -2.47510585E+01  0.00000000E+00  1.23755293E+01  1.23755293E+01 -2.47510585E+01
  0.00000000E+00  1.23755293E+01  1.23755293E+01 -2.47510585E+01  0.00000000E+00
  1.23755293E+01  1.23755293E+01 -2.47510585E+01  0.00000000E+00  1.23755293E+01
  1.23755293E+01 -2.47510585E+01  0.00000000E+00  1.23755293E+01  1.23755293E+01
 -2.47510585E+01  0.00000000E+00  1.23755293E+01  1.23755293E+01 -2.47510585E+01
  0.00000000E+00  1.23755293E+01  1.23755293E+01 -2.47510585E+01  0.00000000E+00
  1.23755293E+01  1.23755293E+01 -2.47510585E+01  0.00000000E+00  1.23755293E+01
  1.23755293E+01 -2.47510585E+01  0.00000000E+00  1.23755293E+01  1.23755293E+01
 -2.47510585E+01  0.00000000E+00  1.23755293E+01  1.23755293E+01 -2.47510585E+01
  0.00000000E+00  1.23755293E+01  1.23755293E+01 -2.47510585E+01  0.00000000E+00
  1.23755293E+01  1.23755293E+01 -2.47510585E+01  0.00000000E+00  1.23755293E+01
  1.23755293E+01 -2.47510585E+01  0.00000000E+00  1.23755293E+01  1.23755293E+01
 -2.47510585E+01  0.00000000E+00  1.23755293E+01  1.23755293E+01 -2.47510585E+01
  0.00000000E+00  1.23755293E+01  1.23755293E+01 -2.47510585E+01  0.00000000E+00
  1.23755293E+01  1.23755293E+01 -2.47510585E+01  0.00000000E+00  1.23755293E+01
  1.23755293E+01 -2.47510585E+01  0.00000000E+00  1.23755293E+01  1.23755293E+01
 -2.47510585E+01  0.00000000E+00  1.23755293E+01  1.23755293E+01 -2.47510585E+01
  0.00000000E+00  1.23755293E+01  1.23755293E+01 -2.47510585E+01  0.00000000E+00
  1.23755293E+01  1.23755293E+01 -2.47510585E+01  0.00000000E+00  1.23755293E+01
  1.23755293E+01 -2.47510585E+01  0.00000000E+00  1.23755293E+01  1.23755293E+01
 -2.47510585E+01  0.00000000E+00  1.23755293E+01  1.23755293E+01 -2.47510585E+01
  0.00000000E+00  1.23755293E+01  1.23755293E+01 -2.47510585E+01  0.00000000E+00
  1.23755293E+01  1.23755293E+01 -2.47510585E+01  0.00000000E+00  1.23755293E+01
  1.23755293E+01 -2.47510585E+01  0.00000000E+00  1.23755293E+01  1.23755293E+01
 -2.47510585E+01  0.00000000E+00  1.23755293E+01  1.23755293E+01 -2.47510585E+01
  0.00000000E+00  1.23755293E+01  1.23755293E+01 -2.47510585E+01  0.00000000E+00
  1.23755293E+01  1.23755293E+01 -2.47510585E+01  0.00000000E+00  1.23755293E+01
  1.23755293E+01 -2.47510585E+01  0.00000000E+00  1.23755293E+01  1.23755293E+01
 -2.47510585E+01  0.00000000E+00  1.23755293E+01  1.23755293E+01 -2.47510585E+01
  0.00000000E+00  1.23755293E+01  1.23755293E+01 -2.47510585E+01  0.00000000E+00
  1.23755293E+01  1.23755293E+01 -2.47510585E+01  0.00000000E+00  1.23755293E+01
  1.23755293E+01 -2.47510585E+01  0.00000000E+00  1.23755293E+01  1.23755293E+01
 -2.47510585E+01  0.00000000E+00  1.23755293E+01  1.23755293E+01 -2.47510585E+01
  0.00000000E+00  1.23755293E+01  1.23755293E+01 -2.47510585E+01  0.00000000E+00
  1.23755293E+01  1.23755293E+01 -2.47510585E+01  0.00000000E+00  1.23755293E+01
  1.23755293E+01 -2.47510585E+01  0.00000000E+00  1.23755293E+01  1.23755293E+01
 -2.47510585E+01  0.00000000E+00  1.23755293E+01  1.23755293E+01 -2.47510585E+01
  0.00000000E+00  1.23755293E+01  1.23755293E+01 -2.47510585E+01  0.00000000E+00
  1.23755293E+01  1.23755293E+01 -2.47510585E+01  0.00000000E+00  1.23755293E+01
  1.23755293E+01 -2.47510585E+01  0.00000000E+00  1.23755293E+01  1.23755293E+01
 -2.47510585E+01  0.00000000E+00  1.23755293E+01  1.23755293E+01 -2.47510585E+01
  0.00000000E+00  1.23755293E+01  1.23755293E+01 -2.47510585E+01  0.00000000E+00
  1.23755293E+01  1.23755293E+01 -2.47510585E+01  0.00000000E+00  1.23755293E+01
  1.23755293E+01 -2.47510585E+01  0.00000000E+00  1.23755293E+01  1.23755293E+01
 -2.47510585E+01  0.00000000E+00  1.23755293E+01  1.23755293E+01 -2.47510585E+01
  0.00000000E+00  1.23755293E+01  1.23755293E+01 -2.47510585E+01  0.00000000E+00
  1.23755293E+01  1.23755293E+01 -2.47510585E+01  0.00000000E+00  1.23755293E+01
  1.23755293E+01 -2.47510585E+01  0.00000000E+00  1.23755293E+01  1.23755293E+01
 -2.47510585E+01  0.00000000E+00  1.23755293E+01  1.23755293E+01 -2.47510585E+01
  0.00000000E+00  1.23755293E+01  1.23755293E+01 -2.47510585E+01  0.00000000E+00
  1.23755293E+01  1.23755293E+01 -2.47510585E+01  0.00000000E+00  1.23755293E+01
  1.23755293E+01 -2.47510585E+01  0.00000000E+00  1.23755293E+01  1.23755293E+01
 -2.47510585E+01  0.00000000E+00  1.23755293E+01  1.23755293E+01 -2.47510585E+01
  0.00000000E+00  1.23755293E+01  1.23755293E+01 -2.47510585E+01  0.00000000E+00
  1.23755293E+01  1.23755293E+01 -2.47510585E+01  0.00000000E+00  1.23755293E+01
  1.23755293E+01 -2.47510585E+01  0.00000000E+00  1.23755293E+01  1.23755293E+01
 -2.47510585E+01  0.00000000E+00  1.23755293E+01  1.23755293E+01 -2.47510585E+01
  0.00000000E+00  1.23755293E+01  1.23755293E+01 -2.47510585E+01  0.00000000E+00
  1.23755293E+01  1.23755293E+01 -2.47510585E+01  0.00000000E+00  1.23755293E+01
  1.23755293E+01 -2.47510585E+01  0.00000000E+00  1.23755293E+01  1.23755293E+01
 -2.47510585E+01  0.00000000E+00  1.23755293E+01  1.23755293E+01 -2.47510585E+01
  0.00000000E+00  1.23755293E+01  1.23755293E+01 -2.47510585E+01  0.00000000E+00
  1.23755293E+01  1.23755293E+01 -2.47510585E+01  0.00000000E+00  1.23755293E+01
  1.23755293E+01 -2.47510585E+01  0.00000000E+00  1.23755293E+01  1.23755293E+01
 -2.47510585E+01  0.00000000E+00  1.23755293E+01  1.23755293E+01 -2.47510585E+01
  0.00000000E+00  1.23755293E+01  1.23755293E+01 -2.47510585E+01  0.00000000E+00
  1.23755293E+01  1.23755293E+01 -2.47510585E+01  0.00000000E+00  1.23755293E+01
  1.23755293E+01 -2.47510585E+01  0.00000000E+00  1.23755293E+01  1.23755293E+01
 -2.47510585E+01  0.00000000E+00  1.23755293E+01  1.23755293E+01 -2.47510585E+01
  0.00000000E+00  1.23755293E+01  1.23755293E+01 -2.47510585E+01  0.00000000E+00
  1.23755293E+01  1.23755293E+01 -2.47510585E+01  0.00000000E+00  1.23755293E+01
  1.23755293E+01 -2.47510585E+01  0.00000000E+00  1.23755293E+01  1.23755293E+01
 -2.47510585E+01  0.00000000E+00  1.23755293E+01  1.23755293E+01 -2.47510585E+01
  0.00000000E+00  1.23755293E+01  1.23755293E+01 -2.47510585E+01  0.00000000E+00
  1.23755293E+01  1.23755293E+01 -2.47510585E+01  0.00000000E+00  1.23755293E+01
  1.23755293E+01 -2.47510585E+01  0.00000000E+00  1.23755293E+01  1.23755293E+01
 -2.47510585E+01  0.00000000E+00  1.23755293E+01  1.23755293E+01 -2.47510585E+01
  0.00000000E+00  1.23755293E+01  1.23755293E+01 -2.47510585E+01  0.00000000E+00
  1.23755293E+01  1.23755293E+01 -2.47510585E+01  0.00000000E+00  1.23755293E+01
  1.23755293E+01 -2.47510585E+01  0.00000000E+00  1.23755293E+01  1.23755293E+01
 -2.47510585E+01  0.00000000E+00  1.23755293E+01  1.23755293E+01 -2.47510585E+01
  0.00000000E+00  1.23755293E+01  1.23755293E+01 -2.47510585E+01  0.00000000E+00
  1.23755293E+01  1.23755293E+01 -2.47510585E+01  0.00000000E+00  1.23755293E+01
  1.23755293E+01 -2.47510585E+01  0.00000000E+00  1.23755293E+01  1.23755293E+01
 -2.47510585E+01  0.00000000E+00  1.23755293E+01  1.23755293E+01 -2.47510585E+01
  0.00000000E+00  1.23755293E+01  1.23755293E+01 -2.47510585E+01  0.00000000E+00
  1.23755293E+01  1.23755293E+01 -2.47510585E+01  0.00000000E+00  1.23755293E+01
  1.23755293E+01 -2.47510585E+01  0.00000000E+00  1.23755293E+01  1.23755293E+01
 -2.47510585E+01  0.00000000E+00  1.23755293E+01  1.23755293E+01 -2.47510585E+01
  0.00000000E+00  1.23755293E+01  1.23755293E+01 -2.47510585E+01  0.00000000E+00
  1.23755293E+01  1.23755293E+01 -2.47510585E+01  0.00000000E+00  1.23755293E+01
  1.23755293E+01 -2.47510585E+01  0.00000000E+00  1.23755293E+01  1.23755293E+01
 -2.47510585E+01  0.00000000E+00  1.23755293E+01  1.23755293E+01 -2.47510585E+01
  0.00000000E+00  1.23755293E+01  1.23755293E+01 -2.47510585E+01  0.00000000E+00
  1.23755293E+01  1.23755293E+01 -2.47510585E+01  0.00000000E+00  1.23755293E+01
  1.23755293E+01 -2.47510585E+01  0.00000000E+00  1.23755293E+01  1.23755293E+01
 -2.47510585E+01  0.00000000E+00  1.23755293E+01  1.23755293E+01 -2.47510585E+01
  0.00000000E+00  1.23755293E+01  1.23755293E+01 -2.47510585E+01  0.00000000E+00
  1.23755293E+01  1.23755293E+01 -2.47510585E+01  0.00000000E+00  1.23755293E+01
  1.23755293E+01 -2.47510585E+01  0.00000000E+00  1.23755293E+01  1.23755293E+01
 -2.47510585E+01  0.00000000E+00  1.23755293E+01  1.23755293E+01 -2.47510585E+01
  0.00000000E+00  1.23755293E+01  1.23755293E+01 -2.47510585E+01  0.00000000E+00
  1.23755293E+01  1.23755293E+01 -2.47510585E+01  0.00000000E+00  1.23755293E+01
  1.23755293E+01 -2.47510585E+01  0.00000000E+00  1.23755293E+01  1.23755293E+01
 -2.47510585E+01  0.00000000E+00  1.23755293E+01  1.23755293E+01 -2.47510585E+01
  0.00000000E+00  1.23755293E+01  1.23755293E+01 -2.47510585E+01  0.00000000E+00
  1.23755293E+01  1.23755293E+01 -2.47510585E+01  0.00000000E+00  1.23755293E+01
  1.23755293E+01 -2.47510585E+01  0.00000000E+00  1.23755293E+01  1.23755293E+01
 -2.47510585E+01  0.00000000E+00  1.23755293E+01  1.23755293E+01 -2.47510585E+01
  0.00000000E+00  1.23755293E+01  1.23755293E+01 -2.47510585E+01  0.00000000E+00
  1.23755293E+01  1.23755293E+01 -2.47510585E+01  0.00000000E+00  1.23755293E+01
  1.23755293E+01 -2.47510585E+01  0.00000000E+00  1.23755293E+01  1.23755293E+01
 -2.47510585E+01  0.00000000E+00  1.23755293E+01  1.23755293E+01 -2.47510585E+01
  0.00000000E+00  1.23755293E+01  1.23755293E+01 -2.47510585E+01  0.00000000E+00
  1.23755293E+01  1.23755293E+01 -2.47510585E+01  0.00000000E+00  1.23755293E+01
  1.23755293E+01 -2.47510585E+01  0.00000000E+00  1.23755293E+01  1.23755293E+01
 -2.47510585E+01  0.00000000E+00  1.23755293E+01  1.23755293E+01 -2.47510585E+01
  0.00000000E+00  1.23755293E+01  1.23755293E+01 -2.47510585E+01  0.00000000E+00
  1.23755293E+01  1.23755293E+01 -2.47510585E+01  0.00000000E+00  1.23755293E+01
  1.23755293E+01 -2.47510585E+01  0.00000000E+00  1.23755293E+01  1.23755293E+01
 -2.47510585E+01  0.00000000E+00  1.23755293E+01  1.23755293E+01 -2.47510585E+01
  0.00000000E+00  1.23755293E+01  1.23755293E+01 -2.47510585E+01  0.00000000E+00
  1.23755293E+01  1.23755293E+01 -2.47510585E+01  0.00000000E+00  1.23755293E+01
  1.23755293E+01 -2.47510585E+01  0.00000000E+00  1.23755293E+01  1.23755293E+01
 -2.47510585E+01  0.00000000E+00  1.23755293E+01  1.23755293E+01 -2.47510585E+01
  0.00000000E+00  1.23755293E+01  1.23755293E+01 -2.47510585E+01  0.00000000E+00
  1.23755293E+01  1.23755293E+01 -2.47510585E+01  0.00000000E+00  1.23755293E+01
  1.23755293E+01 -2.47510585E+01  0.00000000E+00  1.23755293E+01  1.23755293E+01
 -2.47510585E+01  0.00000000E+00  1.23755293E+01  1.23755293E+01 -2.47510585E+01
  0.00000000E+00  1.23755293E+01  1.23755293E+01 -2.47510585E+01  0.00000000E+00
  1.23755293E+01  1.23755293E+01 -2.47510585E+01  0.00000000E+00  1.23755293E+01
  1.23755293E+01 -2.47510585E+01  0.00000000E+00  1.23755293E+01  1.23755293E+01
 -2.47510585E+01  0.00000000E+00  1.23755293E+01  1.23755293E+01 -2.47510585E+01
  0.00000000E+00  1.23755293E+01  1.23755293E+01 -2.47510585E+01  0.00000000E+00
  1.23755293E+01  1.23755293E+01 -2.47510585E+01  0.00000000E+00  1.23755293E+01
  1.23755293E+01 -2.47510585E+01  0.00000000E+00  1.23755293E+01  1.23755293E+01
 -2.47510585E+01  0.00000000E+00  1.23755293E+01  1.23755293E+01 -2.47510585E+01
  0.00000000E+00  1.23755293E+01  1.23755293E+01 -2.47510585E+01  0.00000000E+00
  1.23755293E+01  1.23755293E+01 -2.47510585E+01  0.00000000E+00  1.23755293E+01
  1.23755293E+01 -2.47510585E+01  0.00000000E+00  1.23755293E+01  1.23755293E+01
 -2.47510585E+01  0.00000000E+00  1.23755293E+01  1.23755293E+01 -2.47510585E+01
  0.00000000E+00  1.23755293E+01  1.23755293E+01 -2.47510585E+01  0.00000000E+00
  1.23755293E+01  1.23755293E+01 -2.47510585E+01  0.00000000E+00  1.23755293E+01
  1.23755293E+01 -2.47510585E+01  0.00000000E+00  1.23755293E+01  1.23755293E+01
 -2.47510585E+01  0.00000000E+00  1.23755293E+01  1.23755293E+01 -2.47510585E+01
  0.00000000E+00  1.23755293E+01  1.23755293E+01 -2.47510585E+01  0.00000000E+00
  1.23755293E+01  1.23755293E+01 -2.47510585E+01  0.00000000E+00  1.23755293E+01
  1.23755293E+01 -2.47510585E+01  0.00000000E+00  1.23755293E+01  1.23755293E+01
 -2.47510585E+01  0.00000000E+00  1.23755293E+01  1.23755293E+01 -2.47510585E+01
  0.00000000E+00  1.23755293E+01  1.23755293E+01 -2.47510585E+01  0.00000000E+00
  1.23755293E+01  1.23755293E+01 -2.47510585E+01  0.00000000E+00  1.23755293E+01
  1.23755293E+01 -2.47510585E+01  0.00000000E+00  1.23755293E+01  1.23755293E+01
 -2.47510585E+01  0.00000000E+00  1.23755293E+01  1.23755293E+01 -2.47510585E+01
  0.00000000E+00  1.23755293E+01  1.23755293E+01 -2.47510585E+01  0.00000000E+00
  1.23755293E+01  1.23755293E+01 -2.47510585E+01  0.00000000E+00  1.23755293E+01
  1.23755293E+01 -2.47510585E+01  0.00000000E+00  1.23755293E+01  1.23755293E+01
 -2.47510585E+01  0.00000000E+00  1.23755293E+01  1.23755293E+01 -2.47510585E+01
  0.00000000E+00  1.23755293E+01  1.23755293E+01 -2.47510585E+01  0.00000000E+00
  1.23755293E+01  1.23755293E+01 -2.47510585E+01  0.00000000E+00  1.23755293E+01
  1.23755293E+01 -2.47510585E+01  0.00000000E+00  1.23755293E+01  1.23755293E+01
 -2.47510585E+01  0.00000000E+00  1.23755293E+01  1.23755293E+01 -2.47510585E+01
  0.00000000E+00  1.23755293E+01  1.23755293E+01 -2.47510585E+01  0.00000000E+00
  1.23755293E+01  1.23755293E+01 -2.47510585E+01  0.00000000E+00  1.23755293E+01
  1.23755293E+01 -2.47510585E+01  0.00000000E+00  1.23755293E+01  1.23755293E+01
 -2.47510585E+01  0.00000000E+00  1.23755293E+01  1.23755293E+01 -2.47510585E+01
  0.00000000E+00  1.23755293E+01  1.23755293E+01 -2.47510585E+01  0.00000000E+00
  1.23755293E+01  1.23755293E+01 -2.47510585E+01  0.00000000E+00  1.23755293E+01
  1.23755293E+01 -2.47510585E+01  0.00000000E+00  1.23755293E+01  1.23755293E+01
 -2.47510585E+01  0.00000000E+00  1.23755293E+01  1.23755293E+01 -2.47510585E+01
  0.00000000E+00  1.23755293E+01  1.23755293E+01 -2.47510585E+01  0.00000000E+00
  1.23755293E+01  1.23755293E+01 -2.47510585E+01  0.00000000E+00  1.23755293E+01
  1.23755293E+01 -2.47510585E+01  0.00000000E+00  1.23755293E+01  1.23755293E+01
 -2.47510585E+01  0.00000000E+00  1.23755293E+01  1.23755293E+01 -2.47510585E+01
  0.00000000E+00  1.23755293E+01  1.23755293E+01 -2.47510585E+01  0.00000000E+00
  1.23755293E+01  1.23755293E+01 -2.47510585E+01  0.00000000E+00  1.23755293E+01
  1.23755293E+01 -2.47510585E+01  0.00000000E+00  1.23755293E+01  1.23755293E+01
 -2.47510585E+01  0.00000000E+00  1.23755293E+01  1.23755293E+01 -2.47510585E+01
  0.00000000E+00  1.23755293E+01  1.23755293E+01 -2.47510585E+01  0.00000000E+00
  1.23755293E+01  1.23755293E+01 -2.47510585E+01  0.00000000E+00  1.23755293E+01
  1.23755293E+01 -2.47510585E+01  0.00000000E+00  1.23755293E+01  1.23755293E+01
 -2.47510585E+01  0.00000000E+00  1.23755293E+01  1.23755293E+01 -2.47510585E+01
  0.00000000E+00  1.23755293E+01  1.23755293E+01 -2.47510585E+01  0.00000000E+00
  1.23755293E+01  1.23755293E+01 -2.47510585E+01  0.00000000E+00  1.23755293E+01
  1.23755293E+01 -2.47510585E+01  0.00000000E+00  1.23755293E+01  1.23755293E+01
 -2.47510585E+01  0.00000000E+00  1.23755293E+01  1.23755293E+01 -2.47510585E+01
  0.00000000E+00  1.23755293E+01  1.23755293E+01 -2.47510585E+01  0.00000000E+00
  1.23755293E+01  1.23755293E+01 -2.47510585E+01  0.00000000E+00  1.23755293E+01
  1.23755293E+01 -2.47510585E+01  0.00000000E+00  1.23755293E+01  1.23755293E+01
 -2.47510585E+01  0.00000000E+00  1.23755293E+01  1.23755293E+01 -2.47510585E+01
  0.00000000E+00  1.23755293E+01  1.23755293E+01 -2.47510585E+01  0.00000000E+00
  1.23755293E+01  1.23755293E+01 -2.47510585E+01  0.00000000E+00  1.23755293E+01
  1.23755293E+01 -2.47510585E+01  0.00000000E+00  1.23755293E+01  1.23755293E+01
 -2.47510585E+01  0.00000000E+00  1.23755293E+01  1.23755293E+01 -2.47510585E+01
  0.00000000E+00  1.23755293E+01  1.23755293E+01 -2.47510585E+01  0.00000000E+00
  1.23755293E+01  1.23755293E+01 -2.47510585E+01  0.00000000E+00  1.23755293E+01
  1.23755293E+01 -2.47510585E+01  0.00000000E+00  1.23755293E+01  1.23755293E+01
 -2.47510585E+01  0.00000000E+00  1.23755293E+01  1.23755293E+01 -2.47510585E+01
  0.00000000E+00  1.23755293E+01  1.23755293E+01 -2.47510585E+01  0.00000000E+00
  1.23755293E+01  1.23755293E+01 -2.47510585E+01  0.00000000E+00  1.23755293E+01
  1.23755293E+01 -2.47510585E+01  0.00000000E+00  1.23755293E+01  1.23755293E+01
 -2.47510585E+01  0.00000000E+00  1.23755293E+01  1.23755293E+01 -2.47510585E+01
  0.00000000E+00  1.23755293E+01  1.23755293E+01 -2.47510585E+01  0.00000000E+00
  1.23755293E+01  1.23755293E+01 -2.47510585E+01  0.00000000E+00  1.23755293E+01
  1.23755293E+01 -2.47510585E+01  0.00000000E+00  1.23755293E+01  1.23755293E+01
 -2.47510585E+01  0.00000000E+00  1.23755293E+01  1.23755293E+01 -2.47510585E+01
  0.00000000E+00  1.23755293E+01  1.23755293E+01 -2.47510585E+01  0.00000000E+00
  1.23755293E+01  1.23755293E+01 -2.47510585E+01  0.00000000E+00  1.23755293E+01
  1.23755293E+01 -2.47510585E+01  0.00000000E+00  1.23755293E+01  1.23755293E+01
 -2.47510585E+01  0.00000000E+00  1.23755293E+01  1.23755293E+01 -2.47510585E+01
  0.00000000E+00  1.23755293E+01  1.23755293E+01 -2.47510585E+01  0.00000000E+00
  1.23755293E+01  1.23755293E+01 -2.47510585E+01  0.00000000E+00  1.23755293E+01
  1.23755293E+01 -2.47510585E+01  0.00000000E+00  1.23755293E+01  1.23755293E+01
 -2.47510585E+01  0.00000000E+00  1.23755293E+01  1.23755293E+01 -2.47510585E+01
  0.00000000E+00  1.23755293E+01  1.23755293E+01 -2.47510585E+01  0.00000000E+00
  1.23755293E+01  1.23755293E+01 -2.47510585E+01  0.00000000E+00  1.23755293E+01
  1.23755293E+01 -2.47510585E+01  0.00000000E+00  1.23755293E+01  1.23755293E+01
 -2.47510585E+01  0.00000000E+00  1.23755293E+01  1.23755293E+01 -2.47510585E+01
  0.00000000E+00  1.23755293E+01  1.23755293E+01 -2.47510585E+01  0.00000000E+00
  1.23755293E+01  1.23755293E+01 -2.47510585E+01  0.00000000E+00  1.23755293E+01
  1.23755293E+01 -2.47510585E+01  0.00000000E+00  1.23755293E+01  1.23755293E+01
 -2.47510585E+01  0.00000000E+00  1.23755293E+01  1.23755293E+01 -2.47510585E+01
  0.00000000E+00  1.23755293E+01  1.23755293E+01 -2.47510585E+01  0.00000000E+00
  1.23755293E+01  1.23755293E+01 -2.47510585E+01  0.00000000E+00  1.23755293E+01
  1.23755293E+01 -2.47510585E+01  0.00000000E+00  1.23755293E+01  1.23755293E+01
 -2.47510585E+01  0.00000000E+00  1.23755293E+01  1.23755293E+01 -2.47510585E+01
  0.00000000E+00  1.23755293E+01  1.23755293E+01 -2.47510585E+01  0.00000000E+00
  1.23755293E+01  1.23755293E+01 -2.47510585E+01  0.00000000E+00  1.23755293E+01
  1.23755293E+01 -2.47510585E+01  0.00000000E+00  1.23755293E+01  1.23755293E+01
 -2.47510585E+01  0.00000000E+00  1.23755293E+01  1.23755293E+01 -2.47510585E+01
  0.00000000E+00  1.23755293E+01  1.23755293E+01 -2.47510585E+01  0.00000000E+00
  1.23755293E+01  1.23755293E+01 -2.47510585E+01  0.00000000E+00  1.23755293E+01
  1.23755293E+01 -2.47510585E+01  0.00000000E+00  1.23755293E+01  1.23755293E+01
 -2.47510585E+01  0.00000000E+00  1.23755293E+01  1.23755293E+01 -2.47510585E+01
  0.00000000E+00  1.23755293E+01  1.23755293E+01 -2.47510585E+01  0.00000000E+00
  1.23755293E+01  1.23755293E+01 -2.47510585E+01  0.00000000E+00  1.23755293E+01
  1.23755293E+01 -2.47510585E+01  0.00000000E+00  1.23755293E+01  1.23755293E+01
 -2.47510585E+01  0.00000000E+00  1.23755293E+01  1.23755293E+01 -2.47510585E+01
  0.00000000E+00  1.23755293E+01  1.23755293E+01 -2.47510585E+01  0.00000000E+00
  1.23755293E+01  1.23755293E+01 -2.47510585E+01  0.00000000E+00  1.23755293E+01
  1.23755293E+01 -2.47510585E+01  0.00000000E+00  1.23755293E+01  1.23755293E+01
 -2.47510585E+01  0.00000000E+00  1.23755293E+01  1.23755293E+01 -2.47510585E+01
  0.00000000E+00  1.23755293E+01  1.23755293E+01 -2.47510585E+01  0.00000000E+00
  1.23755293E+01  1.23755293E+01 -2.47510585E+01  0.00000000E+00  1.23755293E+01
  1.23755293E+01 -2.47510585E+01  0.00000000E+00  1.23755293E+01  1.23755293E+01
 -2.47510585E+01  0.00000000E+00  1.23755293E+01  1.23755293E+01 -2.47510585E+01
  0.00000000E+00  1.23755293E+01  1.23755293E+01 -2.47510585E+01  0.00000000E+00
  1.23755293E+01  1.23755293E+01 -2.47510585E+01  0.00000000E+00  1.23755293E+01
  1.23755293E+01 -2.47510585E+01  0.00000000E+00  1.23755293E+01  1.23755293E+01
 -2.47510585E+01  0.00000000E+00  1.23755293E+01  1.23755293E+01 -2.47510585E+01
  0.00000000E+00  1.23755293E+01  1.23755293E+01 -2.47510585E+01  0.00000000E+00
  1.23755293E+01  1.23755293E+01 -2.47510585E+01  0.00000000E+00  1.23755293E+01
  1.23755293E+01 -2.47510585E+01  0.00000000E+00  1.23755293E+01  1.23755293E+01
 -2.47510585E+01  0.00000000E+00  1.23755293E+01  1.23755293E+01 -2.47510585E+01
  0.00000000E+00  1.23755293E+01  1.23755293E+01 -2.47510585E+01  0.00000000E+00
  1.23755293E+01  1.23755293E+01 -2.47510585E+01  0.00000000E+00  1.23755293E+01
  1.23755293E+01 -2.47510585E+01  0.00000000E+00  1.23755293E+01  1.23755293E+01
 -2.47510585E+01  0.00000000E+00  1.23755293E+01  1.23755293E+01 -2.47510585E+01
  0.00000000E+00  1.23755293E+01  1.23755293E+01 -2.47510585E+01  0.00000000E+00
  1.23755293E+01  1.23755293E+01 -2.47510585E+01  0.00000000E+00  1.23755293E+01
  1.23755293E+01 -2.47510585E+01  0.00000000E+00  1.23755293E+01  1.23755293E+01
 -2.47510585E+01  0.00000000E+00  1.23755293E+01  1.23755293E+01 -2.47510585E+01
  0.00000000E+00  1.23755293E+01  1.23755293E+01 -2.47510585E+01  0.00000000E+00
  1.23755293E+01  1.23755293E+01 -2.47510585E+01  0.00000000E+00  1.23755293E+01
  1.23755293E+01 -2.47510585E+01  0.00000000E+00  1.23755293E+01  1.23755293E+01
 -2.47510585E+01  0.00000000E+00  1.23755293E+01  1.23755293E+01 -2.47510585E+01
  0.00000000E+00  1.23755293E+01  1.23755293E+01 -2.47510585E+01  0.00000000E+00
  1.23755293E+01  1.23755293E+01 -2.47510585E+01  0.00000000E+00  1.23755293E+01
  1.23755293E+01 -2.47510585E+01  0.00000000E+00  1.23755293E+01  1.23755293E+01
 -2.47510585E+01  0.00000000E+00  1.23755293E+01  1.23755293E+01 -2.47510585E+01
  0.00000000E+00  1.23755293E+01  1.23755293E+01 -2.47510585E+01  0.00000000E+00
  1.23755293E+01  1.23755293E+01 -2.47510585E+01  0.00000000E+00  1.23755293E+01
  1.23755293E+01 -2.47510585E+01  0.00000000E+00  1.23755293E+01  1.23755293E+01
 -2.47510585E+01  0.00000000E+00  1.23755293E+01  1.23755293E+01 -2.47510585E+01
  0.00000000E+00  1.23755293E+01  1.23755293E+01 -2.47510585E+01  0.00000000E+00
  1.23755293E+01  1.23755293E+01 -2.47510585E+01  0.00000000E+00  1.23755293E+01
  1.23755293E+01 -2.47510585E+01  0.00000000E+00  1.23755293E+01  1.23755293E+01
 -2.47510585E+01  0.00000000E+00  1.23755293E+01  1.23755293E+01 -2.47510585E+01
  0.00000000E+00  1.23755293E+01  1.23755293E+01 -2.47510585E+01  0.00000000E+00
  1.23755293E+01  1.23755293E+01 -2.47510585E+01  0.00000000E+00  1.23755293E+01
  1.23755293E+01 -2.47510585E+01  0.00000000E+00  1.23755293E+01  1.23755293E+01
 -2.47510585E+01  0.00000000E+00  1.23755293E+01  1.23755293E+01 -2.47510585E+01
  0.00000000E+00  1.23755293E+01  1.23755293E+01 -2.47510585E+01  0.00000000E+00
  1.23755293E+01  1.23755293E+01 -2.47510585E+01  0.00000000E+00  1.23755293E+01
  1.23755293E+01 -2.47510585E+01  0.00000000E+00  1.23755293E+01  1.23755293E+01
 -2.47510585E+01  0.00000000E+00  1.23755293E+01  1.23755293E+01 -2.47510585E+01
  0.00000000E+00  1.23755293E+01  1.23755293E+01 -2.47510585E+01  0.00000000E+00
  1.23755293E+01  1.23755293E+01 -2.47510585E+01  0.00000000E+00  1.23755293E+01
  1.23755293E+01 -2.47510585E+01  0.00000000E+00  1.23755293E+01  1.23755293E+01
 -2.47510585E+01  0.00000000E+00  1.23755293E+01  1.23755293E+01 -2.47510585E+01
  0.00000000E+00  1.23755293E+01  1.23755293E+01 -2.47510585E+01  0.00000000E+00
  1.23755293E+01  1.23755293E+01 -2.47510585E+01  0.00000000E+00  1.23755293E+01
  1.23755293E+01 -2.47510585E+01  0.00000000E+00  1.23755293E+01  1.23755293E+01
 -2.47510585E+01  0.00000000E+00  1.23755293E+01  1.23755293E+01 -2.47510585E+01
  0.00000000E+00  1.23755293E+01  1.23755293E+01 -2.47510585E+01  0.00000000E+00
  1.23755293E+01  1.23755293E+01 -2.47510585E+01  0.00000000E+00  1.23755293E+01
  1.23755293E+01 -2.47510585E+01  0.00000000E+00  1.23755293E+01  1.23755293E+01
 -2.47510585E+01  0.00000000E+00  1.23755293E+01  1.23755293E+01 -2.47510585E+01
  0.00000000E+00  1.23755293E+01  1.23755293E+01 -2.47510585E+01  0.00000000E+00
  1.23755293E+01  1.23755293E+01 -2.47510585E+01  0.00000000E+00  1.23755293E+01
  1.23755293E+01 -2.47510585E+01  0.00000000E+00  1.23755293E+01  1.23755293E+01
 -2.47510585E+01  0.00000000E+00  1.23755293E+01  1.23755293E+01 -2.47510585E+01
  0.00000000E+00  1.23755293E+01  1.23755293E+01 -2.47510585E+01  0.00000000E+00
  1.23755293E+01  1.23755293E+01 -2.47510585E+01  0.00000000E+00  1.23755293E+01
  1.23755293E+01 -2.47510585E+01  0.00000000E+00  1.23755293E+01  1.23755293E+01
 -2.47510585E+01  0.00000000E+00  1.23755293E+01  1.23755293E+01 -2.47510585E+01
  0.00000000E+00  1.23755293E+01  1.23755293E+01 -2.47510585E+01  0.00000000E+00
  1.23755293E+01  1.23755293E+01 -2.47510585E+01  0.00000000E+00  1.23755293E+01
  1.23755293E+01 -2.47510585E+01  0.00000000E+00  1.23755293E+01  1.23755293E+01
 -2.47510585E+01  0.00000000E+00  1.23755293E+01  1.23755293E+01 -2.47510585E+01
  0.00000000E+00  1.23755293E+01  1.23755293E+01 -2.47510585E+01  0.00000000E+00
  1.23755293E+01  1.23755293E+01 -2.47510585E+01  0.00000000E+00  1.23755293E+01
  1.23755293E+01 -2.47510585E+01  0.00000000E+00  1.23755293E+01  1.23755293E+01
 -2.47510585E+01  0.00000000E+00  1.23755293E+01  1.23755293E+01 -2.47510585E+01
  0.00000000E+00  1.23755293E+01  1.23755293E+01 -2.47510585E+01  0.00000000E+00
  1.23755293E+01  1.23755293E+01 -2.47510585E+01  0.00000000E+00  1.23755293E+01
  1.23755293E+01 -2.47510585E+01  0.00000000E+00  1.23755293E+01  1.23755293E+01
 -2.47510585E+01  0.00000000E+00  1.23755293E+01  1.23755293E+01 -2.47510585E+01
  0.00000000E+00  1.23755293E+01  1.23755293E+01 -2.47510585E+01  0.00000000E+00
  1.23755293E+01  1.23755293E+01 -2.47510585E+01  0.00000000E+00  1.23755293E+01
  1.23755293E+01 -2.47510585E+01  0.00000000E+00  1.23755293E+01  1.23755293E+01
 -2.47510585E+01  0.00000000E+00  1.23755293E+01  1.23755293E+01 -2.47510585E+01
  0.00000000E+00  1.23755293E+01  1.23755293E+01 -2.47510585E+01  0.00000000E+00
  1.23755293E+01  1.23755293E+01 -2.47510585E+01  0.00000000E+00  1.23755293E+01
  1.23755293E+01 -2.47510585E+01  0.00000000E+00  1.23755293E+01  1.23755293E+01
 -2.47510585E+01  0.00000000E+00  1.23755293E+01  1.23755293E+01 -2.47510585E+01
  0.00000000E+00  1.23755293E+01  1.23755293E+01 -2.47510585E+01  0.00000000E+00
  1.23755293E+01  1.23755293E+01 -2.47510585E+01  0.00000000E+00  1.23755293E+01
  1.23755293E+01 -2.47510585E+01  0.00000000E+00  1.23755293E+01  1.23755293E+01
 -2.47510585E+01  0.00000000E+00  1.23755293E+01  1.23755293E+01 -2.47510585E+01
  0.00000000E+00  1.23755293E+01  1.23755293E+01 -2.47510585E+01  0.00000000E+00
  1.23755293E+01  1.23755293E+01 -2.47510585E+01  0.00000000E+00  1.23755293E+01
  1.23755293E+01 -2.47510585E+01  0.00000000E+00  1.23755293E+01  1.23755293E+01
 -2.47510585E+01  0.00000000E+00  1.23755293E+01  1.23755293E+01 -2.47510585E+01
  0.00000000E+00  1.23755293E+01  1.23755293E+01 -2.47510585E+01  0.00000000E+00
  1.23755293E+01  1.23755293E+01 -2.47510585E+01  0.00000000E+00  1.23755293E+01
  1.23755293E+01 -2.47510585E+01  0.00000000E+00  1.23755293E+01  1.23755293E+01
 -2.47510585E+01  0.00000000E+00  1.23755293E+01  1.23755293E+01 -2.47510585E+01
  0.00000000E+00  1.23755293E+01  1.23755293E+01 -2.47510585E+01  0.00000000E+00
  1.23755293E+01  1.23755293E+01 -2.47510585E+01  0.00000000E+00  1.23755293E+01
  1.23755293E+01 -2.47510585E+01  0.00000000E+00  1.23755293E+01  1.23755293E+01
 -2.47510585E+01  0.00000000E+00  1.23755293E+01  1.23755293E+01 -2.47510585E+01
  0.00000000E+00  1.23755293E+01  1.23755293E+01 -2.47510585E+01  0.00000000E+00
  1.23755293E+01  1.23755293E+01 -2.47510585E+01  0.00000000E+00  1.23755293E+01
  1.23755293E+01 -2.47510585E+01  0.00000000E+00  1.23755293E+01  1.23755293E+01
 -2.47510585E+01  0.00000000E+00  1.23755293E+01  1.23755293E+01 -2.47510585E+01
  0.00000000E+00  1.23755293E+01  1.23755293E+01 -2.47510585E+01  0.00000000E+00
  1.23755293E+01  1.23755293E+01 -2.47510585E+01  0.00000000E+00  1.23755293E+01
  1.23755293E+01 -2.47510585E+01  0.00000000E+00  1.23755293E+01  1.23755293E+01
 -2.47510585E+01  0.00000000E+00  1.23755293E+01  1.23755293E+01 -2.47510585E+01
  0.00000000E+00  1.23755293E+01  1.23755293E+01 -2.47510585E+01  0.00000000E+00
  1.23755293E+01  1.23755293E+01 -2.47510585E+01  0.00000000E+00  1.23755293E+01
  1.23755293E+01 -2.47510585E+01  0.00000000E+00  1.23755293E+01  1.23755293E+01
 -2.47510585E+01  0.00000000E+00  1.23755293E+01  1.23755293E+01 -2.47510585E+01
  0.00000000E+00  1.23755293E+01  1.23755293E+01 -2.47510585E+01  0.00000000E+00
  1.23755293E+01  1.23755293E+01 -2.47510585E+01  0.00000000E+00  1.23755293E+01
  1.23755293E+01 -2.47510585E+01  0.00000000E+00  1.23755293E+01  1.23755293E+01
 -2.47510585E+01  0.00000000E+00  1.23755293E+01  1.23755293E+01 -2.47510585E+01
  0.00000000E+00  1.23755293E+01  1.23755293E+01 -2.47510585E+01  0.00000000E+00
  1.23755293E+01  1.23755293E+01 -2.47510585E+01  0.00000000E+00  1.23755293E+01
  1.23755293E+01 -2.47510585E+01  0.00000000E+00  1.23755293E+01  1.23755293E+01
 -2.47510585E+01  0.00000000E+00  1.23755293E+01  1.23755293E+01 -2.47510585E+01
  0.00000000E+00  1.23755293E+01  1.23755293E+01 -2.47510585E+01  0.00000000E+00
  1.23755293E+01  1.23755293E+01 -2.47510585E+01  0.00000000E+00  1.23755293E+01
  1.23755293E+01 -2.47510585E+01  0.00000000E+00  1.23755293E+01  1.23755293E+01
 -2.47510585E+01  0.00000000E+00  1.23755293E+01  1.23755293E+01 -2.47510585E+01
  0.00000000E+00  1.23755293E+01  1.23755293E+01 -2.47510585E+01  0.00000000E+00
  1.23755293E+01  1.23755293E+01 -2.47510585E+01  0.00000000E+00  1.23755293E+01
  1.23755293E+01 -2.47510585E+01  0.00000000E+00  1.23755293E+01  1.23755293E+01
 -2.47510585E+01  0.00000000E+00  1.23755293E+01  1.23755293E+01 -2.47510585E+01
  0.00000000E+00  1.23755293E+01  1.23755293E+01 -2.47510585E+01  0.00000000E+00
  1.23755293E+01  1.23755293E+01 -2.47510585E+01  0.00000000E+00  1.23755293E+01
  1.23755293E+01 -2.47510585E+01  0.00000000E+00  1.23755293E+01  1.23755293E+01
 -2.47510585E+01  0.00000000E+00  1.23755293E+01  1.23755293E+01 -2.47510585E+01
  0.00000000E+00  1.23755293E+01  1.23755293E+01 -2.47510585E+01  0.00000000E+00
  1.23755293E+01  1.23755293E+01 -2.47510585E+01  0.00000000E+00  1.23755293E+01
  1.23755293E+01 -2.47510585E+01  0.00000000E+00  1.23755293E+01  1.23755293E+01
 -2.47510585E+01  0.00000000E+00  1.23755293E+01  1.23755293E+01 -2.47510585E+01
  0.00000000E+00  1.23755293E+01  1.23755293E+01 -2.47510585E+01  0.00000000E+00
  1.23755293E+01  1.23755293E+01 -2.47510585E+01  0.00000000E+00  1.23755293E+01
  1.23755293E+01 -2.47510585E+01  0.00000000E+00  1.23755293E+01  1.23755293E+01
 -2.47510585E+01  0.00000000E+00  1.23755293E+01  1.23755293E+01 -2.47510585E+01
  0.00000000E+00  1.23755293E+01  1.23755293E+01 -2.47510585E+01  0.00000000E+00
  1.23755293E+01  1.23755293E+01 -2.47510585E+01  0.00000000E+00  1.23755293E+01
  1.23755293E+01 -2.47510585E+01  0.00000000E+00  1.23755293E+01  1.23755293E+01
 -2.47510585E+01  0.00000000E+00  1.23755293E+01  1.23755293E+01 -2.47510585E+01
  0.00000000E+00  1.23755293E+01  1.23755293E+01 -2.47510585E+01  0.00000000E+00
  1.23755293E+01  1.23755293E+01 -2.47510585E+01  0.00000000E+00  1.23755293E+01
  1.23755293E+01 -2.47510585E+01  0.00000000E+00  1.23755293E+01  1.23755293E+01
 -2.47510585E+01  0.00000000E+00  1.23755293E+01  1.23755293E+01 -2.47510585E+01
  0.00000000E+00  1.23755293E+01  1.23755293E+01 -2.47510585E+01  0.00000000E+00
  1.23755293E+01  1.23755293E+01 -2.47510585E+01  0.00000000E+00  1.23755293E+01
  1.23755293E+01 -2.47510585E+01  0.00000000E+00  1.23755293E+01  1.23755293E+01
 -2.47510585E+01  0.00000000E+00  1.23755293E+01  1.23755293E+01 -2.47510585E+01
  0.00000000E+00  1.23755293E+01  1.23755293E+01 -2.47510585E+01  0.00000000E+00
  1.23755293E+01  1.23755293E+01 -2.47510585E+01  0.00000000E+00  1.23755293E+01
  1.23755293E+01 -2.47510585E+01  0.00000000E+00  1.23755293E+01  1.23755293E+01
 -2.47510585E+01  0.00000000E+00  1.23755293E+01  1.23755293E+01 -2.47510585E+01
  0.00000000E+00  1.23755293E+01  1.23755293E+01 -2.47510585E+01  0.00000000E+00
  1.23755293E+01  1.23755293E+01 -2.47510585E+01  0.00000000E+00  1.23755293E+01
  1.23755293E+01 -2.47510585E+01  0.00000000E+00  1.23755293E+01  1.23755293E+01
 -2.47510585E+01  0.00000000E+00  1.23755293E+01  1.23755293E+01 -2.47510585E+01
  0.00000000E+00  1.23755293E+01  1.23755293E+01 -2.47510585E+01  0.00000000E+00
  1.23755293E+01  1.23755293E+01 -2.47510585E+01  0.00000000E+00  1.23755293E+01
  1.23755293E+01 -2.47510585E+01  0.00000000E+00  1.23755293E+01  1.23755293E+01
 -2.47510585E+01  0.00000000E+00  1.23755293E+01  1.23755293E+01 -2.47510585E+01
  0.00000000E+00  1.23755293E+01  1.23755293E+01 -2.47510585E+01  0.00000000E+00
  1.23755293E+01  1.23755293E+01 -2.47510585E+01  0.00000000E+00  1.23755293E+01
  1.23755293E+01 -2.47510585E+01  0.00000000E+00  1.23755293E+01  1.23755293E+01
 -2.47510585E+01  0.00000000E+00  1.23755293E+01  1.23755293E+01 -2.47510585E+01
  0.00000000E+00  1.23755293E+01  1.23755293E+01 -2.47510585E+01  0.00000000E+00
  1.23755293E+01  1.23755293E+01 -2.47510585E+01  0.00000000E+00  1.23755293E+01
  1.23755293E+01 -2.47510585E+01  0.00000000E+00  1.23755293E+01  1.23755293E+01
 -2.47510585E+01  0.00000000E+00  1.23755293E+01  1.23755293E+01 -2.47510585E+01
  0.00000000E+00  1.23755293E+01  1.23755293E+01 -2.47510585E+01  0.00000000E+00
  1.23755293E+01  1.23755293E+01 -2.47510585E+01  0.00000000E+00  1.23755293E+01
  1.23755293E+01 -2.47510585E+01  0.00000000E+00  1.23755293E+01  1.23755293E+01
 -2.47510585E+01  0.00000000E+00  1.23755293E+01  1.23755293E+01 -2.47510585E+01
  0.00000000E+00  1.23755293E+01  1.23755293E+01 -2.47510585E+01  0.00000000E+00
  1.23755293E+01  1.23755293E+01 -2.47510585E+01  0.00000000E+00  1.23755293E+01
  1.23755293E+01 -2.47510585E+01  0.00000000E+00  1.23755293E+01  1.23755293E+01
 -2.47510585E+01  0.00000000E+00  1.23755293E+01  1.23755293E+01 -2.47510585E+01
  0.00000000E+00  1.23755293E+01  1.23755293E+01 -2.47510585E+01  0.00000000E+00
  1.23755293E+01  1.23755293E+01 -2.47510585E+01  0.00000000E+00  1.23755293E+01
  1.23755293E+01 -2.47510585E+01  0.00000000E+00  1.23755293E+01  1.23755293E+01
 -2.47510585E+01  0.00000000E+00  1.23755293E+01  1.23755293E+01 -2.47510585E+01
  0.00000000E+00  1.23755293E+01  1.23755293E+01 -2.47510585E+01  0.00000000E+00
  1.23755293E+01  1.23755293E+01 -2.47510585E+01  0.00000000E+00  1.23755293E+01
  1.23755293E+01 -2.47510585E+01  0.00000000E+00  1.23755293E+01  1.23755293E+01
 -2.47510585E+01  0.00000000E+00  1.23755293E+01  1.23755293E+01 -2.47510585E+01
  0.00000000E+00  1.23755293E+01  1.23755293E+01 -2.47510585E+01  0.00000000E+00
  1.23755293E+01  1.23755293E+01 -2.47510585E+01  0.00000000E+00  1.23755293E+01
  1.23755293E+01 -2.47510585E+01  0.00000000E+00  1.23755293E+01  1.23755293E+01
 -2.47510585E+01  0.00000000E+00  1.23755293E+01  1.23755293E+01 -2.47510585E+01
  0.00000000E+00  1.23755293E+01  1.23755293E+01 -2.47510585E+01  0.00000000E+00
  1.23755293E+01  1.23755293E+01 -2.47510585E+01  0.00000000E+00  1.23755293E+01
  1.23755293E+01 -2.47510585E+01  0.00000000E+00  1.23755293E+01  1.23755293E+01
 -2.47510585E+01  0.00000000E+00  1.23755293E+01  1.23755293E+01 -2.47510585E+01
  0.00000000E+00  1.23755293E+01  1.23755293E+01 -2.47510585E+01  0.00000000E+00
  1.23755293E+01  1.23755293E+01 -2.47510585E+01  0.00000000E+00  1.23755293E+01
  1.23755293E+01 -2.47510585E+01  0.00000000E+00  1.23755293E+01  1.23755293E+01
 -2.47510585E+01  0.00000000E+00  1.23755293E+01  1.23755293E+01 -2.47510585E+01
  0.00000000E+00  1.23755293E+01  1.23755293E+01 -2.47510585E+01  0.00000000E+00
  1.23755293E+01  1.23755293E+01 -2.47510585E+01  0.00000000E+00  1.23755293E+01
  1.23755293E+01 -2.47510585E+01  0.00000000E+00  1.23755293E+01  1.23755293E+01
 -2.47510585E+01  0.00000000E+00  1.23755293E+01  1.23755293E+01 -2.47510585E+01
  0.00000000E+00  1.23755293E+01  1.23755293E+01 -2.47510585E+01  0.00000000E+00
  1.23755293E+01  1.23755293E+01 -2.47510585E+01  0.00000000E+00  1.23755293E+01
  1.23755293E+01 -2.47510585E+01  0.00000000E+00  1.23755293E+01  1.23755293E+01
 -2.47510585E+01  0.00000000E+00  1.23755293E+01  1.23755293E+01 -2.47510585E+01
  0.00000000E+00  1.23755293E+01  1.23755293E+01 -2.47510585E+01  0.00000000E+00
  1.23755293E+01  1.23755293E+01 -2.47510585E+01  0.00000000E+00  1.23755293E+01
  1.23755293E+01 -2.47510585E+01  0.00000000E+00  1.23755293E+01  1.23755293E+01
 -2.47510585E+01  0.00000000E+00  1.23755293E+01  1.23755293E+01 -2.47510585E+01
  0.00000000E+00  1.23755293E+01  1.23755293E+01 -2.47510585E+01  0.00000000E+00
  1.23755293E+01  1.23755293E+01 -2.47510585E+01  0.00000000E+00  1.23755293E+01
  1.23755293E+01 -2.47510585E+01  0.00000000E+00  1.23755293E+01  1.23755293E+01
 -2.47510585E+01  0.00000000E+00  1.23755293E+01  1.23755293E+01 -2.47510585E+01
  0.00000000E+00  1.23755293E+01  1.23755293E+01 -2.47510585E+01  0.00000000E+00
  1.23755293E+01  1.23755293E+01 -2.47510585E+01  0.00000000E+00  1.23755293E+01
  1.23755293E+01 -2.47510585E+01  0.00000000E+00  1.23755293E+01  1.23755293E+01
 -2.47510585E+01  0.00000000E+00  1.23755293E+01  1.23755293E+01 -2.47510585E+01
  0.00000000E+00  1.23755293E+01  1.23755293E+01 -2.47510585E+01  0.00000000E+00
  1.23755293E+01  1.23755293E+01 -2.47510585E+01  0.00000000E+00  1.23755293E+01
  1.23755293E+01 -2.47510585E+01  0.00000000E+00  1.23755293E+01  1.23755293E+01
 -2.47510585E+01  0.00000000E+00  1.23755293E+01  1.23755293E+01 -2.47510585E+01
  0.00000000E+00  1.23755293E+01  1.23755293E+01 -2.47510585E+01  0.00000000E+00
  1.23755293E+01  1.23755293E+01 -2.47510585E+01  0.00000000E+00  1.23755293E+01
  1.23755293E+01 -2.47510585E+01  0.00000000E+00  1.23755293E+01  1.23755293E+01
 -2.47510585E+01  0.00000000E+00  1.23755293E+01  1.23755293E+01 -2.47510585E+01
  0.00000000E+00  1.23755293E+01  1.23755293E+01 -2.47510585E+01  0.00000000E+00
  1.23755293E+01  1.23755293E+01 -2.47510585E+01  0.00000000E+00  1.23755293E+01
  1.23755293E+01 -2.47510585E+01  0.00000000E+00  1.23755293E+01  1.23755293E+01
 -2.47510585E+01  0.00000000E+00  1.23755293E+01  1.23755293E+01 -2.47510585E+01
  0.00000000E+00  1.23755293E+01  1.23755293E+01 -2.47510585E+01  0.00000000E+00
  1.23755293E+01  1.23755293E+01 -2.47510585E+01  0.00000000E+00  1.23755293E+01
  1.23755293E+01 -2.47510585E+01  0.00000000E+00  1.23755293E+01  1.23755293E+01
 -2.47510585E+01  0.00000000E+00  1.23755293E+01  1.23755293E+01 -2.47510585E+01
  0.00000000E+00  1.23755293E+01  1.23755293E+01 -2.47510585E+01  0.00000000E+00
  1.23755293E+01  1.23755293E+01 -2.47510585E+01  0.00000000E+00  1.23755293E+01
  1.23755293E+01 -2.47510585E+01  0.00000000E+00  1.23755293E+01  1.23755293E+01
 -2.47510585E+01  0.00000000E+00  1.23755293E+01  1.23755293E+01 -2.47510585E+01
  0.00000000E+00  1.23755293E+01  1.23755293E+01 -2.47510585E+01  0.00000000E+00
  1.23755293E+01  1.23755293E+01 -2.47510585E+01  0.00000000E+00  1.23755293E+01
  1.23755293E+01 -2.47510585E+01  0.00000000E+00  1.23755293E+01  1.23755293E+01
 -2.47510585E+01  0.00000000E+00  1.23755293E+01  1.23755293E+01 -2.47510585E+01
  0.00000000E+00  1.23755293E+01  1.23755293E+01 -2.47510585E+01  0.00000000E+00
  1.23755293E+01  1.23755293E+01 -2.47510585E+01  0.00000000E+00  1.23755293E+01
  1.23755293E+01 -2.47510585E+01  0.00000000E+00  1.23755293E+01  1.23755293E+01
 -2.47510585E+01  0.00000000E+00  1.23755293E+01  1.23755293E+01 -2.47510585E+01
  0.00000000E+00  1.23755293E+01  1.23755293E+01 -2.47510585E+01  0.00000000E+00
  1.23755293E+01  1.23755293E+01 -2.47510585E+01  0.00000000E+00  1.23755293E+01
  1.23755293E+01 -2.47510585E+01  0.00000000E+00  1.23755293E+01  1.23755293E+01
 -2.47510585E+01  0.00000000E+00  1.23755293E+01  1.23755293E+01 -2.47510585E+01
  0.00000000E+00  1.23755293E+01  1.23755293E+01 -2.47510585E+01  0.00000000E+00
  1.23755293E+01  1.23755293E+01 -2.47510585E+01  0.00000000E+00  1.23755293E+01
  1.23755293E+01 -2.47510585E+01  0.00000000E+00  1.23755293E+01  1.23755293E+01
 -2.47510585E+01  0.00000000E+00  1.23755293E+01  1.23755293E+01 -2.47510585E+01
  0.00000000E+00  1.23755293E+01  1.23755293E+01 -2.47510585E+01  0.00000000E+00
  1.23755293E+01  1.23755293E+01 -2.47510585E+01  0.00000000E+00  1.23755293E+01
  1.23755293E+01 -2.47510585E+01  0.00000000E+00  1.23755293E+01  1.23755293E+01
 -2.47510585E+01  0.00000000E+00  1.23755293E+01  1.23755293E+01 -2.47510585E+01
  0.00000000E+00  1.23755293E+01  1.23755293E+01 -2.47510585E+01  0.00000000E+00
  1.23755293E+01  1.23755293E+01 -2.47510585E+01  0.00000000E+00  1.23755293E+01
  1.23755293E+01 -2.47510585E+01  0.00000000E+00  1.23755293E+01  1.23755293E+01
 -2.47510585E+01  0.00000000E+00  1.23755293E+01  1.23755293E+01 -2.47510585E+01
  0.00000000E+00  1.23755293E+01  1.23755293E+01 -2.47510585E+01  0.00000000E+00
  1.23755293E+01  1.23755293E+01 -2.47510585E+01  0.00000000E+00  1.23755293E+01
  1.23755293E+01 -2.47510585E+01  0.00000000E+00  1.23755293E+01  1.23755293E+01
 -2.47510585E+01  0.00000000E+00  1.23755293E+01  1.23755293E+01 -2.47510585E+01
  0.00000000E+00  1.23755293E+01  1.23755293E+01 -2.47510585E+01  0.00000000E+00
  1.23755293E+01  1.23755293E+01 -2.47510585E+01  0.00000000E+00  1.23755293E+01
  1.23755293E+01 -2.47510585E+01  0.00000000E+00  1.23755293E+01  1.23755293E+01
 -2.47510585E+01  0.00000000E+00  1.23755293E+01  1.23755293E+01 -2.47510585E+01
  0.00000000E+00  1.23755293E+01  1.23755293E+01 -2.47510585E+01  0.00000000E+00
  1.23755293E+01  1.23755293E+01 -2.47510585E+01  0.00000000E+00  1.23755293E+01
  1.23755293E+01 -2.47510585E+01  0.00000000E+00  1.23755293E+01  1.23755293E+01
 -2.47510585E+01  0.00000000E+00  1.23755293E+01  1.23755293E+01 -2.47510585E+01
  0.00000000E+00  1.23755293E+01  1.23755293E+01 -2.47510585E+01  0.00000000E+00
  1.23755293E+01  1.23755293E+01 -2.47510585E+01  0.00000000E+00  1.23755293E+01
  1.23755293E+01 -2.47510585E+01  0.00000000E+00  1.23755293E+01  1.23755293E+01
 -2.47510585E+01  0.00000000E+00  1.23755293E+01  1.23755293E+01 -2.47510585E+01
  0.00000000E+00  1.23755293E+01  1.23755293E+01 -2.47510585E+01  0.00000000E+00
  1.23755293E+01  1.23755293E+01 -2.47510585E+01  0.00000000E+00  1.23755293E+01
  1.23755293E+01 -2.47510585E+01  0.00000000E+00  1.23755293E+01  1.23755293E+01
 -2.47510585E+01  0.00000000E+00  1.23755293E+01  1.23755293E+01 -2.47510585E+01
  0.00000000E+00  1.23755293E+01  1.23755293E+01 -2.47510585E+01  0.00000000E+00
  1.23755293E+01  1.23755293E+01 -2.47510585E+01  0.00000000E+00  1.23755293E+01
  1.23755293E+01 -2.47510585E+01  0.00000000E+00  1.23755293E+01  1.23755293E+01
 -2.47510585E+01  0.00000000E+00  1.23755293E+01  1.23755293E+01 -2.47510585E+01
  0.00000000E+00  1.23755293E+01  1.23755293E+01 -2.47510585E+01  0.00000000E+00
  1.23755293E+01  1.23755293E+01 -2.47510585E+01  0.00000000E+00  1.23755293E+01
  1.23755293E+01 -2.47510585E+01  0.00000000E+00  1.23755293E+01  1.23755293E+01
 -2.47510585E+01  0.00000000E+00  1.23755293E+01  1.23755293E+01 -2.47510585E+01
  0.00000000E+00  1.23755293E+01  1.23755293E+01 -2.47510585E+01  0.00000000E+00
  1.23755293E+01  1.23755293E+01 -2.47510585E+01  0.00000000E+00  1.23755293E+01
  1.23755293E+01 -2.47510585E+01  0.00000000E+00  1.23755293E+01  1.23755293E+01
 -2.47510585E+01  0.00000000E+00  1.23755293E+01  1.23755293E+01 -2.47510585E+01
  0.00000000E+00  1.23755293E+01  1.23755293E+01 -2.47510585E+01  0.00000000E+00
  1.23755293E+01  1.23755293E+01 -2.47510585E+01  0.00000000E+00  1.23755293E+01
  1.23755293E+01 -2.47510585E+01  0.00000000E+00  1.23755293E+01  1.23755293E+01
 -2.47510585E+01  0.00000000E+00  1.23755293E+01  1.23755293E+01 -2.47510585E+01
  0.00000000E+00  1.23755293E+01  1.23755293E+01 -2.47510585E+01  0.00000000E+00
  1.23755293E+01  1.23755293E+01 -2.47510585E+01  0.00000000E+00  1.23755293E+01
  1.23755293E+01 -2.47510585E+01  0.00000000E+00  1.23755293E+01  1.23755293E+01
 -2.47510585E+01  0.00000000E+00  1.23755293E+01  1.23755293E+01 -2.47510585E+01
  0.00000000E+00  1.23755293E+01  1.23755293E+01 -2.47510585E+01  0.00000000E+00
  1.23755293E+01  1.23755293E+01 -2.47510585E+01  0.00000000E+00  1.23755293E+01
  1.23755293E+01 -2.47510585E+01  0.00000000E+00  1.23755293E+01  1.23755293E+01
 -2.47510585E+01  0.00000000E+00  1.23755293E+01  1.23755293E+01 -2.47510585E+01
  0.00000000E+00  1.23755293E+01  1.23755293E+01 -2.47510585E+01  0.00000000E+00
  1.23755293E+01  1.23755293E+01 -2.47510585E+01  0.00000000E+00  1.23755293E+01
  1.23755293E+01 -2.47510585E+01  0.00000000E+00  1.23755293E+01  1.23755293E+01
 -2.47510585E+01  0.00000000E+00  1.23755293E+01  1.23755293E+01 -2.47510585E+01
  0.00000000E+00  1.23755293E+01  1.23755293E+01 -2.47510585E+01  0.00000000E+00
  1.23755293E+01  1.23755293E+01 -2.47510585E+01  0.00000000E+00  1.23755293E+01
  1.23755293E+01 -2.47510585E+01  0.00000000E+00  1.23755293E+01  1.23755293E+01
 -2.47510585E+01  0.00000000E+00  1.23755293E+01  1.23755293E+01 -2.47510585E+01
  0.00000000E+00  1.23755293E+01  1.23755293E+01 -2.47510585E+01  0.00000000E+00
  1.23755293E+01  1.23755293E+01 -2.47510585E+01  0.00000000E+00  1.23755293E+01
  1.23755293E+01 -2.47510585E+01  0.00000000E+00  1.23755293E+01  1.23755293E+01
 -2.47510585E+01  0.00000000E+00  1.23755293E+01  1.23755293E+01 -2.47510585E+01
  0.00000000E+00  1.23755293E+01  1.23755293E+01 -2.47510585E+01  0.00000000E+00
  1.23755293E+01  1.23755293E+01 -2.47510585E+01  0.00000000E+00  1.23755293E+01
  1.23755293E+01 -2.47510585E+01  0.00000000E+00  1.23755293E+01  1.23755293E+01
 -2.47510585E+01  0.00000000E+00  1.23755293E+01  1.23755293E+01 -2.47510585E+01
  0.00000000E+00  1.23755293E+01  1.23755293E+01 -2.47510585E+01  0.00000000E+00
  1.23755293E+01  1.23755293E+01 -2.47510585E+01  0.00000000E+00  1.23755293E+01
  1.23755293E+01 -2.47510585E+01  0.00000000E+00  1.23755293E+01  1.23755293E+01
 -2.47510585E+01  0.00000000E+00  1.23755293E+01  1.23755293E+01 -2.47510585E+01
  0.00000000E+00  1.23755293E+01  1.23755293E+01 -2.47510585E+01  0.00000000E+00
  1.23755293E+01  1.23755293E+01 -2.47510585E+01  0.00000000E+00  1.23755293E+01
  1.23755293E+01 -2.47510585E+01  0.00000000E+00  1.23755293E+01  1.23755293E+01
 -2.47510585E+01  0.00000000E+00  1.23755293E+01  1.23755293E+01 -2.47510585E+01
  0.00000000E+00  1.23755293E+01  1.23755293E+01 -2.47510585E+01  0.00000000E+00
  1.23755293E+01  1.23755293E+01 -2.47510585E+01  0.00000000E+00  1.23755293E+01
  1.23755293E+01 -2.47510585E+01  0.00000000E+00  1.23755293E+01  1.23755293E+01
 -2.47510585E+01  0.00000000E+00  1.23755293E+01  1.23755293E+01 -2.47510585E+01
  0.00000000E+00  1.23755293E+01  1.23755293E+01 -2.47510585E+01  0.00000000E+00
  1.23755293E+01  1.23755293E+01 -2.47510585E+01  0.00000000E+00  1.23755293E+01
  1.23755293E+01 -2.47510585E+01  0.00000000E+00  1.23755293E+01  1.23755293E+01
 -2.47510585E+01  0.00000000E+00  1.23755293E+01  1.23755293E+01 -2.47510585E+01
  0.00000000E+00  1.23755293E+01  1.23755293E+01 -2.47510585E+01  0.00000000E+00
  1.23755293E+01  1.23755293E+01 -2.47510585E+01  0.00000000E+00  1.23755293E+01
  1.23755293E+01 -2.47510585E+01  0.00000000E+00  1.23755293E+01  1.23755293E+01
 -2.47510585E+01  0.00000000E+00  1.23755293E+01  1.23755293E+01 -2.47510585E+01
  0.00000000E+00  1.23755293E+01  1.23755293E+01 -2.47510585E+01  0.00000000E+00
  1.23755293E+01  1.23755293E+01 -2.47510585E+01  0.00000000E+00  1.23755293E+01
  1.23755293E+01 -2.47510585E+01  0.00000000E+00  1.23755293E+01  1.23755293E+01
 -2.47510585E+01  0.00000000E+00  1.23755293E+01  1.23755293E+01 -2.47510585E+01
  0.00000000E+00  1.23755293E+01  1.23755293E+01 -2.47510585E+01  0.00000000E+00
  1.23755293E+01  1.23755293E+01 -2.47510585E+01  0.00000000E+00  1.23755293E+01
  1.23755293E+01 -2.47510585E+01  0.00000000E+00  1.23755293E+01  1.23755293E+01
 -2.47510585E+01  0.00000000E+00  1.23755293E+01  1.23755293E+01 -2.47510585E+01
  0.00000000E+00  1.23755293E+01  1.23755293E+01 -2.47510585E+01  0.00000000E+00
  1.23755293E+01  1.23755293E+01 -2.47510585E+01  0.00000000E+00  1.23755293E+01
  1.23755293E+01 -2.47510585E+01  0.00000000E+00  1.23755293E+01  1.23755293E+01
 -2.47510585E+01  0.00000000E+00  1.23755293E+01  1.23755293E+01 -2.47510585E+01
  0.00000000E+00  1.23755293E+01  1.23755293E+01 -2.47510585E+01  0.00000000E+00
  1.23755293E+01  1.23755293E+01 -2.47510585E+01  0.00000000E+00  1.23755293E+01
  1.23755293E+01 -2.47510585E+01  0.00000000E+00  1.23755293E+01  1.23755293E+01
 -2.47510585E+01  0.00000000E+00  1.23755293E+01  1.23755293E+01 -2.47510585E+01
  0.00000000E+00  1.23755293E+01  1.23755293E+01 -2.47510585E+01  0.00000000E+00
  1.23755293E+01  1.23755293E+01 -2.47510585E+01  0.00000000E+00  1.23755293E+01
  1.23755293E+01 -2.47510585E+01  0.00000000E+00  1.23755293E+01  1.23755293E+01
 -2.47510585E+01  0.00000000E+00  1.23755293E+01  1.23755293E+01 -2.47510585E+01
  0.00000000E+00  1.23755293E+01  1.23755293E+01 -2.47510585E+01  0.00000000E+00
  1.23755293E+01  1.23755293E+01 -2.47510585E+01  0.00000000E+00  1.23755293E+01
  1.23755293E+01 -2.47510585E+01  0.00000000E+00  1.23755293E+01  1.23755293E+01
 -2.47510585E+01  0.00000000E+00  1.23755293E+01  1.23755293E+01 -2.47510585E+01
  0.00000000E+00  1.23755293E+01  1.23755293E+01 -2.47510585E+01  0.00000000E+00
  1.23755293E+01  1.23755293E+01 -2.47510585E+01  0.00000000E+00  1.23755293E+01
  1.23755293E+01 -2.47510585E+01  0.00000000E+00  1.23755293E+01  1.23755293E+01
 -2.47510585E+01  0.00000000E+00  1.23755293E+01  1.23755293E+01 -2.47510585E+01
  0.00000000E+00  1.23755293E+01  1.23755293E+01 -2.47510585E+01  0.00000000E+00
  1.23755293E+01  1.23755293E+01 -2.47510585E+01  0.00000000E+00  1.23755293E+01
  1.23755293E+01 -2.47510585E+01  0.00000000E+00  1.23755293E+01  1.23755293E+01
 -2.47510585E+01  0.00000000E+00  1.23755293E+01  1.23755293E+01 -2.47510585E+01
  0.00000000E+00  1.23755293E+01  1.23755293E+01 -2.47510585E+01  0.00000000E+00
  1.23755293E+01  1.23755293E+01 -2.47510585E+01  0.00000000E+00  1.23755293E+01
  1.23755293E+01 -2.47510585E+01  0.00000000E+00  1.23755293E+01  1.23755293E+01
 -2.47510585E+01  0.00000000E+00  1.23755293E+01  1.23755293E+01 -2.47510585E+01
  0.00000000E+00  1.23755293E+01  1.23755293E+01 -2.47510585E+01  0.00000000E+00
  1.23755293E+01  1.23755293E+01 -2.47510585E+01  0.00000000E+00  1.23755293E+01
  1.23755293E+01 -2.47510585E+01  0.00000000E+00  1.23755293E+01  1.23755293E+01
 -2.47510585E+01  0.00000000E+00  1.23755293E+01  1.23755293E+01 -2.47510585E+01
  0.00000000E+00  1.23755293E+01  1.23755293E+01 -2.47510585E+01  0.00000000E+00
  1.23755293E+01  1.23755293E+01 -2.47510585E+01  0.00000000E+00  1.23755293E+01
  1.23755293E+01 -2.47510585E+01  0.00000000E+00  1.23755293E+01  1.23755293E+01
 -2.47510585E+01  0.00000000E+00  1.23755293E+01  1.23755293E+01 -2.47510585E+01
  0.00000000E+00  1.23755293E+01  1.23755293E+01 -2.47510585E+01  0.00000000E+00
  1.23755293E+01  1.23755293E+01 -2.47510585E+01  0.00000000E+00  1.23755293E+01
  1.23755293E+01 -2.47510585E+01  0.00000000E+00  1.23755293E+01  1.23755293E+01
 -2.47510585E+01  0.00000000E+00  1.23755293E+01  1.23755293E+01 -2.47510585E+01
  0.00000000E+00  1.23755293E+01  1.23755293E+01 -2.47510585E+01  0.00000000E+00
  1.23755293E+01  1.23755293E+01 -2.47510585E+01  0.00000000E+00  1.23755293E+01
  1.23755293E+01 -2.47510585E+01  0.00000000E+00  1.23755293E+01  1.23755293E+01
 -2.47510585E+01  0.00000000E+00  1.23755293E+01  1.23755293E+01 -2.47510585E+01
  0.00000000E+00  1.23755293E+01  1.23755293E+01 -2.47510585E+01  0.00000000E+00
  1.23755293E+01  1.23755293E+01 -2.47510585E+01  0.00000000E+00  1.23755293E+01
  1.23755293E+01 -2.47510585E+01  0.00000000E+00  1.23755293E+01  1.23755293E+01
 -2.47510585E+01  0.00000000E+00  1.23755293E+01  1.23755293E+01 -2.47510585E+01
  0.00000000E+00  1.23755293E+01  1.23755293E+01 -2.47510585E+01  0.00000000E+00
  1.23755293E+01  1.23755293E+01 -2.47510585E+01  0.00000000E+00  1.23755293E+01
  1.23755293E+01 -2.47510585E+01  0.00000000E+00  1.23755293E+01  1.23755293E+01
 -2.47510585E+01  0.00000000E+00  1.23755293E+01  1.23755293E+01 -2.47510585E+01
  0.00000000E+00  1.23755293E+01  1.23755293E+01 -2.47510585E+01  0.00000000E+00
  1.23755293E+01  1.23755293E+01 -2.47510585E+01  0.00000000E+00  1.23755293E+01
  1.23755293E+01 -2.47510585E+01  0.00000000E+00  1.23755293E+01  1.23755293E+01
 -2.47510585E+01  0.00000000E+00  1.23755293E+01  1.23755293E+01 -2.47510585E+01
  0.00000000E+00  1.23755293E+01  1.23755293E+01 -2.47510585E+01  0.00000000E+00
  1.23755293E+01  1.23755293E+01 -2.47510585E+01  0.00000000E+00  1.23755293E+01
  1.23755293E+01 -2.47510585E+01  0.00000000E+00  1.23755293E+01  1.23755293E+01
 -2.47510585E+01  0.00000000E+00  1.23755293E+01  1.23755293E+01 -2.47510585E+01
  0.00000000E+00  1.23755293E+01  1.23755293E+01 -2.47510585E+01  0.00000000E+00
  1.23755293E+01  1.23755293E+01 -2.47510585E+01  0.00000000E+00  1.23755293E+01
  1.23755293E+01 -2.47510585E+01  0.00000000E+00  1.23755293E+01  1.23755293E+01
 -2.47510585E+01  0.00000000E+00  1.23755293E+01  1.23755293E+01 -2.47510585E+01
  0.00000000E+00  1.23755293E+01  1.23755293E+01 -2.47510585E+01  0.00000000E+00
  1.23755293E+01  1.23755293E+01 -2.47510585E+01  0.00000000E+00  1.23755293E+01
  1.23755293E+01 -2.47510585E+01  0.00000000E+00  1.23755293E+01  1.23755293E+01
 -2.47510585E+01  0.00000000E+00  1.23755293E+01  1.23755293E+01 -2.47510585E+01
  0.00000000E+00  1.23755293E+01  1.23755293E+01 -2.47510585E+01  0.00000000E+00
  1.23755293E+01  1.23755293E+01 -2.47510585E+01  0.00000000E+00  1.23755293E+01
  1.23755293E+01 -2.47510585E+01  0.00000000E+00  1.23755293E+01  1.23755293E+01
 -2.47510585E+01  0.00000000E+00  1.23755293E+01  1.23755293E+01 -2.47510585E+01
  0.00000000E+00  1.23755293E+01  1.23755293E+01 -2.47510585E+01  0.00000000E+00
  1.23755293E+01  1.23755293E+01 -2.47510585E+01  0.00000000E+00  1.23755293E+01
  1.23755293E+01 -2.47510585E+01  0.00000000E+00  1.23755293E+01  1.23755293E+01
 -2.47510585E+01  0.00000000E+00  1.23755293E+01  1.23755293E+01 -2.47510585E+01
  0.00000000E+00  1.23755293E+01  1.23755293E+01 -2.47510585E+01  0.00000000E+00
  1.23755293E+01  1.23755293E+01 -2.47510585E+01  0.00000000E+00  1.23755293E+01
  1.23755293E+01 -2.47510585E+01  0.00000000E+00  1.23755293E+01  1.23755293E+01
 -2.47510585E+01  0.00000000E+00  1.23755293E+01  1.23755293E+01 -2.47510585E+01
  0.00000000E+00  1.23755293E+01  1.23755293E+01 -2.47510585E+01  0.00000000E+00
  1.23755293E+01  1.23755293E+01 -2.47510585E+01  0.00000000E+00  1.23755293E+01
  1.23755293E+01 -2.47510585E+01  0.00000000E+00  1.23755293E+01  1.23755293E+01
 -2.47510585E+01  0.00000000E+00  1.23755293E+01  1.23755293E+01 -2.47510585E+01
  0.00000000E+00  1.23755293E+01  1.23755293E+01 -2.47510585E+01  0.00000000E+00
  1.23755293E+01  1.23755293E+01 -2.47510585E+01  0.00000000E+00  1.23755293E+01
  1.23755293E+01 -2.47510585E+01  0.00000000E+00  1.23755293E+01  1.23755293E+01
 -2.47510585E+01  0.00000000E+00  1.23755293E+01  1.23755293E+01 -2.47510585E+01
  0.00000000E+00  1.23755293E+01  1.23755293E+01 -2.47510585E+01  0.00000000E+00
  1.23755293E+01  1.23755293E+01 -2.47510585E+01  0.00000000E+00  1.23755293E+01
  1.23755293E+01 -2.47510585E+01  0.00000000E+00  1.23755293E+01  1.23755293E+01
 -2.47510585E+01  0.00000000E+00  1.23755293E+01  1.23755293E+01 -2.47510585E+01
  0.00000000E+00  1.23755293E+01  1.23755293E+01 -2.47510585E+01  0.00000000E+00
  1.23755293E+01  1.23755293E+01 -2.47510585E+01  0.00000000E+00  1.23755293E+01
  1.23755293E+01 -2.47510585E+01  0.00000000E+00  1.23755293E+01  1.23755293E+01
 -2.47510585E+01  0.00000000E+00  1.23755293E+01  1.23755293E+01 -2.47510585E+01
  0.00000000E+00  1.23755293E+01  1.23755293E+01 -2.47510585E+01  0.00000000E+00
  1.23755293E+01  1.23755293E+01 -2.47510585E+01  0.00000000E+00  1.23755293E+01
  1.23755293E+01 -2.47510585E+01  0.00000000E+00  1.23755293E+01  1.23755293E+01
 -2.47510585E+01  0.00000000E+00  1.23755293E+01  1.23755293E+01 -2.47510585E+01
  0.00000000E+00  1.23755293E+01  1.23755293E+01 -2.47510585E+01  0.00000000E+00
  1.23755293E+01  1.23755293E+01 -2.47510585E+01  0.00000000E+00  1.23755293E+01
  1.23755293E+01 -2.47510585E+01  0.00000000E+00  1.23755293E+01  1.23755293E+01
 -2.47510585E+01  0.00000000E+00  1.23755293E+01  1.23755293E+01 -2.47510585E+01
  0.00000000E+00  1.23755293E+01  1.23755293E+01 -2.47510585E+01  0.00000000E+00
  1.23755293E+01  1.23755293E+01 -2.47510585E+01  0.00000000E+00  1.23755293E+01
  1.23755293E+01 -2.47510585E+01  0.00000000E+00  1.23755293E+01  1.23755293E+01
 -2.47510585E+01  0.00000000E+00  1.23755293E+01  1.23755293E+01 -2.47510585E+01
  0.00000000E+00  1.23755293E+01  1.23755293E+01 -2.47510585E+01  0.00000000E+00
  1.23755293E+01  1.23755293E+01 -2.47510585E+01  0.00000000E+00  1.23755293E+01
  1.23755293E+01 -2.47510585E+01  0.00000000E+00  1.23755293E+01  1.23755293E+01
 -2.47510585E+01  0.00000000E+00  1.23755293E+01  1.23755293E+01 -2.47510585E+01
  0.00000000E+00  1.23755293E+01  1.23755293E+01 -2.47510585E+01  0.00000000E+00
  1.23755293E+01  1.23755293E+01 -2.47510585E+01  0.00000000E+00  1.23755293E+01
  1.23755293E+01 -2.47510585E+01  0.00000000E+00  1.23755293E+01  1.23755293E+01
 -2.47510585E+01  0.00000000E+00  1.23755293E+01  1.23755293E+01 -2.47510585E+01
  0.00000000E+00  1.23755293E+01  1.23755293E+01 -2.47510585E+01  0.00000000E+00
  1.23755293E+01  1.23755293E+01 -2.47510585E+01  0.00000000E+00  1.23755293E+01
  1.23755293E+01 -2.47510585E+01  0.00000000E+00  1.23755293E+01  1.23755293E+01
 -2.47510585E+01  0.00000000E+00  1.23755293E+01  1.23755293E+01 -2.47510585E+01
  0.00000000E+00  1.23755293E+01  1.23755293E+01 -2.47510585E+01  0.00000000E+00
  1.23755293E+01  1.23755293E+01 -2.47510585E+01  0.00000000E+00  1.23755293E+01
  1.23755293E+01 -2.47510585E+01  0.00000000E+00  1.23755293E+01  1.23755293E+01
 -2.47510585E+01  0.00000000E+00  1.23755293E+01  1.23755293E+01 -2.47510585E+01
  0.00000000E+00  1.23755293E+01  1.23755293E+01 -2.47510585E+01  0.00000000E+00
  1.23755293E+01  1.23755293E+01 -2.47510585E+01  0.00000000E+00  1.23755293E+01
  1.23755293E+01 -2.47510585E+01  0.00000000E+00  1.23755293E+01  1.23755293E+01
 -2.47510585E+01  0.00000000E+00  1.23755293E+01  1.23755293E+01 -2.47510585E+01
  0.00000000E+00  1.23755293E+01  1.23755293E+01 -2.47510585E+01  0.00000000E+00
  1.23755293E+01  1.23755293E+01 -2.47510585E+01  0.00000000E+00  1.23755293E+01
  1.23755293E+01 -2.47510585E+01  0.00000000E+00  1.23755293E+01  1.23755293E+01
 -2.47510585E+01  0.00000000E+00  1.23755293E+01  1.23755293E+01 -2.47510585E+01
  0.00000000E+00  1.23755293E+01  1.23755293E+01 -2.47510585E+01  0.00000000E+00
  1.23755293E+01  1.23755293E+01 -2.47510585E+01  0.00000000E+00  1.23755293E+01
  1.23755293E+01 -2.47510585E+01  0.00000000E+00  1.23755293E+01  1.23755293E+01
 -2.47510585E+01  0.00000000E+00  1.23755293E+01  1.23755293E+01 -2.47510585E+01
  0.00000000E+00  1.23755293E+01  1.23755293E+01 -2.47510585E+01  0.00000000E+00
  1.23755293E+01  1.23755293E+01 -2.47510585E+01  0.00000000E+00  1.23755293E+01
  1.23755293E+01 -2.47510585E+01  0.00000000E+00  1.23755293E+01  1.23755293E+01
 -2.47510585E+01  0.00000000E+00  1.23755293E+01  1.23755293E+01 -2.47510585E+01
  0.00000000E+00  1.23755293E+01  1.23755293E+01 -2.47510585E+01  0.00000000E+00
  1.23755293E+01  1.23755293E+01 -2.47510585E+01  0.00000000E+00  1.23755293E+01
  1.23755293E+01 -2.47510585E+01  0.00000000E+00  1.23755293E+01  1.23755293E+01
 -2.47510585E+01  0.00000000E+00  1.23755293E+01  1.23755293E+01 -2.47510585E+01
  0.00000000E+00  1.23755293E+01  1.23755293E+01 -2.47510585E+01  0.00000000E+00
  1.23755293E+01  1.23755293E+01 -2.47510585E+01  0.00000000E+00  1.23755293E+01
  1.23755293E+01 -2.47510585E+01  0.00000000E+00  1.23755293E+01  1.23755293E+01
 -2.47510585E+01  0.00000000E+00  1.23755293E+01  1.23755293E+01 -2.47510585E+01
  0.00000000E+00  1.23755293E+01  1.23755293E+01 -2.47510585E+01  0.00000000E+00
  1.23755293E+01  1.23755293E+01 -2.47510585E+01  0.00000000E+00  1.23755293E+01
  1.23755293E+01 -2.47510585E+01  0.00000000E+00  1.23755293E+01  1.23755293E+01
 -2.47510585E+01  0.00000000E+00  1.23755293E+01  1.23755293E+01 -2.47510585E+01
  0.00000000E+00  1.23755293E+01  1.23755293E+01 -2.47510585E+01  0.00000000E+00
  1.23755293E+01  1.23755293E+01 -2.47510585E+01  0.00000000E+00  1.23755293E+01
  1.23755293E+01 -2.47510585E+01  0.00000000E+00  1.23755293E+01  1.23755293E+01
 -2.47510585E+01  0.00000000E+00  1.23755293E+01  1.23755293E+01 -2.47510585E+01
  0.00000000E+00  1.23755293E+01  1.23755293E+01 -2.47510585E+01  0.00000000E+00
  1.23755293E+01  1.23755293E+01 -2.47510585E+01  0.00000000E+00  1.23755293E+01
  1.23755293E+01 -2.47510585E+01  0.00000000E+00  1.23755293E+01  1.23755293E+01
 -2.47510585E+01  0.00000000E+00  1.23755293E+01  1.23755293E+01 -2.47510585E+01
  0.00000000E+00  1.23755293E+01  1.23755293E+01 -2.47510585E+01  0.00000000E+00
  1.23755293E+01  1.23755293E+01 -2.47510585E+01  0.00000000E+00  1.23755293E+01
  1.23755293E+01 -2.47510585E+01  0.00000000E+00  1.23755293E+01  1.23755293E+01
 -2.47510585E+01  0.00000000E+00  1.23755293E+01  1.23755293E+01 -2.47510585E+01
  0.00000000E+00  1.23755293E+01  1.23755293E+01 -2.47510585E+01  0.00000000E+00
  1.23755293E+01  1.23755293E+01 -2.47510585E+01  0.00000000E+00  1.23755293E+01
  1.23755293E+01 -2.47510585E+01  0.00000000E+00  1.23755293E+01  1.23755293E+01
 -2.47510585E+01  0.00000000E+00  1.23755293E+01  1.23755293E+01 -2.47510585E+01
  0.00000000E+00  1.23755293E+01  1.23755293E+01 -2.47510585E+01  0.00000000E+00
  1.23755293E+01  1.23755293E+01 -2.47510585E+01  0.00000000E+00  1.23755293E+01
  1.23755293E+01 -2.47510585E+01  0.00000000E+00  1.23755293E+01  1.23755293E+01
 -2.47510585E+01  0.00000000E+00  1.23755293E+01  1.23755293E+01 -2.47510585E+01
  0.00000000E+00  1.23755293E+01  1.23755293E+01 -2.47510585E+01  0.00000000E+00
  1.23755293E+01  1.23755293E+01 -2.47510585E+01  0.00000000E+00  1.23755293E+01
  1.23755293E+01 -2.47510585E+01  0.00000000E+00  1.23755293E+01  1.23755293E+01
 -2.47510585E+01  0.00000000E+00  1.23755293E+01  1.23755293E+01 -2.47510585E+01
  0.00000000E+00  1.23755293E+01  1.23755293E+01 -2.47510585E+01  0.00000000E+00
  1.23755293E+01  1.23755293E+01 -2.47510585E+01  0.00000000E+00  1.23755293E+01
  1.23755293E+01 -2.47510585E+01  0.00000000E+00  1.23755293E+01  1.23755293E+01
 -2.47510585E+01  0.00000000E+00  1.23755293E+01  1.23755293E+01 -2.47510585E+01
  0.00000000E+00  1.23755293E+01  1.23755293E+01 -2.47510585E+01  0.00000000E+00
  1.23755293E+01  1.23755293E+01 -2.47510585E+01  0.00000000E+00  1.23755293E+01
  1.23755293E+01 -2.47510585E+01  0.00000000E+00  1.23755293E+01  1.23755293E+01
 -2.47510585E+01  0.00000000E+00  1.23755293E+01  1.23755293E+01 -2.47510585E+01
  0.00000000E+00  1.23755293E+01  1.23755293E+01 -2.47510585E+01  0.00000000E+00
  1.23755293E+01  1.23755293E+01 -2.47510585E+01  0.00000000E+00  1.23755293E+01
  1.23755293E+01 -2.47510585E+01  0.00000000E+00  1.23755293E+01  1.23755293E+01
 -2.47510585E+01  0.00000000E+00  1.23755293E+01  1.23755293E+01 -2.47510585E+01
  0.00000000E+00  1.23755293E+01  1.23755293E+01 -2.47510585E+01  0.00000000E+00
  1.23755293E+01  1.23755293E+01 -2.47510585E+01  0.00000000E+00  1.23755293E+01
  1.23755293E+01 -2.47510585E+01  0.00000000E+00  1.23755293E+01  1.23755293E+01
 -2.47510585E+01  0.00000000E+00  1.23755293E+01  1.23755293E+01 -2.47510585E+01
  0.00000000E+00  1.23755293E+01  1.23755293E+01 -2.47510585E+01  0.00000000E+00
  1.23755293E+01  1.23755293E+01 -2.47510585E+01  0.00000000E+00  1.23755293E+01
  1.23755293E+01 -2.47510585E+01  0.00000000E+00  1.23755293E+01  1.23755293E+01
 -2.47510585E+01  0.00000000E+00  1.23755293E+01  1.23755293E+01 -2.47510585E+01
  0.00000000E+00  1.23755293E+01  1.23755293E+01 -2.47510585E+01  0.00000000E+00
  1.23755293E+01  1.23755293E+01 -2.47510585E+01  0.00000000E+00  1.23755293E+01
  1.23755293E+01 -2.47510585E+01  0.00000000E+00  1.23755293E+01  1.23755293E+01
 -2.47510585E+01  0.00000000E+00  1.23755293E+01  1.23755293E+01 -2.47510585E+01
  0.00000000E+00  1.23755293E+01  1.23755293E+01 -2.47510585E+01  0.00000000E+00
  1.23755293E+01  1.23755293E+01 -2.47510585E+01  0.00000000E+00  1.23755293E+01
  1.23755293E+01 -2.47510585E+01  0.00000000E+00  1.23755293E+01  1.23755293E+01
 -2.47510585E+01  0.00000000E+00  1.23755293E+01  1.23755293E+01 -2.47510585E+01
  0.00000000E+00  1.23755293E+01  1.23755293E+01 -2.47510585E+01  0.00000000E+00
  1.23755293E+01  1.23755293E+01 -2.47510585E+01  0.00000000E+00  1.23755293E+01
  1.23755293E+01 -2.47510585E+01  0.00000000E+00  1.23755293E+01  1.23755293E+01
 -2.47510585E+01  0.00000000E+00  1.23755293E+01  1.23755293E+01 -2.47510585E+01
  0.00000000E+00  1.23755293E+01  1.23755293E+01 -2.47510585E+01  0.00000000E+00
  1.23755293E+01  1.23755293E+01 -2.47510585E+01  0.00000000E+00  1.23755293E+01
  1.23755293E+01 -2.47510585E+01  0.00000000E+00  1.23755293E+01  1.23755293E+01
 -2.47510585E+01  0.00000000E+00  1.23755293E+01  1.23755293E+01 -2.47510585E+01
  0.00000000E+00  1.23755293E+01  1.23755293E+01 -2.47510585E+01  0.00000000E+00
  1.23755293E+01  1.23755293E+01 -2.47510585E+01  0.00000000E+00  1.23755293E+01
  1.23755293E+01 -2.47510585E+01  0.00000000E+00  1.23755293E+01  1.23755293E+01
 -2.47510585E+01  0.00000000E+00  1.23755293E+01  1.23755293E+01 -2.47510585E+01
  0.00000000E+00  1.23755293E+01  1.23755293E+01 -2.47510585E+01  0.00000000E+00
  1.23755293E+01  1.23755293E+01 -2.47510585E+01  0.00000000E+00  1.23755293E+01
  1.23755293E+01 -2.47510585E+01  0.00000000E+00  1.23755293E+01  1.23755293E+01
 -2.47510585E+01  0.00000000E+00  1.23755293E+01  1.23755293E+01 -2.47510585E+01
  0.00000000E+00  1.23755293E+01  1.23755293E+01 -2.47510585E+01  0.00000000E+00
  1.23755293E+01  1.23755293E+01 -2.47510585E+01  0.00000000E+00  1.23755293E+01
  1.23755293E+01 -2.47510585E+01  0.00000000E+00  1.23755293E+01  1.23755293E+01
 -2.47510585E+01  0.00000000E+00  1.23755293E+01  1.23755293E+01 -2.47510585E+01
  0.00000000E+00  1.23755293E+01  1.23755293E+01 -2.47510585E+01  0.00000000E+00
  1.23755293E+01  1.23755293E+01 -2.47510585E+01  0.00000000E+00  1.23755293E+01
  1.23755293E+01 -2.47510585E+01  0.00000000E+00  1.23755293E+01  1.23755293E+01
 -2.47510585E+01  0.00000000E+00  1.23755293E+01  1.23755293E+01 -2.47510585E+01
  0.00000000E+00  1.23755293E+01  1.23755293E+01 -2.47510585E+01  0.00000000E+00
  1.23755293E+01  1.23755293E+01 -2.47510585E+01  0.00000000E+00  1.23755293E+01
  1.23755293E+01 -2.47510585E+01  0.00000000E+00  1.23755293E+01  1.23755293E+01
 -2.47510585E+01  0.00000000E+00  1.23755293E+01  1.23755293E+01 -2.47510585E+01
  0.00000000E+00  1.23755293E+01  1.23755293E+01 -2.47510585E+01  0.00000000E+00
  1.23755293E+01  1.23755293E+01 -2.47510585E+01  0.00000000E+00  1.23755293E+01
  1.23755293E+01 -2.47510585E+01  0.00000000E+00  1.23755293E+01  1.23755293E+01
 -2.47510585E+01  0.00000000E+00  1.23755293E+01  1.23755293E+01 -2.47510585E+01
  0.00000000E+00  1.23755293E+01  1.23755293E+01 -2.47510585E+01  0.00000000E+00
  1.23755293E+01  1.23755293E+01 -2.47510585E+01  0.00000000E+00  1.23755293E+01
  1.23755293E+01 -2.47510585E+01  0.00000000E+00  1.23755293E+01  1.23755293E+01
 -2.47510585E+01  0.00000000E+00  1.23755293E+01  1.23755293E+01 -2.47510585E+01
  0.00000000E+00  1.23755293E+01  1.23755293E+01 -2.47510585E+01  0.00000000E+00
  1.23755293E+01  1.23755293E+01 -2.47510585E+01  0.00000000E+00  1.23755293E+01
  1.23755293E+01 -2.47510585E+01  0.00000000E+00  1.23755293E+01  1.23755293E+01
 -2.47510585E+01  0.00000000E+00  1.23755293E+01  1.23755293E+01 -2.47510585E+01
  0.00000000E+00  1.23755293E+01  1.23755293E+01 -2.47510585E+01  0.00000000E+00
  1.23755293E+01  1.23755293E+01 -2.47510585E+01  0.00000000E+00  1.23755293E+01
  1.23755293E+01 -2.47510585E+01  0.00000000E+00  1.23755293E+01  1.23755293E+01
 -2.47510585E+01  0.00000000E+00  1.23755293E+01  1.23755293E+01 -2.47510585E+01
  0.00000000E+00  1.23755293E+01  1.23755293E+01 -2.47510585E+01  0.00000000E+00
  1.23755293E+01  1.23755293E+01 -2.47510585E+01  0.00000000E+00  1.23755293E+01
  1.23755293E+01 -2.47510585E+01  0.00000000E+00  1.23755293E+01  1.23755293E+01
 -2.47510585E+01  0.00000000E+00  1.23755293E+01  1.23755293E+01 -2.47510585E+01
  0.00000000E+00  1.23755293E+01  1.23755293E+01 -2.47510585E+01  0.00000000E+00
  1.23755293E+01  1.23755293E+01 -2.47510585E+01  0.00000000E+00  1.23755293E+01
  1.23755293E+01 -2.47510585E+01  0.00000000E+00  1.23755293E+01  1.23755293E+01
 -2.47510585E+01  0.00000000E+00  1.23755293E+01  1.23755293E+01 -2.47510585E+01
  0.00000000E+00  1.23755293E+01  1.23755293E+01 -2.47510585E+01  0.00000000E+00
  1.23755293E+01  1.23755293E+01 -2.47510585E+01  0.00000000E+00  1.23755293E+01
  1.23755293E+01 -2.47510585E+01  0.00000000E+00  1.23755293E+01  1.23755293E+01
 -2.47510585E+01  0.00000000E+00  1.23755293E+01  1.23755293E+01 -2.47510585E+01
  0.00000000E+00  1.23755293E+01  1.23755293E+01 -2.47510585E+01  0.00000000E+00
  1.23755293E+01  1.23755293E+01 -2.47510585E+01  0.00000000E+00  1.23755293E+01
  1.23755293E+01 -2.47510585E+01  0.00000000E+00  1.23755293E+01  1.23755293E+01
 -2.47510585E+01  0.00000000E+00  1.23755293E+01  1.23755293E+01 -2.47510585E+01
  0.00000000E+00  1.23755293E+01  1.23755293E+01 -2.47510585E+01  0.00000000E+00
  1.23755293E+01  1.23755293E+01 -2.47510585E+01  0.00000000E+00  1.23755293E+01
  1.23755293E+01 -2.47510585E+01  0.00000000E+00  1.23755293E+01  1.23755293E+01
 -2.47510585E+01  0.00000000E+00  1.23755293E+01  1.23755293E+01 -2.47510585E+01
  0.00000000E+00  1.23755293E+01  1.23755293E+01 -2.47510585E+01  0.00000000E+00
  1.23755293E+01  1.23755293E+01 -2.47510585E+01  0.00000000E+00  1.23755293E+01
  1.23755293E+01 -2.47510585E+01  0.00000000E+00  1.23755293E+01  1.23755293E+01
 -2.47510585E+01  0.00000000E+00  1.23755293E+01  1.23755293E+01 -2.47510585E+01
  0.00000000E+00  1.23755293E+01  1.23755293E+01 -2.47510585E+01  0.00000000E+00
  1.23755293E+01  1.23755293E+01 -2.47510585E+01  0.00000000E+00  1.23755293E+01
  1.23755293E+01 -2.47510585E+01  0.00000000E+00  1.23755293E+01  1.23755293E+01
 -2.47510585E+01  0.00000000E+00  1.23755293E+01  1.23755293E+01 -2.47510585E+01
  0.00000000E+00  1.23755293E+01  1.23755293E+01 -2.47510585E+01  0.00000000E+00
  1.23755293E+01  1.23755293E+01 -2.47510585E+01  0.00000000E+00  1.23755293E+01
  1.23755293E+01 -2.47510585E+01  0.00000000E+00  1.23755293E+01  1.23755293E+01
 -2.47510585E+01  0.00000000E+00  1.23755293E+01  1.23755293E+01 -2.47510585E+01
  0.00000000E+00  1.23755293E+01  1.23755293E+01 -2.47510585E+01  0.00000000E+00
  1.23755293E+01  1.23755293E+01 -2.47510585E+01  0.00000000E+00  1.23755293E+01
  1.23755293E+01 -2.47510585E+01  0.00000000E+00  1.23755293E+01  1.23755293E+01
 -2.47510585E+01  0.00000000E+00  1.23755293E+01  1.23755293E+01 -2.47510585E+01
  0.00000000E+00  1.23755293E+01  1.23755293E+01 -2.47510585E+01  0.00000000E+00
  1.23755293E+01  1.23755293E+01 -2.47510585E+01  0.00000000E+00  1.23755293E+01
  1.23755293E+01 -2.47510585E+01  0.00000000E+00  1.23755293E+01  1.23755293E+01
 -2.47510585E+01  0.00000000E+00  1.23755293E+01  1.23755293E+01 -2.47510585E+01
  0.00000000E+00  1.23755293E+01  1.23755293E+01 -2.47510585E+01  0.00000000E+00
  1.23755293E+01  1.23755293E+01 -2.47510585E+01  0.00000000E+00  1.23755293E+01
  1.23755293E+01 -2.47510585E+01  0.00000000E+00  1.23755293E+01  1.23755293E+01
 -2.47510585E+01  0.00000000E+00  1.23755293E+01  1.23755293E+01 -2.47510585E+01
  0.00000000E+00  1.23755293E+01  1.23755293E+01 -2.47510585E+01  0.00000000E+00
  1.23755293E+01  1.23755293E+01 -2.47510585E+01  0.00000000E+00  1.23755293E+01
  1.23755293E+01 -2.47510585E+01  0.00000000E+00  1.23755293E+01  1.23755293E+01
 -2.47510585E+01  0.00000000E+00  1.23755293E+01  1.23755293E+01 -2.47510585E+01
  0.00000000E+00  1.23755293E+01  1.23755293E+01 -2.47510585E+01  0.00000000E+00
  1.23755293E+01  1.23755293E+01 -2.47510585E+01  0.00000000E+00  1.23755293E+01
  1.23755293E+01 -2.47510585E+01  0.00000000E+00  1.23755293E+01  1.23755293E+01
 -2.47510585E+01  0.00000000E+00  1.23755293E+01  1.23755293E+01 -2.47510585E+01
  0.00000000E+00  1.23755293E+01  1.23755293E+01 -2.47510585E+01  0.00000000E+00
  1.23755293E+01  1.23755293E+01 -2.47510585E+01  0.00000000E+00  1.23755293E+01
  1.23755293E+01 -2.47510585E+01  0.00000000E+00  1.23755293E+01  1.23755293E+01
 -2.47510585E+01  0.00000000E+00  1.23755293E+01  1.23755293E+01 -2.47510585E+01
  0.00000000E+00  1.23755293E+01  1.23755293E+01 -2.47510585E+01  0.00000000E+00
  1.23755293E+01  1.23755293E+01 -2.47510585E+01  0.00000000E+00  1.23755293E+01
  1.23755293E+01 -2.47510585E+01  0.00000000E+00  1.23755293E+01  1.23755293E+01
 -2.47510585E+01  0.00000000E+00  1.23755293E+01  1.23755293E+01 -2.47510585E+01
  0.00000000E+00  1.23755293E+01  1.23755293E+01 -2.47510585E+01  0.00000000E+00
  1.23755293E+01  1.23755293E+01 -2.47510585E+01  0.00000000E+00  1.23755293E+01
  1.23755293E+01 -2.47510585E+01  0.00000000E+00  1.23755293E+01  1.23755293E+01
 -2.47510585E+01  0.00000000E+00  1.23755293E+01  1.23755293E+01 -2.47510585E+01
  0.00000000E+00  1.23755293E+01  1.23755293E+01 -2.47510585E+01  0.00000000E+00
  1.23755293E+01  1.23755293E+01 -2.47510585E+01  0.00000000E+00  1.23755293E+01
  1.23755293E+01 -2.47510585E+01  0.00000000E+00  1.23755293E+01  1.23755293E+01
 -2.47510585E+01  0.00000000E+00  1.23755293E+01  1.23755293E+01 -2.47510585E+01
  0.00000000E+00  1.23755293E+01  1.23755293E+01 -2.47510585E+01  0.00000000E+00
  1.23755293E+01  1.23755293E+01 -2.47510585E+01  0.00000000E+00  1.23755293E+01
  1.23755293E+01 -2.47510585E+01  0.00000000E+00  1.23755293E+01  1.23755293E+01
 -2.47510585E+01  0.00000000E+00  1.23755293E+01  1.23755293E+01 -2.47510585E+01
  0.00000000E+00  1.23755293E+01  1.23755293E+01 -2.47510585E+01  0.00000000E+00
  1.23755293E+01  1.23755293E+01 -2.47510585E+01  0.00000000E+00  1.23755293E+01
  1.23755293E+01 -2.47510585E+01  0.00000000E+00  1.23755293E+01  1.23755293E+01
 -2.47510585E+01  0.00000000E+00  1.23755293E+01  1.23755293E+01 -2.47510585E+01
  0.00000000E+00  1.23755293E+01  1.23755293E+01 -2.47510585E+01  0.00000000E+00
  1.23755293E+01  1.23755293E+01 -2.47510585E+01  0.00000000E+00  1.23755293E+01
  1.23755293E+01 -2.47510585E+01  0.00000000E+00  1.23755293E+01  1.23755293E+01
 -2.47510585E+01  0.00000000E+00  1.23755293E+01  1.23755293E+01 -2.47510585E+01
  0.00000000E+00  1.23755293E+01  1.23755293E+01 -2.47510585E+01  0.00000000E+00
  1.23755293E+01  1.23755293E+01 -2.47510585E+01  0.00000000E+00  1.23755293E+01
  1.23755293E+01 -2.47510585E+01  0.00000000E+00  1.23755293E+01  1.23755293E+01
 -2.47510585E+01  0.00000000E+00  1.23755293E+01  1.23755293E+01 -2.47510585E+01
  0.00000000E+00  1.23755293E+01  1.23755293E+01 -2.47510585E+01  0.00000000E+00
  1.23755293E+01  1.23755293E+01 -2.47510585E+01  0.00000000E+00  1.23755293E+01
  1.23755293E+01 -2.47510585E+01  0.00000000E+00  1.23755293E+01  1.23755293E+01
 -2.47510585E+01  0.00000000E+00  1.23755293E+01  1.23755293E+01 -2.47510585E+01
  0.00000000E+00  1.23755293E+01  1.23755293E+01 -2.47510585E+01  0.00000000E+00
  1.23755293E+01  1.23755293E+01 -2.47510585E+01  0.00000000E+00  1.23755293E+01
  1.23755293E+01 -2.47510585E+01  0.00000000E+00  1.23755293E+01  1.23755293E+01
 -2.47510585E+01  0.00000000E+00  1.23755293E+01  1.23755293E+01 -2.47510585E+01
  0.00000000E+00  1.23755293E+01  1.23755293E+01 -2.47510585E+01  0.00000000E+00
  1.23755293E+01  1.23755293E+01 -2.47510585E+01  0.00000000E+00  1.23755293E+01
  1.23755293E+01 -2.47510585E+01  0.00000000E+00  1.23755293E+01  1.23755293E+01
 -2.47510585E+01  0.00000000E+00  1.23755293E+01  1.23755293E+01 -2.47510585E+01
  0.00000000E+00  1.23755293E+01  1.23755293E+01 -2.47510585E+01  0.00000000E+00
  1.23755293E+01  1.23755293E+01 -2.47510585E+01  0.00000000E+00  1.23755293E+01
  1.23755293E+01 -2.47510585E+01  0.00000000E+00  1.23755293E+01  1.23755293E+01
 -2.47510585E+01  0.00000000E+00  1.23755293E+01  1.23755293E+01 -2.47510585E+01
  0.00000000E+00  1.23755293E+01  1.23755293E+01 -2.47510585E+01  0.00000000E+00
  1.23755293E+01  1.23755293E+01 -2.47510585E+01  0.00000000E+00  1.23755293E+01
  1.23755293E+01 -2.47510585E+01  0.00000000E+00  1.23755293E+01  1.23755293E+01
 -2.47510585E+01  0.00000000E+00  1.23755293E+01  1.23755293E+01 -2.47510585E+01
  0.00000000E+00  1.23755293E+01  1.23755293E+01 -2.47510585E+01  0.00000000E+00
  1.23755293E+01  1.23755293E+01 -2.47510585E+01  0.00000000E+00  1.23755293E+01
  1.23755293E+01 -2.47510585E+01  0.00000000E+00  1.23755293E+01  1.23755293E+01
 -2.47510585E+01  0.00000000E+00  1.23755293E+01  1.23755293E+01 -2.47510585E+01
  0.00000000E+00  1.23755293E+01  1.23755293E+01 -2.47510585E+01  0.00000000E+00
  1.23755293E+01  1.23755293E+01 -2.47510585E+01  0.00000000E+00  1.23755293E+01
  1.23755293E+01 -2.47510585E+01  0.00000000E+00  1.23755293E+01  1.23755293E+01
 -2.47510585E+01  0.00000000E+00  1.23755293E+01  1.23755293E+01 -2.47510585E+01
  0.00000000E+00  1.23755293E+01  1.23755293E+01 -2.47510585E+01  0.00000000E+00
  1.23755293E+01  1.23755293E+01 -2.47510585E+01  0.00000000E+00  1.23755293E+01
  1.23755293E+01 -2.47510585E+01  0.00000000E+00  1.23755293E+01  1.23755293E+01
 -2.47510585E+01  0.00000000E+00  1.23755293E+01  1.23755293E+01 -2.47510585E+01
  0.00000000E+00  1.23755293E+01  1.23755293E+01 -2.47510585E+01  0.00000000E+00
  1.23755293E+01  1.23755293E+01 -2.47510585E+01  0.00000000E+00  1.23755293E+01
  1.23755293E+01 -2.47510585E+01  0.00000000E+00  1.23755293E+01  1.23755293E+01
 -2.47510585E+01  0.00000000E+00  1.23755293E+01  1.23755293E+01 -2.47510585E+01
  0.00000000E+00  1.23755293E+01  1.23755293E+01 -2.47510585E+01  0.00000000E+00
  1.23755293E+01  1.23755293E+01 -2.47510585E+01  0.00000000E+00  1.23755293E+01
  1.23755293E+01 -2.47510585E+01  0.00000000E+00  1.23755293E+01  1.23755293E+01
 -2.47510585E+01  0.00000000E+00  1.23755293E+01  1.23755293E+01 -2.47510585E+01
  0.00000000E+00  1.23755293E+01  1.23755293E+01 -2.47510585E+01  0.00000000E+00
  1.23755293E+01  1.23755293E+01 -2.47510585E+01  0.00000000E+00  1.23755293E+01
  1.23755293E+01 -2.47510585E+01  0.00000000E+00  1.23755293E+01  1.23755293E+01
 -2.47510585E+01  0.00000000E+00  1.23755293E+01  1.23755293E+01 -2.47510585E+01
  0.00000000E+00  1.23755293E+01  1.23755293E+01 -2.47510585E+01  0.00000000E+00
  1.23755293E+01  1.23755293E+01 -2.47510585E+01  0.00000000E+00  1.23755293E+01
  1.23755293E+01 -2.47510585E+01  0.00000000E+00  1.23755293E+01  1.23755293E+01
 -2.47510585E+01  0.00000000E+00  1.23755293E+01  1.23755293E+01 -2.47510585E+01
  0.00000000E+00  1.23755293E+01  1.23755293E+01 -2.47510585E+01  0.00000000E+00
  1.23755293E+01  1.23755293E+01 -2.47510585E+01  0.00000000E+00  1.23755293E+01
  1.23755293E+01 -2.47510585E+01  0.00000000E+00  1.23755293E+01  1.23755293E+01
 -2.47510585E+01  0.00000000E+00  1.23755293E+01  1.23755293E+01 -2.47510585E+01
  0.00000000E+00  1.23755293E+01  1.23755293E+01 -2.47510585E+01  0.00000000E+00
  1.23755293E+01  1.23755293E+01 -2.47510585E+01  0.00000000E+00  1.23755293E+01
  1.23755293E+01 -2.47510585E+01  0.00000000E+00  1.23755293E+01  1.23755293E+01
 -2.47510585E+01  0.00000000E+00  1.23755293E+01  1.23755293E+01 -2.47510585E+01
  0.00000000E+00  1.23755293E+01  1.23755293E+01 -2.47510585E+01  0.00000000E+00
  1.23755293E+01  1.23755293E+01 -2.47510585E+01  0.00000000E+00  1.23755293E+01
  1.23755293E+01 -2.47510585E+01  0.00000000E+00  1.23755293E+01  1.23755293E+01
 -2.47510585E+01  0.00000000E+00  1.23755293E+01  1.23755293E+01 -2.47510585E+01
  0.00000000E+00  1.23755293E+01  1.23755293E+01 -2.47510585E+01  0.00000000E+00
  1.23755293E+01  1.23755293E+01 -2.47510585E+01  0.00000000E+00  1.23755293E+01
  1.23755293E+01 -2.47510585E+01  0.00000000E+00  1.23755293E+01  1.23755293E+01
 -2.47510585E+01  0.00000000E+00  1.23755293E+01  1.23755293E+01 -2.47510585E+01
  0.00000000E+00  1.23755293E+01  1.23755293E+01 -2.47510585E+01  0.00000000E+00
  1.23755293E+01  1.23755293E+01 -2.47510585E+01  0.00000000E+00  1.23755293E+01
  1.23755293E+01 -2.47510585E+01  0.00000000E+00  1.23755293E+01  1.23755293E+01
 -2.47510585E+01  0.00000000E+00  1.23755293E+01  1.23755293E+01 -2.47510585E+01
  0.00000000E+00  1.23755293E+01  1.23755293E+01 -2.47510585E+01  0.00000000E+00
  1.23755293E+01  1.23755293E+01 -2.47510585E+01  0.00000000E+00  1.23755293E+01
  1.23755293E+01 -2.47510585E+01  0.00000000E+00  1.23755293E+01  1.23755293E+01
 -2.47510585E+01  0.00000000E+00  1.23755293E+01  1.23755293E+01 -2.47510585E+01
  0.00000000E+00  1.23755293E+01  1.23755293E+01 -2.47510585E+01  0.00000000E+00
  1.23755293E+01  1.23755293E+01 -2.47510585E+01  0.00000000E+00  1.23755293E+01
  1.23755293E+01 -2.47510585E+01  0.00000000E+00  1.23755293E+01  1.23755293E+01
 -2.47510585E+01  0.00000000E+00  1.23755293E+01  1.23755293E+01 -2.47510585E+01
  0.00000000E+00  1.23755293E+01  1.23755293E+01 -2.47510585E+01  0.00000000E+00
  1.23755293E+01  1.23755293E+01 -2.47510585E+01  0.00000000E+00  1.23755293E+01
  1.23755293E+01 -2.47510585E+01  0.00000000E+00  1.23755293E+01  1.23755293E+01
 -2.47510585E+01  0.00000000E+00  1.23755293E+01  1.23755293E+01 -2.47510585E+01
  0.00000000E+00  1.23755293E+01  1.23755293E+01 -2.47510585E+01  0.00000000E+00
  1.23755293E+01  1.23755293E+01 -2.47510585E+01  0.00000000E+00  1.23755293E+01
  1.23755293E+01 -2.47510585E+01  0.00000000E+00  1.23755293E+01  1.23755293E+01
 -2.47510585E+01  0.00000000E+00  1.23755293E+01  1.23755293E+01 -2.47510585E+01
  0.00000000E+00  1.23755293E+01  1.23755293E+01 -2.47510585E+01  0.00000000E+00
  1.23755293E+01  1.23755293E+01 -2.47510585E+01  0.00000000E+00  1.23755293E+01
  1.23755293E+01 -2.47510585E+01  0.00000000E+00  1.23755293E+01  1.23755293E+01
 -2.47510585E+01  0.00000000E+00  1.23755293E+01  1.23755293E+01 -2.47510585E+01
  0.00000000E+00  1.23755293E+01  1.23755293E+01 -2.47510585E+01  0.00000000E+00
  1.23755293E+01  1.23755293E+01 -2.47510585E+01  0.00000000E+00  1.23755293E+01
  1.23755293E+01 -2.47510585E+01  0.00000000E+00  1.23755293E+01  1.23755293E+01
 -2.47510585E+01  0.00000000E+00  1.23755293E+01  1.23755293E+01 -2.47510585E+01
  0.00000000E+00  1.23755293E+01  1.23755293E+01 -2.47510585E+01  0.00000000E+00
  1.23755293E+01  1.23755293E+01 -2.47510585E+01  0.00000000E+00  1.23755293E+01
  1.23755293E+01 -2.47510585E+01  0.00000000E+00  1.23755293E+01  1.23755293E+01
 -2.47510585E+01  0.00000000E+00  1.23755293E+01  1.23755293E+01 -2.47510585E+01
  0.00000000E+00  1.23755293E+01  1.23755293E+01 -2.47510585E+01  0.00000000E+00
  1.23755293E+01  1.23755293E+01 -2.47510585E+01  0.00000000E+00  1.23755293E+01
  1.23755293E+01 -2.47510585E+01  0.00000000E+00  1.23755293E+01  1.23755293E+01
 -2.47510585E+01  0.00000000E+00  1.23755293E+01  1.23755293E+01 -2.47510585E+01
  0.00000000E+00  1.23755293E+01  1.23755293E+01 -2.47510585E+01  0.00000000E+00
  1.23755293E+01  1.23755293E+01 -2.47510585E+01  0.00000000E+00  1.23755293E+01
  1.23755293E+01 -2.47510585E+01  0.00000000E+00  1.23755293E+01  1.23755293E+01
 -2.47510585E+01  0.00000000E+00  1.23755293E+01  1.23755293E+01 -2.47510585E+01
  0.00000000E+00  1.23755293E+01  1.23755293E+01 -2.47510585E+01  0.00000000E+00
  1.23755293E+01  1.23755293E+01 -2.47510585E+01  0.00000000E+00  1.23755293E+01
  1.23755293E+01 -2.47510585E+01  0.00000000E+00  1.23755293E+01  1.23755293E+01
 -2.47510585E+01  0.00000000E+00  1.23755293E+01  1.23755293E+01 -2.47510585E+01
  0.00000000E+00  1.23755293E+01  1.23755293E+01 -2.47510585E+01  0.00000000E+00
  1.23755293E+01  1.23755293E+01 -2.47510585E+01  0.00000000E+00  1.23755293E+01
  1.23755293E+01 -2.47510585E+01  0.00000000E+00  1.23755293E+01  1.23755293E+01
 -2.47510585E+01  0.00000000E+00  1.23755293E+01  1.23755293E+01 -2.47510585E+01
  0.00000000E+00  1.23755293E+01  1.23755293E+01 -2.47510585E+01  0.00000000E+00
  1.23755293E+01  1.23755293E+01 -2.47510585E+01  0.00000000E+00  1.23755293E+01
  1.23755293E+01 -2.47510585E+01  0.00000000E+00  1.23755293E+01  1.23755293E+01
 -2.47510585E+01  0.00000000E+00  1.23755293E+01  1.23755293E+01 -2.47510585E+01
  0.00000000E+00  1.23755293E+01  1.23755293E+01 -2.47510585E+01  0.00000000E+00
  1.23755293E+01  1.23755293E+01 -2.47510585E+01  0.00000000E+00  1.23755293E+01
  1.23755293E+01 -2.47510585E+01  0.00000000E+00  1.23755293E+01  1.23755293E+01
 -2.47510585E+01  0.00000000E+00  1.23755293E+01  1.23755293E+01 -2.47510585E+01
  0.00000000E+00  1.23755293E+01  1.23755293E+01 -2.47510585E+01  0.00000000E+00
  1.23755293E+01  1.23755293E+01 -2.47510585E+01  0.00000000E+00  1.23755293E+01
  1.23755293E+01 -2.47510585E+01  0.00000000E+00  1.23755293E+01  1.23755293E+01
 -2.47510585E+01  0.00000000E+00  1.23755293E+01  1.23755293E+01 -2.47510585E+01
  0.00000000E+00  1.23755293E+01  1.23755293E+01 -2.47510585E+01  0.00000000E+00
  1.23755293E+01  1.23755293E+01 -2.47510585E+01  0.00000000E+00  1.23755293E+01
  1.23755293E+01 -2.47510585E+01  0.00000000E+00  1.23755293E+01  1.23755293E+01
 -2.47510585E+01  0.00000000E+00  1.23755293E+01  1.23755293E+01 -2.47510585E+01
  0.00000000E+00  1.23755293E+01  1.23755293E+01 -2.47510585E+01  0.00000000E+00
  1.23755293E+01  1.23755293E+01 -2.47510585E+01  0.00000000E+00  1.23755293E+01
  1.23755293E+01 -2.47510585E+01  0.00000000E+00  1.23755293E+01  1.23755293E+01
 -2.47510585E+01  0.00000000E+00  1.23755293E+01  1.23755293E+01 -2.47510585E+01
  0.00000000E+00  1.23755293E+01  1.23755293E+01 -2.47510585E+01  0.00000000E+00
  1.23755293E+01  1.23755293E+01 -2.47510585E+01  0.00000000E+00  1.23755293E+01
  1.23755293E+01 -2.47510585E+01  0.00000000E+00  1.23755293E+01  1.23755293E+01
 -2.47510585E+01  0.00000000E+00  1.23755293E+01  1.23755293E+01 -2.47510585E+01
  0.00000000E+00  1.23755293E+01  1.23755293E+01 -2.47510585E+01  0.00000000E+00
  1.23755293E+01  1.23755293E+01 -2.47510585E+01  0.00000000E+00  1.23755293E+01
  1.23755293E+01 -2.47510585E+01  0.00000000E+00  1.23755293E+01  1.23755293E+01
 -2.47510585E+01  0.00000000E+00  1.23755293E+01  1.23755293E+01 -2.47510585E+01
  0.00000000E+00  1.23755293E+01  1.23755293E+01 -2.47510585E+01  0.00000000E+00
  1.23755293E+01  1.23755293E+01 -2.47510585E+01  0.00000000E+00  1.23755293E+01
  1.23755293E+01 -2.47510585E+01  0.00000000E+00  1.23755293E+01  1.23755293E+01
 -2.47510585E+01  0.00000000E+00  1.23755293E+01  1.23755293E+01 -2.47510585E+01
  0.00000000E+00  1.23755293E+01  1.23755293E+01 -2.47510585E+01  0.00000000E+00
  1.23755293E+01  1.23755293E+01 -2.47510585E+01  0.00000000E+00  1.23755293E+01
  1.23755293E+01 -2.47510585E+01  0.00000000E+00  1.23755293E+01  1.23755293E+01
 -2.47510585E+01  0.00000000E+00  1.23755293E+01  1.23755293E+01 -2.47510585E+01
  0.00000000E+00  1.23755293E+01  1.23755293E+01 -2.47510585E+01  0.00000000E+00
  1.23755293E+01  1.23755293E+01 -2.47510585E+01  0.00000000E+00  1.23755293E+01
  1.23755293E+01 -2.47510585E+01  0.00000000E+00  1.23755293E+01  1.23755293E+01
 -2.47510585E+01  0.00000000E+00  1.23755293E+01  1.23755293E+01 -2.47510585E+01
  0.00000000E+00  1.23755293E+01  1.23755293E+01 -2.47510585E+01  0.00000000E+00
  1.23755293E+01  1.23755293E+01 -2.47510585E+01  0.00000000E+00  1.23755293E+01
  1.23755293E+01 -2.47510585E+01  0.00000000E+00  1.23755293E+01  1.23755293E+01
 -2.47510585E+01  0.00000000E+00  1.23755293E+01  1.23755293E+01 -2.47510585E+01
  0.00000000E+00  1.23755293E+01  1.23755293E+01 -2.47510585E+01  0.00000000E+00
  1.23755293E+01  1.23755293E+01 -2.47510585E+01  0.00000000E+00  1.23755293E+01
  1.23755293E+01 -2.47510585E+01  0.00000000E+00  1.23755293E+01  1.23755293E+01
 -2.47510585E+01  0.00000000E+00  1.23755293E+01  1.23755293E+01 -2.47510585E+01
  0.00000000E+00  1.23755293E+01  1.23755293E+01 -2.47510585E+01  0.00000000E+00
  1.23755293E+01  1.23755293E+01 -2.47510585E+01  0.00000000E+00  1.23755293E+01
  1.23755293E+01 -2.47510585E+01  0.00000000E+00  1.23755293E+01  1.23755293E+01
 -2.47510585E+01  0.00000000E+00  1.23755293E+01  1.23755293E+01 -2.47510585E+01
  0.00000000E+00  1.23755293E+01  1.23755293E+01 -2.47510585E+01  0.00000000E+00
  1.23755293E+01  1.23755293E+01 -2.47510585E+01  0.00000000E+00  1.23755293E+01
  1.23755293E+01 -2.47510585E+01  0.00000000E+00  1.23755293E+01  1.23755293E+01
 -2.47510585E+01  0.00000000E+00  1.23755293E+01  1.23755293E+01 -2.47510585E+01
  0.00000000E+00  1.23755293E+01  1.23755293E+01 -2.47510585E+01  0.00000000E+00
  1.23755293E+01  1.23755293E+01 -2.47510585E+01  0.00000000E+00  1.23755293E+01
  1.23755293E+01 -2.47510585E+01  0.00000000E+00  1.23755293E+01  1.23755293E+01
 -2.47510585E+01  0.00000000E+00  1.23755293E+01  1.23755293E+01 -2.47510585E+01
  0.00000000E+00  1.23755293E+01  1.23755293E+01 -2.47510585E+01  0.00000000E+00
  1.23755293E+01  1.23755293E+01 -2.47510585E+01  0.00000000E+00  1.23755293E+01
  1.23755293E+01 -2.47510585E+01  0.00000000E+00  1.23755293E+01  1.23755293E+01
 -2.47510585E+01  0.00000000E+00  1.23755293E+01  1.23755293E+01 -2.47510585E+01
  0.00000000E+00  1.23755293E+01  1.23755293E+01 -2.47510585E+01  0.00000000E+00
  1.23755293E+01  1.23755293E+01 -2.47510585E+01  0.00000000E+00  1.23755293E+01
  1.23755293E+01 -2.47510585E+01  0.00000000E+00  1.23755293E+01  1.23755293E+01
 -2.47510585E+01  0.00000000E+00  1.23755293E+01  1.23755293E+01 -2.47510585E+01
  0.00000000E+00  1.23755293E+01  1.23755293E+01 -2.47510585E+01  0.00000000E+00
  1.23755293E+01  1.23755293E+01 -2.47510585E+01  0.00000000E+00  1.23755293E+01
  1.23755293E+01 -2.47510585E+01  0.00000000E+00  1.23755293E+01  1.23755293E+01
 -2.47510585E+01  0.00000000E+00  1.23755293E+01  1.23755293E+01 -2.47510585E+01
  0.00000000E+00  1.23755293E+01  1.23755293E+01 -2.47510585E+01  0.00000000E+00
  1.23755293E+01  1.23755293E+01 -2.47510585E+01  0.00000000E+00  1.23755293E+01
  1.23755293E+01 -2.47510585E+01  0.00000000E+00  1.23755293E+01  1.23755293E+01
 -2.47510585E+01  0.00000000E+00  1.23755293E+01  1.23755293E+01 -2.47510585E+01
  0.00000000E+00  1.23755293E+01  1.23755293E+01 -2.47510585E+01  0.00000000E+00
  1.23755293E+01  1.23755293E+01 -2.47510585E+01  0.00000000E+00  1.23755293E+01
  1.23755293E+01 -2.47510585E+01  0.00000000E+00  1.23755293E+01  1.23755293E+01
 -2.47510585E+01  0.00000000E+00  1.23755293E+01  1.23755293E+01 -2.47510585E+01
  0.00000000E+00  1.23755293E+01  1.23755293E+01 -2.47510585E+01  0.00000000E+00
  1.23755293E+01  1.23755293E+01 -2.47510585E+01  0.00000000E+00  1.23755293E+01
  1.23755293E+01 -2.47510585E+01  0.00000000E+00  1.23755293E+01  1.23755293E+01
 -2.47510585E+01  0.00000000E+00  1.23755293E+01  1.23755293E+01 -2.47510585E+01
  0.00000000E+00  1.23755293E+01  1.23755293E+01 -2.47510585E+01  0.00000000E+00
  1.23755293E+01  1.23755293E+01 -2.47510585E+01  0.00000000E+00  1.23755293E+01
  1.23755293E+01 -2.47510585E+01  0.00000000E+00  1.23755293E+01  1.23755293E+01
 -2.47510585E+01  0.00000000E+00  1.23755293E+01  1.23755293E+01 -2.47510585E+01
  0.00000000E+00  1.23755293E+01  1.23755293E+01 -2.47510585E+01  0.00000000E+00
  1.23755293E+01  1.23755293E+01 -2.47510585E+01  0.00000000E+00  1.23755293E+01
  1.23755293E+01 -2.47510585E+01  0.00000000E+00  1.23755293E+01  1.23755293E+01
 -2.47510585E+01  0.00000000E+00  1.23755293E+01  1.23755293E+01 -2.47510585E+01
  0.00000000E+00  1.23755293E+01  1.23755293E+01 -2.47510585E+01  0.00000000E+00
  1.23755293E+01  1.23755293E+01 -2.47510585E+01  0.00000000E+00  1.23755293E+01
  1.23755293E+01 -2.47510585E+01  0.00000000E+00  1.23755293E+01  1.23755293E+01
 -2.47510585E+01  0.00000000E+00  1.23755293E+01  1.23755293E+01 -2.47510585E+01
  0.00000000E+00  1.23755293E+01  1.23755293E+01 -2.47510585E+01  0.00000000E+00
  1.23755293E+01  1.23755293E+01 -2.47510585E+01  0.00000000E+00  1.23755293E+01
  1.23755293E+01 -2.47510585E+01  0.00000000E+00  1.23755293E+01  1.23755293E+01
 -2.47510585E+01  0.00000000E+00  1.23755293E+01  1.23755293E+01 -2.47510585E+01
  0.00000000E+00  1.23755293E+01  1.23755293E+01 -2.47510585E+01  0.00000000E+00
  1.23755293E+01  1.23755293E+01 -2.47510585E+01  0.00000000E+00  1.23755293E+01
  1.23755293E+01 -2.47510585E+01  0.00000000E+00  1.23755293E+01  1.23755293E+01
 -2.47510585E+01  0.00000000E+00  1.23755293E+01  1.23755293E+01 -2.47510585E+01
  0.00000000E+00  1.23755293E+01  1.23755293E+01 -2.47510585E+01  0.00000000E+00
  1.23755293E+01  1.23755293E+01 -2.47510585E+01  0.00000000E+00  1.23755293E+01
  1.23755293E+01 -2.47510585E+01  0.00000000E+00  1.23755293E+01  1.23755293E+01
 -2.47510585E+01  0.00000000E+00  1.23755293E+01  1.23755293E+01 -2.47510585E+01
  0.00000000E+00  1.23755293E+01  1.23755293E+01 -2.47510585E+01  0.00000000E+00
  1.23755293E+01  1.23755293E+01 -2.47510585E+01  0.00000000E+00  1.23755293E+01
  1.23755293E+01 -2.47510585E+01  0.00000000E+00  1.23755293E+01  1.23755293E+01
 -2.47510585E+01  0.00000000E+00  1.23755293E+01  1.23755293E+01 -2.47510585E+01
  0.00000000E+00  1.23755293E+01  1.23755293E+01 -2.47510585E+01  0.00000000E+00
  1.23755293E+01  1.23755293E+01 -2.47510585E+01  0.00000000E+00  1.23755293E+01
  1.23755293E+01 -2.47510585E+01  0.00000000E+00  1.23755293E+01  1.23755293E+01
 -2.47510585E+01  0.00000000E+00  1.23755293E+01  1.23755293E+01 -2.47510585E+01
  0.00000000E+00  1.23755293E+01  1.23755293E+01 -2.47510585E+01  0.00000000E+00
  1.23755293E+01  1.23755293E+01 -2.47510585E+01  0.00000000E+00  1.23755293E+01
  1.23755293E+01 -2.47510585E+01  0.00000000E+00  1.23755293E+01  1.23755293E+01
 -2.47510585E+01  0.00000000E+00  1.23755293E+01  1.23755293E+01 -2.47510585E+01
  0.00000000E+00  1.23755293E+01  1.23755293E+01 -2.47510585E+01  0.00000000E+00
  1.23755293E+01  1.23755293E+01 -2.47510585E+01  0.00000000E+00  1.23755293E+01
  1.23755293E+01 -2.47510585E+01  0.00000000E+00  1.23755293E+01  1.23755293E+01
 -2.47510585E+01  0.00000000E+00  1.23755293E+01  1.23755293E+01 -2.47510585E+01
  0.00000000E+00  1.23755293E+01  1.23755293E+01 -2.47510585E+01  0.00000000E+00
  1.23755293E+01  1.23755293E+01 -2.47510585E+01  0.00000000E+00  1.23755293E+01
  1.23755293E+01 -2.47510585E+01  0.00000000E+00  1.23755293E+01  1.23755293E+01
 -2.47510585E+01  0.00000000E+00  1.23755293E+01  1.23755293E+01 -2.47510585E+01
  0.00000000E+00  1.23755293E+01  1.23755293E+01 -2.47510585E+01  0.00000000E+00
  1.23755293E+01  1.23755293E+01 -2.47510585E+01  0.00000000E+00  1.23755293E+01
  1.23755293E+01 -2.47510585E+01  0.00000000E+00  1.23755293E+01  1.23755293E+01
 -2.47510585E+01  0.00000000E+00  1.23755293E+01  1.23755293E+01 -2.47510585E+01
  0.00000000E+00  1.23755293E+01  1.23755293E+01 -2.47510585E+01  0.00000000E+00
  1.23755293E+01  1.23755293E+01 -2.47510585E+01  0.00000000E+00  1.23755293E+01
  1.23755293E+01 -2.47510585E+01  0.00000000E+00  1.23755293E+01  1.23755293E+01
 -2.47510585E+01  0.00000000E+00  1.23755293E+01  1.23755293E+01 -2.47510585E+01
  0.00000000E+00  1.23755293E+01  1.23755293E+01 -2.47510585E+01  0.00000000E+00
  1.23755293E+01  1.23755293E+01 -2.47510585E+01  0.00000000E+00  1.23755293E+01
  1.23755293E+01 -2.47510585E+01  0.00000000E+00  1.23755293E+01  1.23755293E+01
 -2.47510585E+01  0.00000000E+00  1.23755293E+01  1.23755293E+01 -2.47510585E+01
  0.00000000E+00  1.23755293E+01  1.23755293E+01 -2.47510585E+01  0.00000000E+00
  1.23755293E+01  1.23755293E+01 -2.47510585E+01  0.00000000E+00  1.23755293E+01
  1.23755293E+01 -2.47510585E+01  0.00000000E+00  1.23755293E+01  1.23755293E+01
 -2.47510585E+01  0.00000000E+00  1.23755293E+01  1.23755293E+01 -2.47510585E+01
  0.00000000E+00  1.23755293E+01  1.23755293E+01 -2.47510585E+01  0.00000000E+00
  1.23755293E+01  1.23755293E+01 -2.47510585E+01  0.00000000E+00  1.23755293E+01
  1.23755293E+01 -2.47510585E+01  0.00000000E+00  1.23755293E+01  1.23755293E+01
 -2.47510585E+01  0.00000000E+00  1.23755293E+01  1.23755293E+01 -2.47510585E+01
  0.00000000E+00  1.23755293E+01  1.23755293E+01 -2.47510585E+01  0.00000000E+00
  1.23755293E+01  1.23755293E+01 -2.47510585E+01  0.00000000E+00  1.23755293E+01
  1.23755293E+01 -2.47510585E+01  0.00000000E+00  1.23755293E+01  1.23755293E+01
 -2.47510585E+01  0.00000000E+00  1.23755293E+01  1.23755293E+01 -2.47510585E+01
  0.00000000E+00  1.23755293E+01  1.23755293E+01 -2.47510585E+01  0.00000000E+00
  1.23755293E+01  1.23755293E+01 -2.47510585E+01  0.00000000E+00  1.23755293E+01
  1.23755293E+01 -2.47510585E+01  0.00000000E+00  1.23755293E+01  1.23755293E+01
 -2.47510585E+01  0.00000000E+00  1.23755293E+01  1.23755293E+01 -2.47510585E+01
  0.00000000E+00  1.23755293E+01  1.23755293E+01 -2.47510585E+01  0.00000000E+00
  1.23755293E+01  1.23755293E+01 -2.47510585E+01  0.00000000E+00  1.23755293E+01
  1.23755293E+01 -2.47510585E+01  0.00000000E+00  1.23755293E+01  1.23755293E+01
 -2.47510585E+01  0.00000000E+00  1.23755293E+01  1.23755293E+01 -2.47510585E+01
  0.00000000E+00  1.23755293E+01  1.23755293E+01 -2.47510585E+01  0.00000000E+00
  1.23755293E+01  1.23755293E+01 -2.47510585E+01  0.00000000E+00  1.23755293E+01
  1.23755293E+01 -2.47510585E+01  0.00000000E+00  1.23755293E+01  1.23755293E+01
 -2.47510585E+01  0.00000000E+00  1.23755293E+01  1.23755293E+01 -2.47510585E+01
  0.00000000E+00  1.23755293E+01  1.23755293E+01 -2.47510585E+01  0.00000000E+00
  1.23755293E+01  1.23755293E+01 -2.47510585E+01  0.00000000E+00  1.23755293E+01
  1.23755293E+01 -2.47510585E+01  0.00000000E+00  1.23755293E+01  1.23755293E+01
 -2.47510585E+01  0.00000000E+00  1.23755293E+01  1.23755293E+01 -2.47510585E+01
  0.00000000E+00  1.23755293E+01  1.23755293E+01 -2.47510585E+01  0.00000000E+00
  1.23755293E+01  1.23755293E+01 -2.47510585E+01  0.00000000E+00  1.23755293E+01
  1.23755293E+01 -2.47510585E+01  0.00000000E+00  1.23755293E+01  1.23755293E+01
 -2.47510585E+01  0.00000000E+00  1.23755293E+01  1.23755293E+01 -2.47510585E+01
  0.00000000E+00  1.23755293E+01  1.23755293E+01 -2.47510585E+01  0.00000000E+00
  1.23755293E+01  1.23755293E+01 -2.47510585E+01  0.00000000E+00  1.23755293E+01
  1.23755293E+01 -2.47510585E+01  0.00000000E+00  1.23755293E+01  1.23755293E+01
 -2.47510585E+01  0.00000000E+00  1.23755293E+01  1.23755293E+01 -2.47510585E+01
  0.00000000E+00  1.23755293E+01  1.23755293E+01 -2.47510585E+01  0.00000000E+00
  1.23755293E+01  1.23755293E+01 -2.47510585E+01  0.00000000E+00  1.23755293E+01
  1.23755293E+01 -2.47510585E+01  0.00000000E+00  1.23755293E+01  1.23755293E+01
 -2.47510585E+01  0.00000000E+00  1.23755293E+01  1.23755293E+01 -2.47510585E+01
  0.00000000E+00  1.23755293E+01  1.23755293E+01 -2.47510585E+01  0.00000000E+00
  1.23755293E+01  1.23755293E+01 -2.47510585E+01  0.00000000E+00  1.23755293E+01
  1.23755293E+01 -2.47510585E+01  0.00000000E+00  1.23755293E+01  1.23755293E+01
 -2.47510585E+01  0.00000000E+00  1.23755293E+01  1.23755293E+01 -2.47510585E+01
  0.00000000E+00  1.23755293E+01  1.23755293E+01 -2.47510585E+01  0.00000000E+00
  1.23755293E+01  1.23755293E+01 -2.47510585E+01  0.00000000E+00  1.23755293E+01
  1.23755293E+01 -2.47510585E+01  0.00000000E+00  1.23755293E+01  1.23755293E+01
 -2.47510585E+01  0.00000000E+00  1.23755293E+01  1.23755293E+01 -2.47510585E+01
  0.00000000E+00  1.23755293E+01  1.23755293E+01 -2.47510585E+01  0.00000000E+00
  1.23755293E+01  1.23755293E+01 -2.47510585E+01  0.00000000E+00  1.23755293E+01
  1.23755293E+01 -2.47510585E+01  0.00000000E+00  1.23755293E+01  1.23755293E+01
 -2.47510585E+01  0.00000000E+00  1.23755293E+01  1.23755293E+01 -2.47510585E+01
  0.00000000E+00  1.23755293E+01  1.23755293E+01 -2.47510585E+01  0.00000000E+00
  1.23755293E+01  1.23755293E+01 -2.47510585E+01  0.00000000E+00  1.23755293E+01
  1.23755293E+01 -2.47510585E+01  0.00000000E+00  1.23755293E+01  1.23755293E+01
 -2.47510585E+01  0.00000000E+00  1.23755293E+01  1.23755293E+01 -2.47510585E+01
  0.00000000E+00  1.23755293E+01  1.23755293E+01 -2.47510585E+01  0.00000000E+00
  1.23755293E+01  1.23755293E+01 -2.47510585E+01  0.00000000E+00  1.23755293E+01
  1.23755293E+01 -2.47510585E+01  0.00000000E+00  1.23755293E+01  1.23755293E+01
 -2.47510585E+01  0.00000000E+00  1.23755293E+01  1.23755293E+01 -2.47510585E+01
  0.00000000E+00  1.23755293E+01  1.23755293E+01 -2.47510585E+01  0.00000000E+00
  1.23755293E+01  1.23755293E+01 -2.47510585E+01  0.00000000E+00  1.23755293E+01
  1.23755293E+01 -2.47510585E+01  0.00000000E+00  1.23755293E+01  1.23755293E+01
 -2.47510585E+01  0.00000000E+00  1.23755293E+01  1.23755293E+01 -2.47510585E+01
  0.00000000E+00  1.23755293E+01  1.23755293E+01 -2.47510585E+01  0.00000000E+00
  1.23755293E+01  1.23755293E+01 -2.47510585E+01  0.00000000E+00  1.23755293E+01
  1.23755293E+01 -2.47510585E+01  0.00000000E+00  1.23755293E+01  1.23755293E+01
 -2.47510585E+01  0.00000000E+00  1.23755293E+01  1.23755293E+01 -2.47510585E+01
  0.00000000E+00  1.23755293E+01  1.23755293E+01 -2.47510585E+01  0.00000000E+00
  1.23755293E+01  1.23755293E+01 -2.47510585E+01  0.00000000E+00  1.23755293E+01
  1.23755293E+01 -2.47510585E+01  0.00000000E+00  1.23755293E+01  1.23755293E+01
 -2.47510585E+01  0.00000000E+00  1.23755293E+01  1.23755293E+01 -2.47510585E+01
  0.00000000E+00  1.23755293E+01  1.23755293E+01 -2.47510585E+01  0.00000000E+00
  1.23755293E+01  1.23755293E+01 -2.47510585E+01  0.00000000E+00  1.23755293E+01
  1.23755293E+01 -2.47510585E+01  0.00000000E+00  1.23755293E+01  1.23755293E+01
 -2.47510585E+01  0.00000000E+00  1.23755293E+01  1.23755293E+01 -2.47510585E+01
  0.00000000E+00  1.23755293E+01  1.23755293E+01 -2.47510585E+01  0.00000000E+00
  1.23755293E+01  1.23755293E+01 -2.47510585E+01  0.00000000E+00  1.23755293E+01
  1.23755293E+01 -2.47510585E+01  0.00000000E+00  1.23755293E+01  1.23755293E+01
 -2.47510585E+01  0.00000000E+00  1.23755293E+01  1.23755293E+01 -2.47510585E+01
  0.00000000E+00  1.23755293E+01  1.23755293E+01 -2.47510585E+01  0.00000000E+00
  1.23755293E+01  1.23755293E+01 -2.47510585E+01  0.00000000E+00  1.23755293E+01
  1.23755293E+01 -2.47510585E+01  0.00000000E+00  1.23755293E+01  1.23755293E+01
 -2.47510585E+01  0.00000000E+00  1.23755293E+01  1.23755293E+01 -2.47510585E+01
  0.00000000E+00  1.23755293E+01  1.23755293E+01 -2.47510585E+01  0.00000000E+00
  1.23755293E+01  1.23755293E+01 -2.47510585E+01  0.00000000E+00  1.23755293E+01
  1.23755293E+01 -2.47510585E+01  0.00000000E+00  1.23755293E+01  1.23755293E+01
 -2.47510585E+01  0.00000000E+00  1.23755293E+01  1.23755293E+01 -2.47510585E+01
  0.00000000E+00  1.23755293E+01  1.23755293E+01 -2.47510585E+01  0.00000000E+00
  1.23755293E+01  1.23755293E+01 -2.47510585E+01  0.00000000E+00  1.23755293E+01
  1.23755293E+01 -2.47510585E+01  0.00000000E+00  1.23755293E+01  1.23755293E+01
 -2.47510585E+01  0.00000000E+00  1.23755293E+01  1.23755293E+01 -2.47510585E+01
  0.00000000E+00  1.23755293E+01  1.23755293E+01 -2.47510585E+01  0.00000000E+00
  1.23755293E+01  1.23755293E+01 -2.47510585E+01  0.00000000E+00  1.23755293E+01
  1.23755293E+01 -2.47510585E+01  0.00000000E+00  1.23755293E+01  1.23755293E+01
 -2.47510585E+01  0.00000000E+00  1.23755293E+01  1.23755293E+01 -2.47510585E+01
  0.00000000E+00  1.23755293E+01  1.23755293E+01 -2.47510585E+01  0.00000000E+00
  1.23755293E+01  1.23755293E+01 -2.47510585E+01  0.00000000E+00  1.23755293E+01
  1.23755293E+01 -2.47510585E+01  0.00000000E+00  1.23755293E+01  1.23755293E+01
 -2.47510585E+01  0.00000000E+00  1.23755293E+01  1.23755293E+01 -2.47510585E+01
  0.00000000E+00  1.23755293E+01  1.23755293E+01 -2.47510585E+01  0.00000000E+00
  1.23755293E+01  1.23755293E+01 -2.47510585E+01  0.00000000E+00  1.23755293E+01
  1.23755293E+01 -2.47510585E+01  0.00000000E+00  1.23755293E+01  1.23755293E+01
 -2.47510585E+01  0.00000000E+00  1.23755293E+01  1.23755293E+01 -2.47510585E+01
  0.00000000E+00  1.23755293E+01  1.23755293E+01 -2.47510585E+01  0.00000000E+00
  1.23755293E+01  1.23755293E+01 -2.47510585E+01  0.00000000E+00  1.23755293E+01
  1.23755293E+01 -2.47510585E+01  0.00000000E+00  1.23755293E+01  1.23755293E+01
 -2.47510585E+01  0.00000000E+00  1.23755293E+01  1.23755293E+01 -2.47510585E+01
  0.00000000E+00  1.23755293E+01  1.23755293E+01 -2.47510585E+01  0.00000000E+00
  1.23755293E+01  1.23755293E+01 -2.47510585E+01  0.00000000E+00  1.23755293E+01
  1.23755293E+01 -2.47510585E+01  0.00000000E+00  1.23755293E+01  1.23755293E+01
 -2.47510585E+01  0.00000000E+00  1.23755293E+01  1.23755293E+01 -2.47510585E+01
  0.00000000E+00  1.23755293E+01  1.23755293E+01 -2.47510585E+01  0.00000000E+00
  1.23755293E+01  1.23755293E+01 -2.47510585E+01  0.00000000E+00  1.23755293E+01
  1.23755293E+01 -2.47510585E+01  0.00000000E+00  1.23755293E+01  1.23755293E+01
 -2.47510585E+01  0.00000000E+00  1.23755293E+01  1.23755293E+01 -2.47510585E+01
  0.00000000E+00  1.23755293E+01  1.23755293E+01 -2.47510585E+01  0.00000000E+00
  1.23755293E+01  1.23755293E+01 -2.47510585E+01  0.00000000E+00  1.23755293E+01
  1.23755293E+01 -2.47510585E+01  0.00000000E+00  1.23755293E+01  1.23755293E+01
 -2.47510585E+01  0.00000000E+00  1.23755293E+01  1.23755293E+01 -2.47510585E+01
  0.00000000E+00  1.23755293E+01  1.23755293E+01 -2.47510585E+01  0.00000000E+00
  1.23755293E+01  1.23755293E+01 -2.47510585E+01  0.00000000E+00  1.23755293E+01
  1.23755293E+01 -2.47510585E+01  0.00000000E+00  1.23755293E+01  1.23755293E+01
 -2.47510585E+01  0.00000000E+00  1.23755293E+01  1.23755293E+01 -2.47510585E+01
  0.00000000E+00  1.23755293E+01  1.23755293E+01 -2.47510585E+01  0.00000000E+00
  1.23755293E+01  1.23755293E+01 -2.47510585E+01  0.00000000E+00  1.23755293E+01
  1.23755293E+01 -2.47510585E+01  0.00000000E+00  1.23755293E+01  1.23755293E+01
 -2.47510585E+01  0.00000000E+00  1.23755293E+01  1.23755293E+01 -2.47510585E+01
  0.00000000E+00  1.23755293E+01  1.23755293E+01 -2.47510585E+01  0.00000000E+00
  1.23755293E+01  1.23755293E+01 -2.47510585E+01  0.00000000E+00  1.23755293E+01
  1.23755293E+01 -2.47510585E+01  0.00000000E+00  1.23755293E+01  1.23755293E+01
 -2.47510585E+01  0.00000000E+00  1.23755293E+01  1.23755293E+01 -2.47510585E+01
  0.00000000E+00  1.23755293E+01  1.23755293E+01 -2.47510585E+01  0.00000000E+00
  1.23755293E+01  1.23755293E+01 -2.47510585E+01  0.00000000E+00  1.23755293E+01
  1.23755293E+01 -2.47510585E+01  0.00000000E+00  1.23755293E+01  1.23755293E+01
 -2.47510585E+01  0.00000000E+00  1.23755293E+01  1.23755293E+01 -2.47510585E+01
  0.00000000E+00  1.23755293E+01  1.23755293E+01 -2.47510585E+01  0.00000000E+00
  1.23755293E+01  1.23755293E+01 -2.47510585E+01  0.00000000E+00  1.23755293E+01
  1.23755293E+01 -2.47510585E+01  0.00000000E+00  1.23755293E+01  1.23755293E+01
 -2.47510585E+01  0.00000000E+00  1.23755293E+01  1.23755293E+01 -2.47510585E+01
  0.00000000E+00  1.23755293E+01  1.23755293E+01 -2.47510585E+01  0.00000000E+00
  1.23755293E+01  1.23755293E+01 -2.47510585E+01  0.00000000E+00  1.23755293E+01
  1.23755293E+01 -2.47510585E+01  0.00000000E+00  1.23755293E+01  1.23755293E+01
 -2.47510585E+01  0.00000000E+00  1.23755293E+01  1.23755293E+01 -2.47510585E+01
  0.00000000E+00  1.23755293E+01  1.23755293E+01 -2.47510585E+01  0.00000000E+00
  1.23755293E+01  1.23755293E+01 -2.47510585E+01  0.00000000E+00  1.23755293E+01
  1.23755293E+01 -2.47510585E+01  0.00000000E+00  1.23755293E+01  1.23755293E+01
 -2.47510585E+01  0.00000000E+00  1.23755293E+01  1.23755293E+01 -2.47510585E+01
  0.00000000E+00  1.23755293E+01  1.23755293E+01 -2.47510585E+01  0.00000000E+00
  1.23755293E+01  1.23755293E+01 -2.47510585E+01  0.00000000E+00  1.23755293E+01
  1.23755293E+01 -2.47510585E+01  0.00000000E+00  1.23755293E+01  1.23755293E+01
 -2.47510585E+01  0.00000000E+00  1.23755293E+01  1.23755293E+01 -2.47510585E+01
  0.00000000E+00  1.23755293E+01  1.23755293E+01 -2.47510585E+01  0.00000000E+00
  1.23755293E+01  1.23755293E+01 -2.47510585E+01  0.00000000E+00  1.23755293E+01
  1.23755293E+01 -2.47510585E+01  0.00000000E+00  1.23755293E+01  1.23755293E+01
 -2.47510585E+01  0.00000000E+00  1.23755293E+01  1.23755293E+01 -2.47510585E+01
  0.00000000E+00  1.23755293E+01  1.23755293E+01 -2.47510585E+01  0.00000000E+00
  1.23755293E+01  1.23755293E+01 -2.47510585E+01  0.00000000E+00  1.23755293E+01
  1.23755293E+01 -2.47510585E+01  0.00000000E+00  1.23755293E+01  1.23755293E+01
 -2.47510585E+01  0.00000000E+00  1.23755293E+01  1.23755293E+01 -2.47510585E+01
  0.00000000E+00  1.23755293E+01  1.23755293E+01 -2.47510585E+01  0.00000000E+00
  1.23755293E+01  1.23755293E+01 -2.47510585E+01  0.00000000E+00  1.23755293E+01
  1.23755293E+01 -2.47510585E+01  0.00000000E+00  1.23755293E+01  1.23755293E+01
 -2.47510585E+01  0.00000000E+00  1.23755293E+01  1.23755293E+01 -2.47510585E+01
  0.00000000E+00  1.23755293E+01  1.23755293E+01 -2.47510585E+01  0.00000000E+00
  1.23755293E+01  1.23755293E+01 -2.47510585E+01  0.00000000E+00  1.23755293E+01
  1.23755293E+01 -2.47510585E+01  0.00000000E+00  1.23755293E+01  1.23755293E+01
 -2.47510585E+01  0.00000000E+00  1.23755293E+01  1.23755293E+01 -2.47510585E+01
  0.00000000E+00  1.23755293E+01  1.23755293E+01 -2.47510585E+01  0.00000000E+00
  1.23755293E+01  1.23755293E+01 -2.47510585E+01  0.00000000E+00  1.23755293E+01
  1.23755293E+01 -2.47510585E+01  0.00000000E+00  1.23755293E+01  1.23755293E+01
 -2.47510585E+01  0.00000000E+00  1.23755293E+01  1.23755293E+01 -2.47510585E+01
  0.00000000E+00  1.23755293E+01  1.23755293E+01 -2.47510585E+01  0.00000000E+00
  1.23755293E+01  1.23755293E+01 -2.47510585E+01  0.00000000E+00  1.23755293E+01
  1.23755293E+01 -2.47510585E+01  0.00000000E+00  1.23755293E+01  1.23755293E+01
 -2.47510585E+01  0.00000000E+00  1.23755293E+01  1.23755293E+01 -2.47510585E+01
  0.00000000E+00  1.23755293E+01  1.23755293E+01 -2.47510585E+01  0.00000000E+00
  1.23755293E+01  1.23755293E+01 -2.47510585E+01  0.00000000E+00  1.23755293E+01
  1.23755293E+01 -2.47510585E+01  0.00000000E+00  1.23755293E+01  1.23755293E+01
 -2.47510585E+01  0.00000000E+00  1.23755293E+01  1.23755293E+01 -2.47510585E+01
  0.00000000E+00  1.23755293E+01  1.23755293E+01 -2.47510585E+01  0.00000000E+00
  1.23755293E+01  1.23755293E+01 -2.47510585E+01  0.00000000E+00  1.23755293E+01
  1.23755293E+01 -2.47510585E+01  0.00000000E+00  1.23755293E+01  1.23755293E+01
 -2.47510585E+01  0.00000000E+00  1.23755293E+01  1.23755293E+01 -2.47510585E+01
  0.00000000E+00  1.23755293E+01  1.23755293E+01 -2.47510585E+01  0.00000000E+00
  1.23755293E+01  1.23755293E+01 -2.47510585E+01  0.00000000E+00  1.23755293E+01
  1.23755293E+01 -2.47510585E+01  0.00000000E+00  1.23755293E+01  1.23755293E+01
 -2.47510585E+01  0.00000000E+00  1.23755293E+01  1.23755293E+01 -2.47510585E+01
  0.00000000E+00  1.23755293E+01  1.23755293E+01 -2.47510585E+01  0.00000000E+00
  1.23755293E+01  1.23755293E+01 -2.47510585E+01  0.00000000E+00  1.23755293E+01
  1.23755293E+01 -2.47510585E+01  0.00000000E+00  1.23755293E+01  1.23755293E+01
 -2.47510585E+01  0.00000000E+00  1.23755293E+01  1.23755293E+01 -2.47510585E+01
  0.00000000E+00  1.23755293E+01  1.23755293E+01 -2.47510585E+01  0.00000000E+00
  1.23755293E+01  1.23755293E+01 -2.47510585E+01  0.00000000E+00  1.23755293E+01
  1.23755293E+01 -2.47510585E+01  0.00000000E+00  1.23755293E+01  1.23755293E+01
 -2.47510585E+01  0.00000000E+00  1.23755293E+01  1.23755293E+01 -2.47510585E+01
  0.00000000E+00  1.23755293E+01  1.23755293E+01 -2.47510585E+01  0.00000000E+00
  1.23755293E+01  1.23755293E+01 -2.47510585E+01  0.00000000E+00  1.23755293E+01
  1.23755293E+01 -2.47510585E+01  0.00000000E+00  1.23755293E+01  1.23755293E+01
 -2.47510585E+01  0.00000000E+00  1.23755293E+01  1.23755293E+01 -2.47510585E+01
  0.00000000E+00  1.23755293E+01  1.23755293E+01 -2.47510585E+01  0.00000000E+00
  1.23755293E+01  1.23755293E+01 -2.47510585E+01  0.00000000E+00  1.23755293E+01
  1.23755293E+01 -2.47510585E+01  0.00000000E+00  1.23755293E+01  1.23755293E+01
 -2.47510585E+01  0.00000000E+00  1.23755293E+01  1.23755293E+01 -2.47510585E+01
  0.00000000E+00  1.23755293E+01  1.23755293E+01 -2.47510585E+01  0.00000000E+00
  1.23755293E+01  1.23755293E+01 -2.47510585E+01  0.00000000E+00  1.23755293E+01
  1.23755293E+01 -2.47510585E+01  0.00000000E+00  1.23755293E+01  1.23755293E+01
 -2.47510585E+01  0.00000000E+00  1.23755293E+01  1.23755293E+01 -2.47510585E+01
  0.00000000E+00  1.23755293E+01  1.23755293E+01 -2.47510585E+01  0.00000000E+00
  1.23755293E+01  1.23755293E+01 -2.47510585E+01  0.00000000E+00  1.23755293E+01
  1.23755293E+01 -2.47510585E+01  0.00000000E+00  1.23755293E+01  1.23755293E+01
 -2.47510585E+01  0.00000000E+00  1.23755293E+01  1.23755293E+01 -2.47510585E+01
  0.00000000E+00  1.23755293E+01  1.23755293E+01 -2.47510585E+01  0.00000000E+00
  1.23755293E+01  1.23755293E+01 -2.47510585E+01  0.00000000E+00  1.23755293E+01
  1.23755293E+01 -2.47510585E+01  0.00000000E+00  1.23755293E+01  1.23755293E+01
 -2.47510585E+01  0.00000000E+00  1.23755293E+01  1.23755293E+01 -2.47510585E+01
  0.00000000E+00  1.23755293E+01  1.23755293E+01 -2.47510585E+01  0.00000000E+00
  1.23755293E+01  1.23755293E+01 -2.47510585E+01  0.00000000E+00  1.23755293E+01
  1.23755293E+01 -2.47510585E+01  0.00000000E+00  1.23755293E+01  1.23755293E+01
 -2.47510585E+01  0.00000000E+00  1.23755293E+01  1.23755293E+01 -2.47510585E+01
  0.00000000E+00  1.23755293E+01  1.23755293E+01 -2.47510585E+01  0.00000000E+00
  1.23755293E+01  1.23755293E+01 -2.47510585E+01  0.00000000E+00  1.23755293E+01
  1.23755293E+01 -2.47510585E+01  0.00000000E+00  1.23755293E+01  1.23755293E+01
 -2.47510585E+01  0.00000000E+00  1.23755293E+01  1.23755293E+01 -2.47510585E+01
  0.00000000E+00  1.23755293E+01  1.23755293E+01 -2.47510585E+01  0.00000000E+00
  1.23755293E+01  1.23755293E+01 -2.47510585E+01  0.00000000E+00  1.23755293E+01
  1.23755293E+01 -2.47510585E+01  0.00000000E+00  1.23755293E+01  1.23755293E+01
 -2.47510585E+01  0.00000000E+00  1.23755293E+01  1.23755293E+01 -2.47510585E+01
  0.00000000E+00  1.23755293E+01  1.23755293E+01 -2.47510585E+01  0.00000000E+00
  1.23755293E+01  1.23755293E+01 -2.47510585E+01  0.00000000E+00  1.23755293E+01
  1.23755293E+01 -2.47510585E+01  0.00000000E+00  1.23755293E+01  1.23755293E+01
 -2.47510585E+01  0.00000000E+00  1.23755293E+01  1.23755293E+01 -2.47510585E+01
  0.00000000E+00  1.23755293E+01  1.23755293E+01 -2.47510585E+01  0.00000000E+00
  1.23755293E+01  1.23755293E+01 -2.47510585E+01  0.00000000E+00  1.23755293E+01
  1.23755293E+01 -2.47510585E+01  0.00000000E+00  1.23755293E+01  1.23755293E+01
 -2.47510585E+01  0.00000000E+00  1.23755293E+01  1.23755293E+01 -2.47510585E+01
  0.00000000E+00  1.23755293E+01  1.23755293E+01 -2.47510585E+01  0.00000000E+00
  1.23755293E+01  1.23755293E+01 -2.47510585E+01  0.00000000E+00  1.23755293E+01
  1.23755293E+01 -2.47510585E+01  0.00000000E+00  1.23755293E+01  1.23755293E+01
 -2.47510585E+01  0.00000000E+00  1.23755293E+01  1.23755293E+01 -2.47510585E+01
  0.00000000E+00  1.23755293E+01  1.23755293E+01 -2.47510585E+01  0.00000000E+00
  1.23755293E+01  1.23755293E+01 -2.47510585E+01  0.00000000E+00  1.23755293E+01
  1.23755293E+01 -2.47510585E+01  0.00000000E+00  1.23755293E+01  1.23755293E+01
 -2.47510585E+01  0.00000000E+00  1.23755293E+01  1.23755293E+01 -2.47510585E+01
  0.00000000E+00  1.23755293E+01  1.23755293E+01 -2.47510585E+01  0.00000000E+00
  1.23755293E+01  1.23755293E+01 -2.47510585E+01  0.00000000E+00  1.23755293E+01
  1.23755293E+01 -2.47510585E+01  0.00000000E+00  1.23755293E+01  1.23755293E+01
 -2.47510585E+01  0.00000000E+00  1.23755293E+01  1.23755293E+01 -2.47510585E+01
  0.00000000E+00  1.23755293E+01  1.23755293E+01 -2.47510585E+01  0.00000000E+00
  1.23755293E+01  1.23755293E+01 -2.47510585E+01  0.00000000E+00  1.23755293E+01
  1.23755293E+01 -2.47510585E+01  0.00000000E+00  1.23755293E+01  1.23755293E+01
 -2.47510585E+01  0.00000000E+00  1.23755293E+01  1.23755293E+01 -2.47510585E+01
  0.00000000E+00  1.23755293E+01  1.23755293E+01 -2.47510585E+01  0.00000000E+00
  1.23755293E+01  1.23755293E+01 -2.47510585E+01  0.00000000E+00  1.23755293E+01
  1.23755293E+01 -2.47510585E+01  0.00000000E+00  1.23755293E+01  1.23755293E+01
 -2.47510585E+01  0.00000000E+00  1.23755293E+01  1.23755293E+01 -2.47510585E+01
  0.00000000E+00  1.23755293E+01  1.23755293E+01 -2.47510585E+01  0.00000000E+00
  1.23755293E+01  1.23755293E+01 -2.47510585E+01  0.00000000E+00  1.23755293E+01
  1.23755293E+01 -2.47510585E+01  0.00000000E+00  1.23755293E+01  1.23755293E+01
 -2.47510585E+01  0.00000000E+00  1.23755293E+01  1.23755293E+01 -2.47510585E+01
  0.00000000E+00  1.23755293E+01  1.23755293E+01 -2.47510585E+01  0.00000000E+00
  1.23755293E+01  1.23755293E+01 -2.47510585E+01  0.00000000E+00  1.23755293E+01
  1.23755293E+01 -2.47510585E+01  0.00000000E+00  1.23755293E+01  1.23755293E+01
 -2.47510585E+01  0.00000000E+00  1.23755293E+01  1.23755293E+01 -2.47510585E+01
  0.00000000E+00  1.23755293E+01  1.23755293E+01 -2.47510585E+01  0.00000000E+00
  1.23755293E+01  1.23755293E+01 -2.47510585E+01  0.00000000E+00  1.23755293E+01
  1.23755293E+01 -2.47510585E+01  0.00000000E+00  1.23755293E+01  1.23755293E+01
 -2.47510585E+01  0.00000000E+00  1.23755293E+01  1.23755293E+01 -2.47510585E+01
  0.00000000E+00  1.23755293E+01  1.23755293E+01 -2.47510585E+01  0.00000000E+00
  1.23755293E+01  1.23755293E+01 -2.47510585E+01  0.00000000E+00  1.23755293E+01
  1.23755293E+01 -2.47510585E+01  0.00000000E+00  1.23755293E+01  1.23755293E+01
 -2.47510585E+01  0.00000000E+00  1.23755293E+01  1.23755293E+01 -2.47510585E+01
  0.00000000E+00  1.23755293E+01  1.23755293E+01 -2.47510585E+01  0.00000000E+00
  1.23755293E+01  1.23755293E+01 -2.47510585E+01  0.00000000E+00  1.23755293E+01
  1.23755293E+01 -2.47510585E+01  0.00000000E+00  1.23755293E+01  1.23755293E+01
 -2.47510585E+01  0.00000000E+00  1.23755293E+01  1.23755293E+01 -2.47510585E+01
  0.00000000E+00  1.23755293E+01  1.23755293E+01 -2.47510585E+01  0.00000000E+00
  1.23755293E+01  1.23755293E+01 -2.47510585E+01  0.00000000E+00  1.23755293E+01
  1.23755293E+01 -2.47510585E+01  0.00000000E+00  1.23755293E+01  1.23755293E+01
 -2.47510585E+01  0.00000000E+00  1.23755293E+01  1.23755293E+01 -2.47510585E+01
  0.00000000E+00  1.23755293E+01  1.23755293E+01 -2.47510585E+01  0.00000000E+00
  1.23755293E+01  1.23755293E+01 -2.47510585E+01  0.00000000E+00  1.23755293E+01
  1.23755293E+01 -2.47510585E+01  0.00000000E+00  1.23755293E+01  1.23755293E+01
 -2.47510585E+01  0.00000000E+00  1.23755293E+01  1.23755293E+01 -2.47510585E+01
  0.00000000E+00  1.23755293E+01  1.23755293E+01 -2.47510585E+01  0.00000000E+00
  1.23755293E+01  1.23755293E+01 -2.47510585E+01  0.00000000E+00  1.23755293E+01
  1.23755293E+01 -2.47510585E+01  0.00000000E+00  1.23755293E+01  1.23755293E+01
 -2.47510585E+01  0.00000000E+00  1.23755293E+01  1.23755293E+01 -2.47510585E+01
  0.00000000E+00  1.23755293E+01  1.23755293E+01 -2.47510585E+01  0.00000000E+00
  1.23755293E+01  1.23755293E+01 -2.47510585E+01  0.00000000E+00  1.23755293E+01
  1.23755293E+01 -2.47510585E+01  0.00000000E+00  1.23755293E+01  1.23755293E+01
 -2.47510585E+01  0.00000000E+00  1.23755293E+01  1.23755293E+01 -2.47510585E+01
  0.00000000E+00  1.23755293E+01  1.23755293E+01 -2.47510585E+01  0.00000000E+00
  1.23755293E+01  1.23755293E+01 -2.47510585E+01  0.00000000E+00  1.23755293E+01
  1.23755293E+01 -2.47510585E+01  0.00000000E+00  1.23755293E+01  1.23755293E+01
 -2.47510585E+01  0.00000000E+00  1.23755293E+01  1.23755293E+01 -2.47510585E+01
  0.00000000E+00  1.23755293E+01  1.23755293E+01 -2.47510585E+01  0.00000000E+00
  1.23755293E+01  1.23755293E+01 -2.47510585E+01  0.00000000E+00  1.23755293E+01
  1.23755293E+01 -2.47510585E+01  0.00000000E+00  1.23755293E+01  1.23755293E+01
 -2.47510585E+01  0.00000000E+00  1.23755293E+01  1.23755293E+01 -2.47510585E+01
  0.00000000E+00  1.23755293E+01  1.23755293E+01 -2.47510585E+01  0.00000000E+00
  1.23755293E+01  1.23755293E+01 -2.47510585E+01  0.00000000E+00  1.23755293E+01
  1.23755293E+01 -2.47510585E+01  0.00000000E+00  1.23755293E+01  1.23755293E+01
 -2.47510585E+01  0.00000000E+00  1.23755293E+01  1.23755293E+01 -2.47510585E+01
  0.00000000E+00  1.23755293E+01  1.23755293E+01 -2.47510585E+01  0.00000000E+00
  1.23755293E+01  1.23755293E+01 -2.47510585E+01  0.00000000E+00  1.23755293E+01
  1.23755293E+01 -2.47510585E+01  0.00000000E+00  1.23755293E+01  1.23755293E+01
 -2.47510585E+01  0.00000000E+00  1.23755293E+01  1.23755293E+01 -2.47510585E+01
  0.00000000E+00  1.23755293E+01  1.23755293E+01 -2.47510585E+01  0.00000000E+00
  1.23755293E+01  1.23755293E+01 -2.47510585E+01  0.00000000E+00  1.23755293E+01
  1.23755293E+01 -2.47510585E+01  0.00000000E+00  1.23755293E+01  1.23755293E+01
 -2.47510585E+01  0.00000000E+00  1.23755293E+01  1.23755293E+01 -2.47510585E+01
  0.00000000E+00  1.23755293E+01  1.23755293E+01 -2.47510585E+01  0.00000000E+00
  1.23755293E+01  1.23755293E+01 -2.47510585E+01  0.00000000E+00  1.23755293E+01
  1.23755293E+01 -2.47510585E+01  0.00000000E+00  1.23755293E+01  1.23755293E+01
 -2.47510585E+01  0.00000000E+00  1.23755293E+01  1.23755293E+01 -2.47510585E+01
  0.00000000E+00  1.23755293E+01  1.23755293E+01 -2.47510585E+01  0.00000000E+00
  1.23755293E+01  1.23755293E+01 -2.47510585E+01  0.00000000E+00  1.23755293E+01
  1.23755293E+01 -2.47510585E+01  0.00000000E+00  1.23755293E+01  1.23755293E+01
 -2.47510585E+01  0.00000000E+00  1.23755293E+01  1.23755293E+01 -2.47510585E+01
  0.00000000E+00  1.23755293E+01  1.23755293E+01 -2.47510585E+01  0.00000000E+00
  1.23755293E+01  1.23755293E+01 -2.47510585E+01  0.00000000E+00  1.23755293E+01
  1.23755293E+01 -2.47510585E+01  0.00000000E+00  1.23755293E+01  1.23755293E+01
 -2.47510585E+01  0.00000000E+00  1.23755293E+01  1.23755293E+01 -2.47510585E+01
  0.00000000E+00  1.23755293E+01  1.23755293E+01 -2.47510585E+01  0.00000000E+00
  1.23755293E+01  1.23755293E+01 -2.47510585E+01  0.00000000E+00  1.23755293E+01
  1.23755293E+01 -2.47510585E+01  0.00000000E+00  1.23755293E+01  1.23755293E+01
 -2.47510585E+01  0.00000000E+00  1.23755293E+01  1.23755293E+01 -2.47510585E+01
  0.00000000E+00  1.23755293E+01  1.23755293E+01 -2.47510585E+01  0.00000000E+00
  1.23755293E+01  1.23755293E+01 -2.47510585E+01  0.00000000E+00  1.23755293E+01
  1.23755293E+01 -2.47510585E+01  0.00000000E+00  1.23755293E+01  1.23755293E+01
 -2.47510585E+01  0.00000000E+00  1.23755293E+01  1.23755293E+01 -2.47510585E+01
  0.00000000E+00  1.23755293E+01  1.23755293E+01 -2.47510585E+01  0.00000000E+00
  1.23755293E+01  1.23755293E+01 -2.47510585E+01  0.00000000E+00  1.23755293E+01
  1.23755293E+01 -2.47510585E+01  0.00000000E+00  1.23755293E+01  1.23755293E+01
 -2.47510585E+01  0.00000000E+00  1.23755293E+01  1.23755293E+01 -2.47510585E+01
  0.00000000E+00  1.23755293E+01  1.23755293E+01 -2.47510585E+01  0.00000000E+00
  1.23755293E+01  1.23755293E+01 -2.47510585E+01  0.00000000E+00  1.23755293E+01
  1.23755293E+01 -2.47510585E+01  0.00000000E+00  1.23755293E+01  1.23755293E+01
 -2.47510585E+01  0.00000000E+00  1.23755293E+01  1.23755293E+01 -2.47510585E+01
  0.00000000E+00  1.23755293E+01  1.23755293E+01 -2.47510585E+01  0.00000000E+00
  1.23755293E+01  1.23755293E+01 -2.47510585E+01  0.00000000E+00  1.23755293E+01
  1.23755293E+01 -2.47510585E+01  0.00000000E+00  1.23755293E+01  1.23755293E+01
 -2.47510585E+01  0.00000000E+00  1.23755293E+01  1.23755293E+01 -2.47510585E+01
  0.00000000E+00  1.23755293E+01  1.23755293E+01 -2.47510585E+01  0.00000000E+00
  1.23755293E+01  1.23755293E+01 -2.47510585E+01  0.00000000E+00  1.23755293E+01
  1.23755293E+01 -2.47510585E+01  0.00000000E+00  1.23755293E+01  1.23755293E+01
 -2.47510585E+01  0.00000000E+00  1.23755293E+01  1.23755293E+01 -2.47510585E+01
  0.00000000E+00  1.23755293E+01  1.23755293E+01 -2.47510585E+01  0.00000000E+00
  1.23755293E+01  1.23755293E+01 -2.47510585E+01  0.00000000E+00  1.23755293E+01
  1.23755293E+01 -2.47510585E+01  0.00000000E+00  1.23755293E+01  1.23755293E+01
 -2.47510585E+01  0.00000000E+00  1.23755293E+01  1.23755293E+01 -2.47510585E+01
  0.00000000E+00  1.23755293E+01  1.23755293E+01 -2.47510585E+01  0.00000000E+00
  1.23755293E+01  1.23755293E+01 -2.47510585E+01  0.00000000E+00  1.23755293E+01
  1.23755293E+01 -2.47510585E+01  0.00000000E+00  1.23755293E+01  1.23755293E+01
 -2.47510585E+01  0.00000000E+00  1.23755293E+01  1.23755293E+01 -2.47510585E+01
  0.00000000E+00  1.23755293E+01  1.23755293E+01 -2.47510585E+01  0.00000000E+00
  1.23755293E+01  1.23755293E+01 -2.47510585E+01  0.00000000E+00  1.23755293E+01
  1.23755293E+01 -2.47510585E+01  0.00000000E+00  1.23755293E+01  1.23755293E+01
 -2.47510585E+01  0.00000000E+00  1.23755293E+01  1.23755293E+01 -2.47510585E+01
  0.00000000E+00  1.23755293E+01  1.23755293E+01 -2.47510585E+01  0.00000000E+00
  1.23755293E+01  1.23755293E+01 -2.47510585E+01  0.00000000E+00  1.23755293E+01
  1.23755293E+01 -2.47510585E+01  0.00000000E+00  1.23755293E+01  1.23755293E+01
 -2.47510585E+01  0.00000000E+00  1.23755293E+01  1.23755293E+01 -2.47510585E+01
  0.00000000E+00  1.23755293E+01  1.23755293E+01 -2.47510585E+01  0.00000000E+00
  1.23755293E+01  1.23755293E+01 -2.47510585E+01  0.00000000E+00  1.23755293E+01
  1.23755293E+01 -2.47510585E+01  0.00000000E+00  1.23755293E+01  1.23755293E+01
 -2.47510585E+01  0.00000000E+00  1.23755293E+01  1.23755293E+01 -2.47510585E+01
  0.00000000E+00  1.23755293E+01  1.23755293E+01 -2.47510585E+01  0.00000000E+00
  1.23755293E+01  1.23755293E+01 -2.47510585E+01  0.00000000E+00  1.23755293E+01
  1.23755293E+01 -2.47510585E+01  0.00000000E+00  1.23755293E+01  1.23755293E+01
 -2.47510585E+01  0.00000000E+00  1.23755293E+01  1.23755293E+01 -2.47510585E+01
  0.00000000E+00  1.23755293E+01  1.23755293E+01 -2.47510585E+01  0.00000000E+00
  1.23755293E+01  1.23755293E+01 -2.47510585E+01  0.00000000E+00  1.23755293E+01
  1.23755293E+01 -2.47510585E+01  0.00000000E+00  1.23755293E+01  1.23755293E+01
 -2.47510585E+01  0.00000000E+00  1.23755293E+01  1.23755293E+01 -2.47510585E+01
  0.00000000E+00  1.23755293E+01  1.23755293E+01 -2.47510585E+01  0.00000000E+00
  1.23755293E+01  1.23755293E+01 -2.47510585E+01  0.00000000E+00  1.23755293E+01
  1.23755293E+01 -2.47510585E+01  0.00000000E+00  1.23755293E+01  1.23755293E+01
 -2.47510585E+01  0.00000000E+00  1.23755293E+01  1.23755293E+01 -2.47510585E+01
  0.00000000E+00  1.23755293E+01  1.23755293E+01 -2.47510585E+01  0.00000000E+00
  1.23755293E+01  1.23755293E+01 -2.47510585E+01  0.00000000E+00  1.23755293E+01
  1.23755293E+01 -2.47510585E+01  0.00000000E+00  1.23755293E+01  1.23755293E+01
 -2.47510585E+01  0.00000000E+00  1.23755293E+01  1.23755293E+01 -2.47510585E+01
  0.00000000E+00  1.23755293E+01  1.23755293E+01 -2.47510585E+01  0.00000000E+00
  1.23755293E+01  1.23755293E+01 -2.47510585E+01  0.00000000E+00  1.23755293E+01
  1.23755293E+01 -2.47510585E+01  0.00000000E+00  1.23755293E+01  1.23755293E+01
 -2.47510585E+01  0.00000000E+00  1.23755293E+01  1.23755293E+01 -2.47510585E+01
  0.00000000E+00  1.23755293E+01  1.23755293E+01 -2.47510585E+01  0.00000000E+00
  1.23755293E+01  1.23755293E+01 -2.47510585E+01  0.00000000E+00  1.23755293E+01
  1.23755293E+01 -2.47510585E+01  0.00000000E+00  1.23755293E+01  1.23755293E+01
 -2.47510585E+01  0.00000000E+00  1.23755293E+01  1.23755293E+01 -2.47510585E+01
  0.00000000E+00  1.23755293E+01  1.23755293E+01 -2.47510585E+01  0.00000000E+00
  1.23755293E+01  1.23755293E+01 -2.47510585E+01  0.00000000E+00  1.23755293E+01
  1.23755293E+01 -2.47510585E+01  0.00000000E+00  1.23755293E+01  1.23755293E+01
 -2.47510585E+01  0.00000000E+00  1.23755293E+01  1.23755293E+01 -2.47510585E+01
  0.00000000E+00  1.23755293E+01  1.23755293E+01 -2.47510585E+01  0.00000000E+00
  1.23755293E+01  1.23755293E+01 -2.47510585E+01  0.00000000E+00  1.23755293E+01
  1.23755293E+01 -2.47510585E+01  0.00000000E+00  1.23755293E+01  1.23755293E+01
 -2.47510585E+01  0.00000000E+00  1.23755293E+01  1.23755293E+01 -2.47510585E+01
  0.00000000E+00  1.23755293E+01  1.23755293E+01 -2.47510585E+01  0.00000000E+00
  1.23755293E+01  1.23755293E+01 -2.47510585E+01  0.00000000E+00  1.23755293E+01
  1.23755293E+01 -2.47510585E+01  0.00000000E+00  1.23755293E+01  1.23755293E+01
 -2.47510585E+01  0.00000000E+00  1.23755293E+01  1.23755293E+01 -2.47510585E+01
  0.00000000E+00  1.23755293E+01  1.23755293E+01 -2.47510585E+01  0.00000000E+00
  1.23755293E+01  1.23755293E+01 -2.47510585E+01  0.00000000E+00  1.23755293E+01
  1.23755293E+01 -2.47510585E+01  0.00000000E+00  1.23755293E+01  1.23755293E+01
 -2.47510585E+01  0.00000000E+00  1.23755293E+01  1.23755293E+01 -2.47510585E+01
  0.00000000E+00  1.23755293E+01  1.23755293E+01 -2.47510585E+01  0.00000000E+00
  1.23755293E+01  1.23755293E+01 -2.47510585E+01  0.00000000E+00  1.23755293E+01
  1.23755293E+01 -2.47510585E+01  0.00000000E+00  1.23755293E+01  1.23755293E+01
 -2.47510585E+01  0.00000000E+00  1.23755293E+01  1.23755293E+01 -2.47510585E+01
  0.00000000E+00  1.23755293E+01  1.23755293E+01 -2.47510585E+01  0.00000000E+00
  1.23755293E+01  1.23755293E+01 -2.47510585E+01  0.00000000E+00  1.23755293E+01
  1.23755293E+01 -2.47510585E+01  0.00000000E+00  1.23755293E+01  1.23755293E+01
 -2.47510585E+01  0.00000000E+00  1.23755293E+01  1.23755293E+01 -2.47510585E+01
  0.00000000E+00  1.23755293E+01  1.23755293E+01 -2.47510585E+01  0.00000000E+00
  1.23755293E+01  1.23755293E+01 -2.47510585E+01  0.00000000E+00  1.23755293E+01
  1.23755293E+01 -2.47510585E+01  0.00000000E+00  1.23755293E+01  1.23755293E+01
 -2.47510585E+01  0.00000000E+00  1.23755293E+01  1.23755293E+01 -2.47510585E+01
  0.00000000E+00  1.23755293E+01  1.23755293E+01 -2.47510585E+01  0.00000000E+00
  1.23755293E+01  1.23755293E+01 -2.47510585E+01  0.00000000E+00  1.23755293E+01
  1.23755293E+01 -2.47510585E+01  0.00000000E+00  1.23755293E+01  1.23755293E+01
 -2.47510585E+01  0.00000000E+00  1.23755293E+01  1.23755293E+01 -2.47510585E+01
  0.00000000E+00  1.23755293E+01  1.23755293E+01 -2.47510585E+01  0.00000000E+00
  1.23755293E+01  1.23755293E+01 -2.47510585E+01  0.00000000E+00  1.23755293E+01
  1.23755293E+01 -2.47510585E+01  0.00000000E+00  1.23755293E+01  1.23755293E+01
 -2.47510585E+01  0.00000000E+00  1.23755293E+01  1.23755293E+01 -2.47510585E+01
  0.00000000E+00  1.23755293E+01  1.23755293E+01 -2.47510585E+01  0.00000000E+00
  1.23755293E+01  1.23755293E+01 -2.47510585E+01  0.00000000E+00  1.23755293E+01
  1.23755293E+01 -2.47510585E+01  0.00000000E+00  1.23755293E+01  1.23755293E+01
 -2.47510585E+01  0.00000000E+00  1.23755293E+01  1.23755293E+01 -2.47510585E+01
  0.00000000E+00  1.23755293E+01  1.23755293E+01 -2.47510585E+01  0.00000000E+00
  1.23755293E+01  1.23755293E+01 -2.47510585E+01  0.00000000E+00  1.23755293E+01
  1.23755293E+01 -2.47510585E+01  0.00000000E+00  1.23755293E+01  1.23755293E+01
 -2.47510585E+01  0.00000000E+00  1.23755293E+01  1.23755293E+01 -2.47510585E+01
  0.00000000E+00  1.23755293E+01  1.23755293E+01 -2.47510585E+01  0.00000000E+00
  1.23755293E+01  1.23755293E+01 -2.47510585E+01  0.00000000E+00  1.23755293E+01
  1.23755293E+01 -2.47510585E+01  0.00000000E+00  1.23755293E+01  1.23755293E+01
 -2.47510585E+01  0.00000000E+00  1.23755293E+01  1.23755293E+01 -2.47510585E+01
  0.00000000E+00  1.23755293E+01  1.23755293E+01 -2.47510585E+01  0.00000000E+00
  1.23755293E+01  1.23755293E+01 -2.47510585E+01  0.00000000E+00  1.23755293E+01
  1.23755293E+01 -2.47510585E+01  0.00000000E+00  1.23755293E+01  1.23755293E+01
 -2.47510585E+01  0.00000000E+00  1.23755293E+01  1.23755293E+01 -2.47510585E+01
  0.00000000E+00  1.23755293E+01  1.23755293E+01 -2.47510585E+01  0.00000000E+00
  1.23755293E+01  1.23755293E+01 -2.47510585E+01  0.00000000E+00  1.23755293E+01
  1.23755293E+01 -2.47510585E+01  0.00000000E+00  1.23755293E+01  1.23755293E+01
 -2.47510585E+01  0.00000000E+00  1.23755293E+01  1.23755293E+01 -2.47510585E+01
  0.00000000E+00  1.23755293E+01  1.23755293E+01 -2.47510585E+01  0.00000000E+00
  1.23755293E+01  1.23755293E+01 -2.47510585E+01  0.00000000E+00  1.23755293E+01
  1.23755293E+01 -2.47510585E+01  0.00000000E+00  1.23755293E+01  1.23755293E+01
 -2.47510585E+01  0.00000000E+00  1.23755293E+01  1.23755293E+01 -2.47510585E+01
  0.00000000E+00  1.23755293E+01  1.23755293E+01 -2.47510585E+01  0.00000000E+00
  1.23755293E+01  1.23755293E+01 -2.47510585E+01  0.00000000E+00  1.23755293E+01
  1.23755293E+01 -2.47510585E+01  0.00000000E+00  1.23755293E+01  1.23755293E+01
 -2.47510585E+01  0.00000000E+00  1.23755293E+01  1.23755293E+01 -2.47510585E+01
  0.00000000E+00  1.23755293E+01  1.23755293E+01 -2.47510585E+01  0.00000000E+00
  1.23755293E+01  1.23755293E+01 -2.47510585E+01  0.00000000E+00  1.23755293E+01
  1.23755293E+01 -2.47510585E+01  0.00000000E+00  1.23755293E+01  1.23755293E+01
 -2.47510585E+01  0.00000000E+00  1.23755293E+01  1.23755293E+01 -2.47510585E+01
  0.00000000E+00  1.23755293E+01  1.23755293E+01 -2.47510585E+01  0.00000000E+00
  1.23755293E+01  1.23755293E+01 -2.47510585E+01  0.00000000E+00  1.23755293E+01
  1.23755293E+01 -2.47510585E+01  0.00000000E+00  1.23755293E+01  1.23755293E+01
 -2.47510585E+01  0.00000000E+00  1.23755293E+01  1.23755293E+01 -2.47510585E+01
  0.00000000E+00  1.23755293E+01  1.23755293E+01 -2.47510585E+01  0.00000000E+00
  1.23755293E+01  1.23755293E+01 -2.47510585E+01  0.00000000E+00  1.23755293E+01
  1.23755293E+01 -2.47510585E+01  0.00000000E+00  1.23755293E+01  1.23755293E+01
 -2.47510585E+01  0.00000000E+00  1.23755293E+01  1.23755293E+01 -2.47510585E+01
  0.00000000E+00  1.23755293E+01  1.23755293E+01 -2.47510585E+01  0.00000000E+00
  1.23755293E+01  1.23755293E+01 -2.47510585E+01  0.00000000E+00  1.23755293E+01
  1.23755293E+01 -2.47510585E+01  0.00000000E+00  1.23755293E+01  1.23755293E+01
 -2.47510585E+01  0.00000000E+00  1.23755293E+01  1.23755293E+01 -2.47510585E+01
  0.00000000E+00  1.23755293E+01  1.23755293E+01 -2.47510585E+01  0.00000000E+00
  1.23755293E+01  1.23755293E+01 -2.47510585E+01  0.00000000E+00  1.23755293E+01
  1.23755293E+01 -2.47510585E+01  0.00000000E+00  1.23755293E+01  1.23755293E+01
 -2.47510585E+01  0.00000000E+00  1.23755293E+01  1.23755293E+01 -2.47510585E+01
  0.00000000E+00  1.23755293E+01  1.23755293E+01 -2.47510585E+01  0.00000000E+00
  1.23755293E+01  1.23755293E+01 -2.47510585E+01  0.00000000E+00  1.23755293E+01
  1.23755293E+01 -2.47510585E+01  0.00000000E+00  1.23755293E+01  1.23755293E+01
 -2.47510585E+01  0.00000000E+00  1.23755293E+01  1.23755293E+01 -2.47510585E+01
  0.00000000E+00  1.23755293E+01  1.23755293E+01 -2.47510585E+01  0.00000000E+00
  1.23755293E+01  1.23755293E+01 -2.47510585E+01  0.00000000E+00  1.23755293E+01
  1.23755293E+01 -2.47510585E+01  0.00000000E+00  1.23755293E+01  1.23755293E+01
 -2.47510585E+01  0.00000000E+00  1.23755293E+01  1.23755293E+01 -2.47510585E+01
  0.00000000E+00  1.23755293E+01  1.23755293E+01 -2.47510585E+01  0.00000000E+00
  1.23755293E+01  1.23755293E+01 -2.47510585E+01  0.00000000E+00  1.23755293E+01
  1.23755293E+01 -2.47510585E+01  0.00000000E+00  1.23755293E+01  1.23755293E+01
 -2.47510585E+01  0.00000000E+00  1.23755293E+01  1.23755293E+01 -2.47510585E+01
  0.00000000E+00  1.23755293E+01  1.23755293E+01 -2.47510585E+01  0.00000000E+00
  1.23755293E+01  1.23755293E+01 -2.47510585E+01  0.00000000E+00  1.23755293E+01
  1.23755293E+01 -2.47510585E+01  0.00000000E+00  1.23755293E+01  1.23755293E+01
 -2.47510585E+01  0.00000000E+00  1.23755293E+01  1.23755293E+01 -2.47510585E+01
  0.00000000E+00  1.23755293E+01  1.23755293E+01 -2.47510585E+01  0.00000000E+00
  1.23755293E+01  1.23755293E+01 -2.47510585E+01  0.00000000E+00  1.23755293E+01
  1.23755293E+01 -2.47510585E+01  0.00000000E+00  1.23755293E+01  1.23755293E+01
 -2.47510585E+01  0.00000000E+00  1.23755293E+01  1.23755293E+01 -2.47510585E+01
  0.00000000E+00  1.23755293E+01  1.23755293E+01 -2.47510585E+01  0.00000000E+00
  1.23755293E+01  1.23755293E+01 -2.47510585E+01  0.00000000E+00  1.23755293E+01
  1.23755293E+01 -2.47510585E+01  0.00000000E+00  1.23755293E+01  1.23755293E+01
 -2.47510585E+01  0.00000000E+00  1.23755293E+01  1.23755293E+01 -2.47510585E+01
  0.00000000E+00  1.23755293E+01  1.23755293E+01 -2.47510585E+01  0.00000000E+00
  1.23755293E+01  1.23755293E+01 -2.47510585E+01  0.00000000E+00  1.23755293E+01
  1.23755293E+01 -2.47510585E+01  0.00000000E+00  1.23755293E+01  1.23755293E+01
 -2.47510585E+01  0.00000000E+00  1.23755293E+01  1.23755293E+01 -2.47510585E+01
  0.00000000E+00  1.23755293E+01  1.23755293E+01 -2.47510585E+01  0.00000000E+00
  1.23755293E+01  1.23755293E+01 -2.47510585E+01  0.00000000E+00  1.23755293E+01
  1.23755293E+01 -2.47510585E+01  0.00000000E+00  1.23755293E+01  1.23755293E+01
 -2.47510585E+01  0.00000000E+00  1.23755293E+01  1.23755293E+01 -2.47510585E+01
  0.00000000E+00  1.23755293E+01  1.23755293E+01 -2.47510585E+01  0.00000000E+00
  1.23755293E+01  1.23755293E+01 -2.47510585E+01  0.00000000E+00  1.23755293E+01
  1.23755293E+01 -2.47510585E+01  0.00000000E+00  1.23755293E+01  1.23755293E+01
 -2.47510585E+01  0.00000000E+00  1.23755293E+01  1.23755293E+01 -2.47510585E+01
  0.00000000E+00  1.23755293E+01  1.23755293E+01 -2.47510585E+01  0.00000000E+00
  1.23755293E+01  1.23755293E+01 -2.47510585E+01  0.00000000E+00  1.23755293E+01
  1.23755293E+01 -2.47510585E+01  0.00000000E+00  1.23755293E+01  1.23755293E+01
 -2.47510585E+01  0.00000000E+00  1.23755293E+01  1.23755293E+01 -2.47510585E+01
  0.00000000E+00  1.23755293E+01  1.23755293E+01 -2.47510585E+01  0.00000000E+00
  1.23755293E+01  1.23755293E+01 -2.47510585E+01  0.00000000E+00  1.23755293E+01
  1.23755293E+01 -2.47510585E+01  0.00000000E+00  1.23755293E+01  1.23755293E+01
 -2.47510585E+01  0.00000000E+00  1.23755293E+01  1.23755293E+01 -2.47510585E+01
  0.00000000E+00  1.23755293E+01  1.23755293E+01 -2.47510585E+01  0.00000000E+00
  1.23755293E+01  1.23755293E+01 -2.47510585E+01  0.00000000E+00  1.23755293E+01
  1.23755293E+01 -2.47510585E+01  0.00000000E+00  1.23755293E+01  1.23755293E+01
 -2.47510585E+01  0.00000000E+00  1.23755293E+01  1.23755293E+01 -2.47510585E+01
  0.00000000E+00  1.23755293E+01  1.23755293E+01 -2.47510585E+01  0.00000000E+00
  1.23755293E+01  1.23755293E+01 -2.47510585E+01  0.00000000E+00  1.23755293E+01
  1.23755293E+01 -2.47510585E+01  0.00000000E+00  1.23755293E+01  1.23755293E+01
 -2.47510585E+01  0.00000000E+00  1.23755293E+01  1.23755293E+01 -2.47510585E+01
  0.00000000E+00  1.23755293E+01  1.23755293E+01 -2.47510585E+01  0.00000000E+00
  1.23755293E+01  1.23755293E+01 -2.47510585E+01  0.00000000E+00  1.23755293E+01
  1.23755293E+01 -2.47510585E+01  0.00000000E+00  1.23755293E+01  1.23755293E+01
 -2.47510585E+01  0.00000000E+00  1.23755293E+01  1.23755293E+01 -2.47510585E+01
  0.00000000E+00  1.23755293E+01  1.23755293E+01 -2.47510585E+01  0.00000000E+00
  1.23755293E+01  1.23755293E+01 -2.47510585E+01  0.00000000E+00  1.23755293E+01
  1.23755293E+01 -2.47510585E+01  0.00000000E+00  1.23755293E+01  1.23755293E+01
 -2.47510585E+01  0.00000000E+00  1.23755293E+01  1.23755293E+01 -2.47510585E+01
  0.00000000E+00  1.23755293E+01  1.23755293E+01 -2.47510585E+01  0.00000000E+00
  1.23755293E+01  1.23755293E+01 -2.47510585E+01  0.00000000E+00  1.23755293E+01
  1.23755293E+01 -2.47510585E+01  0.00000000E+00  1.23755293E+01  1.23755293E+01
 -2.47510585E+01  0.00000000E+00  1.23755293E+01  1.23755293E+01 -2.47510585E+01
  0.00000000E+00  1.23755293E+01  1.23755293E+01 -2.47510585E+01  0.00000000E+00
  1.23755293E+01  1.23755293E+01 -2.47510585E+01  0.00000000E+00  1.23755293E+01
  1.23755293E+01 -2.47510585E+01  0.00000000E+00  1.23755293E+01  1.23755293E+01
 -2.47510585E+01  0.00000000E+00  1.23755293E+01  1.23755293E+01 -2.47510585E+01
  0.00000000E+00  1.23755293E+01  1.23755293E+01 -2.47510585E+01  0.00000000E+00
  1.23755293E+01  1.23755293E+01 -2.47510585E+01  0.00000000E+00  1.23755293E+01
  1.23755293E+01 -2.47510585E+01  0.00000000E+00  1.23755293E+01  1.23755293E+01
 -2.47510585E+01  0.00000000E+00  1.23755293E+01  1.23755293E+01 -2.47510585E+01
  0.00000000E+00  1.23755293E+01  1.23755293E+01 -2.47510585E+01  0.00000000E+00
  1.23755293E+01  1.23755293E+01 -2.47510585E+01  0.00000000E+00  1.23755293E+01
  1.23755293E+01 -2.47510585E+01  0.00000000E+00  1.23755293E+01  1.23755293E+01
 -2.47510585E+01  0.00000000E+00  1.23755293E+01  1.23755293E+01 -2.47510585E+01
  0.00000000E+00  1.23755293E+01  1.23755293E+01 -2.47510585E+01  0.00000000E+00
  1.23755293E+01  1.23755293E+01 -2.47510585E+01  0.00000000E+00  1.23755293E+01
  1.23755293E+01 -2.47510585E+01  0.00000000E+00  1.23755293E+01  1.23755293E+01
 -2.47510585E+01  0.00000000E+00  1.23755293E+01  1.23755293E+01 -2.47510585E+01
  0.00000000E+00  1.23755293E+01  1.23755293E+01 -2.47510585E+01  0.00000000E+00
  1.23755293E+01  1.23755293E+01 -2.47510585E+01  0.00000000E+00  1.23755293E+01
  1.23755293E+01 -2.47510585E+01  0.00000000E+00  1.23755293E+01  1.23755293E+01
 -2.47510585E+01  0.00000000E+00  1.23755293E+01  1.23755293E+01 -2.47510585E+01
  0.00000000E+00  1.23755293E+01  1.23755293E+01 -2.47510585E+01  0.00000000E+00
  1.23755293E+01  1.23755293E+01 -2.47510585E+01  0.00000000E+00  1.23755293E+01
  1.23755293E+01 -2.47510585E+01  0.00000000E+00  1.23755293E+01  1.23755293E+01
 -2.47510585E+01  0.00000000E+00  1.23755293E+01  1.23755293E+01 -2.47510585E+01
  0.00000000E+00  1.23755293E+01  1.23755293E+01 -2.47510585E+01  0.00000000E+00
  1.23755293E+01  1.23755293E+01 -2.47510585E+01  0.00000000E+00  1.23755293E+01
  1.23755293E+01 -2.47510585E+01  0.00000000E+00  1.23755293E+01  1.23755293E+01
 -2.47510585E+01  0.00000000E+00  1.23755293E+01  1.23755293E+01 -2.47510585E+01
  0.00000000E+00  1.23755293E+01  1.23755293E+01 -2.47510585E+01  0.00000000E+00
  1.23755293E+01  1.23755293E+01 -2.47510585E+01  0.00000000E+00  1.23755293E+01
  1.23755293E+01 -2.47510585E+01  0.00000000E+00  1.23755293E+01  1.23755293E+01
 -2.47510585E+01  0.00000000E+00  1.23755293E+01  1.23755293E+01 -2.47510585E+01
  0.00000000E+00  1.23755293E+01  1.23755293E+01 -2.47510585E+01  0.00000000E+00
  1.23755293E+01  1.23755293E+01 -2.47510585E+01  0.00000000E+00  1.23755293E+01
  1.23755293E+01 -2.47510585E+01  0.00000000E+00  1.23755293E+01  1.23755293E+01
 -2.47510585E+01  0.00000000E+00  1.23755293E+01  1.23755293E+01 -2.47510585E+01
  0.00000000E+00  1.23755293E+01  1.23755293E+01 -2.47510585E+01  0.00000000E+00
  1.23755293E+01  1.23755293E+01 -2.47510585E+01  0.00000000E+00  1.23755293E+01
  1.23755293E+01 -2.47510585E+01  0.00000000E+00  1.23755293E+01  1.23755293E+01
 -2.47510585E+01  0.00000000E+00  1.23755293E+01  1.23755293E+01 -2.47510585E+01
  0.00000000E+00  1.23755293E+01  1.23755293E+01 -2.47510585E+01  0.00000000E+00
  1.23755293E+01  1.23755293E+01 -2.47510585E+01  0.00000000E+00  1.23755293E+01
  1.23755293E+01 -2.47510585E+01  0.00000000E+00  1.23755293E+01  1.23755293E+01
 -2.47510585E+01  0.00000000E+00  1.23755293E+01  1.23755293E+01 -2.47510585E+01
  0.00000000E+00  1.23755293E+01  1.23755293E+01 -2.47510585E+01  0.00000000E+00
  1.23755293E+01  1.23755293E+01 -2.47510585E+01  0.00000000E+00  1.23755293E+01
  1.23755293E+01 -2.47510585E+01  0.00000000E+00  1.23755293E+01  1.23755293E+01
 -2.47510585E+01  0.00000000E+00  1.23755293E+01  1.23755293E+01 -2.47510585E+01
  0.00000000E+00  1.23755293E+01  1.23755293E+01 -2.47510585E+01  0.00000000E+00
  1.23755293E+01  1.23755293E+01 -2.47510585E+01  0.00000000E+00  1.23755293E+01
  1.23755293E+01 -2.47510585E+01  0.00000000E+00  1.23755293E+01  1.23755293E+01
 -2.47510585E+01  0.00000000E+00  1.23755293E+01  1.23755293E+01 -2.47510585E+01
  0.00000000E+00  1.23755293E+01  1.23755293E+01 -2.47510585E+01  0.00000000E+00
  1.23755293E+01  1.23755293E+01 -2.47510585E+01  0.00000000E+00  1.23755293E+01
  1.23755293E+01 -2.47510585E+01  0.00000000E+00  1.23755293E+01  1.23755293E+01
 -2.47510585E+01  0.00000000E+00  1.23755293E+01  1.23755293E+01 -2.47510585E+01
  0.00000000E+00  1.23755293E+01  1.23755293E+01 -2.47510585E+01  0.00000000E+00
  1.23755293E+01  1.23755293E+01 -2.47510585E+01  0.00000000E+00  1.23755293E+01
  1.23755293E+01 -2.47510585E+01  0.00000000E+00  1.23755293E+01  1.23755293E+01
 -2.47510585E+01  0.00000000E+00  1.23755293E+01  1.23755293E+01 -2.47510585E+01
  0.00000000E+00  1.23755293E+01  1.23755293E+01 -2.47510585E+01  0.00000000E+00
  1.23755293E+01  1.23755293E+01 -2.47510585E+01  0.00000000E+00  1.23755293E+01
  1.23755293E+01 -2.47510585E+01  0.00000000E+00  1.23755293E+01  1.23755293E+01
 -2.47510585E+01  0.00000000E+00  1.23755293E+01  1.23755293E+01 -2.47510585E+01
  0.00000000E+00  1.23755293E+01  1.23755293E+01 -2.47510585E+01  0.00000000E+00
  1.23755293E+01  1.23755293E+01 -2.47510585E+01  0.00000000E+00  1.23755293E+01
  1.23755293E+01 -2.47510585E+01  0.00000000E+00  1.23755293E+01  1.23755293E+01
 -2.47510585E+01  0.00000000E+00  1.23755293E+01  1.23755293E+01 -2.47510585E+01
  0.00000000E+00  1.23755293E+01  1.23755293E+01 -2.47510585E+01  0.00000000E+00
  1.23755293E+01  1.23755293E+01 -2.47510585E+01  0.00000000E+00  1.23755293E+01
  1.23755293E+01 -2.47510585E+01  0.00000000E+00  1.23755293E+01  1.23755293E+01
 -2.47510585E+01  0.00000000E+00  1.23755293E+01  1.23755293E+01 -2.47510585E+01
  0.00000000E+00  1.23755293E+01  1.23755293E+01 -2.47510585E+01  0.00000000E+00
  1.23755293E+01  1.23755293E+01 -2.47510585E+01  0.00000000E+00  1.23755293E+01
  1.23755293E+01 -2.47510585E+01  0.00000000E+00  1.23755293E+01  1.23755293E+01
 -2.47510585E+01  0.00000000E+00  1.23755293E+01  1.23755293E+01 -2.47510585E+01
  0.00000000E+00  1.23755293E+01  1.23755293E+01 -2.47510585E+01  0.00000000E+00
  1.23755293E+01  1.23755293E+01 -2.47510585E+01  0.00000000E+00  1.23755293E+01
  1.23755293E+01 -2.47510585E+01  0.00000000E+00  1.23755293E+01  1.23755293E+01
 -2.47510585E+01  0.00000000E+00  1.23755293E+01  1.23755293E+01 -2.47510585E+01
  0.00000000E+00  1.23755293E+01  1.23755293E+01 -2.47510585E+01  0.00000000E+00
  1.23755293E+01  1.23755293E+01 -2.47510585E+01  0.00000000E+00  1.23755293E+01
  1.23755293E+01 -2.47510585E+01  0.00000000E+00  1.23755293E+01  1.23755293E+01
 -2.47510585E+01  0.00000000E+00  1.23755293E+01  1.23755293E+01 -2.47510585E+01
  0.00000000E+00  1.23755293E+01  1.23755293E+01 -2.47510585E+01  0.00000000E+00
  1.23755293E+01  1.23755293E+01 -2.47510585E+01  0.00000000E+00  1.23755293E+01
  1.23755293E+01 -2.47510585E+01  0.00000000E+00  1.23755293E+01  1.23755293E+01
 -2.47510585E+01  0.00000000E+00  1.23755293E+01  1.23755293E+01 -2.47510585E+01
  0.00000000E+00  1.23755293E+01  1.23755293E+01 -2.47510585E+01  0.00000000E+00
  1.23755293E+01  1.23755293E+01 -2.47510585E+01  0.00000000E+00  1.23755293E+01
  1.23755293E+01 -2.47510585E+01  0.00000000E+00  1.23755293E+01  1.23755293E+01
 -2.47510585E+01  0.00000000E+00  1.23755293E+01  1.23755293E+01 -2.47510585E+01
  0.00000000E+00  1.23755293E+01  1.23755293E+01 -2.47510585E+01  0.00000000E+00
  1.23755293E+01  1.23755293E+01 -2.47510585E+01  0.00000000E+00  1.23755293E+01
  1.23755293E+01 -2.47510585E+01  0.00000000E+00  1.23755293E+01  1.23755293E+01
 -2.47510585E+01  0.00000000E+00  1.23755293E+01  1.23755293E+01 -2.47510585E+01
  0.00000000E+00  1.23755293E+01  1.23755293E+01 -2.47510585E+01  0.00000000E+00
  1.23755293E+01  1.23755293E+01 -2.47510585E+01  0.00000000E+00  1.23755293E+01
  1.23755293E+01 -2.47510585E+01  0.00000000E+00  1.23755293E+01  1.23755293E+01
 -2.47510585E+01  0.00000000E+00  1.23755293E+01  1.23755293E+01 -2.47510585E+01
  0.00000000E+00  1.23755293E+01  1.23755293E+01 -2.47510585E+01  0.00000000E+00
  1.23755293E+01  1.23755293E+01 -2.47510585E+01  0.00000000E+00  1.23755293E+01
  1.23755293E+01 -2.47510585E+01  0.00000000E+00  1.23755293E+01  1.23755293E+01
 -2.47510585E+01  0.00000000E+00  1.23755293E+01  1.23755293E+01 -2.47510585E+01
  0.00000000E+00  1.23755293E+01  1.23755293E+01 -2.47510585E+01  0.00000000E+00
  1.23755293E+01  1.23755293E+01 -2.47510585E+01  0.00000000E+00  1.23755293E+01
  1.23755293E+01 -2.47510585E+01  0.00000000E+00  1.23755293E+01  1.23755293E+01
 -2.47510585E+01  0.00000000E+00  1.23755293E+01  1.23755293E+01 -2.47510585E+01
  0.00000000E+00  1.23755293E+01  1.23755293E+01 -2.47510585E+01  0.00000000E+00
  1.23755293E+01  1.23755293E+01 -2.47510585E+01  0.00000000E+00  1.23755293E+01
  1.23755293E+01 -2.47510585E+01  0.00000000E+00  1.23755293E+01  1.23755293E+01
 -2.47510585E+01  0.00000000E+00  1.23755293E+01  1.23755293E+01 -2.47510585E+01
  0.00000000E+00  1.23755293E+01  1.23755293E+01 -2.47510585E+01  0.00000000E+00
  1.23755293E+01  1.23755293E+01 -2.47510585E+01  0.00000000E+00  1.23755293E+01
  1.23755293E+01 -2.47510585E+01  0.00000000E+00  1.23755293E+01  1.23755293E+01
 -2.47510585E+01  0.00000000E+00  1.23755293E+01  1.23755293E+01 -2.47510585E+01
  0.00000000E+00  1.23755293E+01  1.23755293E+01 -2.47510585E+01  0.00000000E+00
  1.23755293E+01  1.23755293E+01 -2.47510585E+01  0.00000000E+00  1.23755293E+01
  1.23755293E+01 -2.47510585E+01  0.00000000E+00  1.23755293E+01  1.23755293E+01
 -2.47510585E+01  0.00000000E+00  1.23755293E+01  1.23755293E+01 -2.47510585E+01
  0.00000000E+00  1.23755293E+01  1.23755293E+01 -2.47510585E+01  0.00000000E+00
  1.23755293E+01  1.23755293E+01 -2.47510585E+01  0.00000000E+00  1.23755293E+01
  1.23755293E+01 -2.47510585E+01  0.00000000E+00  1.23755293E+01  1.23755293E+01
 -2.47510585E+01  0.00000000E+00  1.23755293E+01  1.23755293E+01 -2.47510585E+01
  0.00000000E+00  1.23755293E+01  1.23755293E+01 -2.47510585E+01  0.00000000E+00
  1.23755293E+01  1.23755293E+01 -2.47510585E+01  0.00000000E+00  1.23755293E+01
  1.23755293E+01 -2.47510585E+01  0.00000000E+00  1.23755293E+01  1.23755293E+01
 -2.47510585E+01  0.00000000E+00  1.23755293E+01  1.23755293E+01 -2.47510585E+01
  0.00000000E+00  1.23755293E+01  1.23755293E+01 -2.47510585E+01  0.00000000E+00
  1.23755293E+01  1.23755293E+01 -2.47510585E+01  0.00000000E+00  1.23755293E+01
  1.23755293E+01 -2.47510585E+01  0.00000000E+00  1.23755293E+01  1.23755293E+01
 -2.47510585E+01  0.00000000E+00  1.23755293E+01  1.23755293E+01 -2.47510585E+01
  0.00000000E+00  1.23755293E+01  1.23755293E+01 -2.47510585E+01  0.00000000E+00
  1.23755293E+01  1.23755293E+01 -2.47510585E+01  0.00000000E+00  1.23755293E+01
  1.23755293E+01 -2.47510585E+01  0.00000000E+00  1.23755293E+01  1.23755293E+01
 -2.47510585E+01  0.00000000E+00  1.23755293E+01  1.23755293E+01 -2.47510585E+01
  0.00000000E+00  1.23755293E+01  1.23755293E+01 -2.47510585E+01  0.00000000E+00
  1.23755293E+01  1.23755293E+01 -2.47510585E+01  0.00000000E+00  1.23755293E+01
  1.23755293E+01 -2.47510585E+01  0.00000000E+00  1.23755293E+01  1.23755293E+01
 -2.47510585E+01  0.00000000E+00  1.23755293E+01  1.23755293E+01 -2.47510585E+01
  0.00000000E+00  1.23755293E+01  1.23755293E+01 -2.47510585E+01  0.00000000E+00
  1.23755293E+01  1.23755293E+01 -2.47510585E+01  0.00000000E+00  1.23755293E+01
  1.23755293E+01 -2.47510585E+01  0.00000000E+00  1.23755293E+01  1.23755293E+01
 -2.47510585E+01  0.00000000E+00  1.23755293E+01  1.23755293E+01 -2.47510585E+01
  0.00000000E+00  1.23755293E+01  1.23755293E+01 -2.47510585E+01  0.00000000E+00
  1.23755293E+01  1.23755293E+01 -2.47510585E+01  0.00000000E+00  1.23755293E+01
  1.23755293E+01 -2.47510585E+01  0.00000000E+00  1.23755293E+01  1.23755293E+01
 -2.47510585E+01  0.00000000E+00  1.23755293E+01  1.23755293E+01 -2.47510585E+01
  0.00000000E+00  1.23755293E+01  1.23755293E+01 -2.47510585E+01  0.00000000E+00
  1.23755293E+01  1.23755293E+01 -2.47510585E+01  0.00000000E+00  1.23755293E+01
  1.23755293E+01 -2.47510585E+01  0.00000000E+00  1.23755293E+01  1.23755293E+01
 -2.47510585E+01  0.00000000E+00  1.23755293E+01  1.23755293E+01 -2.47510585E+01
  0.00000000E+00  1.23755293E+01  1.23755293E+01 -2.47510585E+01  0.00000000E+00
  1.23755293E+01  1.23755293E+01 -2.47510585E+01  0.00000000E+00  1.23755293E+01
  1.23755293E+01 -2.47510585E+01  0.00000000E+00  1.23755293E+01  1.23755293E+01
 -2.47510585E+01  0.00000000E+00  1.23755293E+01  1.23755293E+01 -2.47510585E+01
  0.00000000E+00  1.23755293E+01  1.23755293E+01 -2.47510585E+01  0.00000000E+00
  1.23755293E+01  1.23755293E+01 -2.47510585E+01  0.00000000E+00  1.23755293E+01
  1.23755293E+01 -2.47510585E+01  0.00000000E+00  1.23755293E+01  1.23755293E+01
 -2.47510585E+01  0.00000000E+00  1.23755293E+01  1.23755293E+01 -2.47510585E+01
  0.00000000E+00  1.23755293E+01  1.23755293E+01 -2.47510585E+01  0.00000000E+00
  1.23755293E+01  1.23755293E+01 -2.47510585E+01  0.00000000E+00  1.23755293E+01
  1.23755293E+01 -2.47510585E+01  0.00000000E+00  1.23755293E+01  1.23755293E+01
 -2.47510585E+01  0.00000000E+00  1.23755293E+01  1.23755293E+01 -2.47510585E+01
  0.00000000E+00  1.23755293E+01  1.23755293E+01 -2.47510585E+01  0.00000000E+00
  1.23755293E+01  1.23755293E+01 -2.47510585E+01  0.00000000E+00  1.23755293E+01
  1.23755293E+01 -2.47510585E+01  0.00000000E+00  1.23755293E+01  1.23755293E+01
 -2.47510585E+01  0.00000000E+00  1.23755293E+01  1.23755293E+01 -2.47510585E+01
  0.00000000E+00  1.23755293E+01  1.23755293E+01 -2.47510585E+01  0.00000000E+00
  1.23755293E+01  1.23755293E+01 -2.47510585E+01  0.00000000E+00  1.23755293E+01
  1.23755293E+01 -2.47510585E+01  0.00000000E+00  1.23755293E+01  1.23755293E+01
 -2.47510585E+01  0.00000000E+00  1.23755293E+01  1.23755293E+01 -2.47510585E+01
  0.00000000E+00  1.23755293E+01  1.23755293E+01 -2.47510585E+01  0.00000000E+00
  1.23755293E+01  1.23755293E+01 -2.47510585E+01  0.00000000E+00  1.23755293E+01
  1.23755293E+01 -2.47510585E+01  0.00000000E+00  1.23755293E+01  1.23755293E+01
 -2.47510585E+01  0.00000000E+00  1.23755293E+01  1.23755293E+01 -2.47510585E+01
  0.00000000E+00  1.23755293E+01  1.23755293E+01 -2.47510585E+01  0.00000000E+00
  1.23755293E+01  1.23755293E+01 -2.47510585E+01  0.00000000E+00  1.23755293E+01
  1.23755293E+01 -2.47510585E+01  0.00000000E+00  1.23755293E+01  1.23755293E+01
 -2.47510585E+01  0.00000000E+00  1.23755293E+01  1.23755293E+01 -2.47510585E+01
  0.00000000E+00  1.23755293E+01  1.23755293E+01 -2.47510585E+01  0.00000000E+00
  1.23755293E+01  1.23755293E+01 -2.47510585E+01  0.00000000E+00  1.23755293E+01
  1.23755293E+01 -2.47510585E+01  0.00000000E+00  1.23755293E+01  1.23755293E+01
 -2.47510585E+01  0.00000000E+00  1.23755293E+01  1.23755293E+01 -2.47510585E+01
  0.00000000E+00  1.23755293E+01  1.23755293E+01 -2.47510585E+01  0.00000000E+00
  1.23755293E+01  1.23755293E+01 -2.47510585E+01  0.00000000E+00  1.23755293E+01
  1.23755293E+01 -2.47510585E+01  0.00000000E+00  1.23755293E+01  1.23755293E+01
 -2.47510585E+01  0.00000000E+00  1.23755293E+01  1.23755293E+01 -2.47510585E+01
  0.00000000E+00  1.23755293E+01  1.23755293E+01 -2.47510585E+01  0.00000000E+00
  1.23755293E+01  1.23755293E+01 -2.47510585E+01  0.00000000E+00  1.23755293E+01
  1.23755293E+01 -2.47510585E+01  0.00000000E+00  1.23755293E+01  1.23755293E+01
 -2.47510585E+01  0.00000000E+00  1.23755293E+01  1.23755293E+01 -2.47510585E+01
  0.00000000E+00  1.23755293E+01  1.23755293E+01 -2.47510585E+01  0.00000000E+00
  1.23755293E+01  1.23755293E+01 -2.47510585E+01  0.00000000E+00  1.23755293E+01
  1.23755293E+01 -2.47510585E+01  0.00000000E+00  1.23755293E+01  1.23755293E+01
 -2.47510585E+01  0.00000000E+00  1.23755293E+01  1.23755293E+01 -2.47510585E+01
  0.00000000E+00  1.23755293E+01  1.23755293E+01 -2.47510585E+01  0.00000000E+00
  1.23755293E+01  1.23755293E+01 -2.47510585E+01  0.00000000E+00  1.23755293E+01
  1.23755293E+01 -2.47510585E+01  0.00000000E+00  1.23755293E+01  1.23755293E+01
 -2.47510585E+01  0.00000000E+00  1.23755293E+01  1.23755293E+01 -2.47510585E+01
  0.00000000E+00  1.23755293E+01  1.23755293E+01 -2.47510585E+01  0.00000000E+00
  1.23755293E+01  1.23755293E+01 -2.47510585E+01  0.00000000E+00  1.23755293E+01
  1.23755293E+01 -2.47510585E+01  0.00000000E+00  1.23755293E+01  1.23755293E+01
 -2.47510585E+01  0.00000000E+00  1.23755293E+01  1.23755293E+01 -2.47510585E+01
  0.00000000E+00  1.23755293E+01  1.23755293E+01 -2.47510585E+01  0.00000000E+00
  1.23755293E+01  1.23755293E+01 -2.47510585E+01  0.00000000E+00  1.23755293E+01
  1.23755293E+01 -2.47510585E+01  0.00000000E+00  1.23755293E+01  1.23755293E+01
 -2.47510585E+01  0.00000000E+00  1.23755293E+01  1.23755293E+01 -2.47510585E+01
  0.00000000E+00  1.23755293E+01  1.23755293E+01 -2.47510585E+01  0.00000000E+00
  1.23755293E+01  1.23755293E+01 -2.47510585E+01  0.00000000E+00  1.23755293E+01
  1.23755293E+01 -2.47510585E+01  0.00000000E+00  1.23755293E+01  1.23755293E+01
 -2.47510585E+01  0.00000000E+00  1.23755293E+01  1.23755293E+01 -2.47510585E+01
  0.00000000E+00  1.23755293E+01  1.23755293E+01 -2.47510585E+01  0.00000000E+00
  1.23755293E+01  1.23755293E+01 -2.47510585E+01  0.00000000E+00  1.23755293E+01
  1.23755293E+01 -2.47510585E+01  0.00000000E+00  1.23755293E+01  1.23755293E+01
 -2.47510585E+01  0.00000000E+00  1.23755293E+01  1.23755293E+01 -2.47510585E+01
  0.00000000E+00  1.23755293E+01  1.23755293E+01 -2.47510585E+01  0.00000000E+00
  1.23755293E+01  1.23755293E+01 -2.47510585E+01  0.00000000E+00  1.23755293E+01
  1.23755293E+01 -2.47510585E+01  0.00000000E+00  1.23755293E+01  1.23755293E+01
 -2.47510585E+01  0.00000000E+00  1.23755293E+01  1.23755293E+01 -2.47510585E+01
  0.00000000E+00  1.23755293E+01  1.23755293E+01 -2.47510585E+01  0.00000000E+00
  1.23755293E+01  1.23755293E+01 -2.47510585E+01  0.00000000E+00  1.23755293E+01
  1.23755293E+01 -2.47510585E+01  0.00000000E+00  1.23755293E+01  1.23755293E+01
 -2.47510585E+01  0.00000000E+00  1.23755293E+01  1.23755293E+01 -2.47510585E+01
  0.00000000E+00  1.23755293E+01  1.23755293E+01 -2.47510585E+01  0.00000000E+00
  1.23755293E+01  1.23755293E+01 -2.47510585E+01  0.00000000E+00  1.23755293E+01
  1.23755293E+01 -2.47510585E+01  0.00000000E+00  1.23755293E+01  1.23755293E+01
 -2.47510585E+01  0.00000000E+00  1.23755293E+01  1.23755293E+01 -2.47510585E+01
  0.00000000E+00  1.23755293E+01  1.23755293E+01 -2.47510585E+01  0.00000000E+00
  1.23755293E+01  1.23755293E+01 -2.47510585E+01  0.00000000E+00  1.23755293E+01
  1.23755293E+01 -2.47510585E+01  0.00000000E+00  1.23755293E+01  1.23755293E+01
 -2.47510585E+01  0.00000000E+00  1.23755293E+01  1.23755293E+01 -2.47510585E+01
  0.00000000E+00  1.23755293E+01  1.23755293E+01 -2.47510585E+01  0.00000000E+00
  1.23755293E+01  1.23755293E+01 -2.47510585E+01  0.00000000E+00  1.23755293E+01
  1.23755293E+01 -2.47510585E+01  0.00000000E+00  1.23755293E+01  1.23755293E+01
 -2.47510585E+01  0.00000000E+00  1.23755293E+01  1.23755293E+01 -2.47510585E+01
  0.00000000E+00  1.23755293E+01  1.23755293E+01 -2.47510585E+01  0.00000000E+00
  1.23755293E+01  1.23755293E+01 -2.47510585E+01  0.00000000E+00  1.23755293E+01
  1.23755293E+01 -2.47510585E+01  0.00000000E+00  1.23755293E+01  1.23755293E+01
 -2.47510585E+01  0.00000000E+00  1.23755293E+01  1.23755293E+01 -2.47510585E+01
  0.00000000E+00  1.23755293E+01  1.23755293E+01 -2.47510585E+01  0.00000000E+00
  1.23755293E+01  1.23755293E+01 -2.47510585E+01  0.00000000E+00  1.23755293E+01
  1.23755293E+01 -2.47510585E+01  0.00000000E+00  1.23755293E+01  1.23755293E+01
 -2.47510585E+01  0.00000000E+00  1.23755293E+01  1.23755293E+01 -2.47510585E+01
  0.00000000E+00  1.23755293E+01  1.23755293E+01 -2.47510585E+01  0.00000000E+00
  1.23755293E+01  1.23755293E+01 -2.47510585E+01  0.00000000E+00  1.23755293E+01
  1.23755293E+01 -2.47510585E+01  0.00000000E+00  1.23755293E+01  1.23755293E+01
 -2.47510585E+01  0.00000000E+00  1.23755293E+01  1.23755293E+01 -2.47510585E+01
  0.00000000E+00  1.23755293E+01  1.23755293E+01 -2.47510585E+01  0.00000000E+00
  1.23755293E+01  1.23755293E+01 -2.47510585E+01  0.00000000E+00  1.23755293E+01
  1.23755293E+01 -2.47510585E+01  0.00000000E+00  1.23755293E+01  1.23755293E+01
 -2.47510585E+01  0.00000000E+00  1.23755293E+01  1.23755293E+01 -2.47510585E+01
  0.00000000E+00  1.23755293E+01  1.23755293E+01 -2.47510585E+01  0.00000000E+00
  1.23755293E+01  1.23755293E+01 -2.47510585E+01  0.00000000E+00  1.23755293E+01
  1.23755293E+01 -2.47510585E+01  0.00000000E+00  1.23755293E+01  1.23755293E+01
 -2.47510585E+01  0.00000000E+00  1.23755293E+01  1.23755293E+01 -2.47510585E+01
  0.00000000E+00  1.23755293E+01  1.23755293E+01 -2.47510585E+01  0.00000000E+00
  1.23755293E+01  1.23755293E+01 -2.47510585E+01  0.00000000E+00  1.23755293E+01
  1.23755293E+01 -2.47510585E+01  0.00000000E+00  1.23755293E+01  1.23755293E+01
 -2.47510585E+01  0.00000000E+00  1.23755293E+01  1.23755293E+01 -2.47510585E+01
  0.00000000E+00  1.23755293E+01  1.23755293E+01 -2.47510585E+01  0.00000000E+00
  1.23755293E+01  1.23755293E+01 -2.47510585E+01  0.00000000E+00  1.23755293E+01
  1.23755293E+01 -2.47510585E+01  0.00000000E+00  1.23755293E+01  1.23755293E+01
 -2.47510585E+01  0.00000000E+00  1.23755293E+01  1.23755293E+01 -2.47510585E+01
  0.00000000E+00  1.23755293E+01  1.23755293E+01 -2.47510585E+01  0.00000000E+00
  1.23755293E+01  1.23755293E+01 -2.47510585E+01  0.00000000E+00  1.23755293E+01
  1.23755293E+01 -2.47510585E+01  0.00000000E+00  1.23755293E+01  1.23755293E+01
 -2.47510585E+01  0.00000000E+00  1.23755293E+01  1.23755293E+01 -2.47510585E+01
  0.00000000E+00  1.23755293E+01  1.23755293E+01 -2.47510585E+01  0.00000000E+00
  1.23755293E+01  1.23755293E+01 -2.47510585E+01  0.00000000E+00  1.23755293E+01
  1.23755293E+01 -2.47510585E+01  0.00000000E+00  1.23755293E+01  1.23755293E+01
 -2.47510585E+01  0.00000000E+00  1.23755293E+01  1.23755293E+01 -2.47510585E+01
  0.00000000E+00  1.23755293E+01  1.23755293E+01 -2.47510585E+01  0.00000000E+00
  1.23755293E+01  1.23755293E+01 -2.47510585E+01  0.00000000E+00  1.23755293E+01
  1.23755293E+01 -2.47510585E+01  0.00000000E+00  1.23755293E+01  1.23755293E+01
 -2.47510585E+01  0.00000000E+00  1.23755293E+01  1.23755293E+01 -2.47510585E+01
  0.00000000E+00  1.23755293E+01  1.23755293E+01 -2.47510585E+01  0.00000000E+00
  1.23755293E+01  1.23755293E+01 -2.47510585E+01  0.00000000E+00  1.23755293E+01
  1.23755293E+01 -2.47510585E+01  0.00000000E+00  1.23755293E+01  1.23755293E+01
 -2.47510585E+01  0.00000000E+00  1.23755293E+01  1.23755293E+01 -2.47510585E+01
  0.00000000E+00  1.23755293E+01  1.23755293E+01 -2.47510585E+01  0.00000000E+00
  1.23755293E+01  1.23755293E+01 -2.47510585E+01  0.00000000E+00  1.23755293E+01
  1.23755293E+01 -2.47510585E+01  0.00000000E+00  1.23755293E+01  1.23755293E+01
 -2.47510585E+01  0.00000000E+00  1.23755293E+01  1.23755293E+01 -2.47510585E+01
  0.00000000E+00  1.23755293E+01  1.23755293E+01 -2.47510585E+01  0.00000000E+00
  1.23755293E+01  1.23755293E+01 -2.47510585E+01  0.00000000E+00  1.23755293E+01
  1.23755293E+01 -2.47510585E+01  0.00000000E+00  1.23755293E+01  1.23755293E+01
 -2.47510585E+01  0.00000000E+00  1.23755293E+01  1.23755293E+01 -2.47510585E+01
  0.00000000E+00  1.23755293E+01  1.23755293E+01 -2.47510585E+01  0.00000000E+00
  1.23755293E+01  1.23755293E+01 -2.47510585E+01  0.00000000E+00  1.23755293E+01
  1.23755293E+01 -2.47510585E+01  0.00000000E+00  1.23755293E+01  1.23755293E+01
 -2.47510585E+01  0.00000000E+00  1.23755293E+01  1.23755293E+01 -2.47510585E+01
  0.00000000E+00  1.23755293E+01  1.23755293E+01 -2.47510585E+01  0.00000000E+00
  1.23755293E+01  1.23755293E+01 -2.47510585E+01  0.00000000E+00  1.23755293E+01
  1.23755293E+01 -2.47510585E+01  0.00000000E+00  1.23755293E+01  1.23755293E+01
 -2.47510585E+01  0.00000000E+00  1.23755293E+01  1.23755293E+01 -2.47510585E+01
  0.00000000E+00  1.23755293E+01  1.23755293E+01 -2.47510585E+01  0.00000000E+00
  1.23755293E+01  1.23755293E+01 -2.47510585E+01  0.00000000E+00  1.23755293E+01
  1.23755293E+01 -2.47510585E+01  0.00000000E+00  1.23755293E+01  1.23755293E+01
 -2.47510585E+01  0.00000000E+00  1.23755293E+01  1.23755293E+01 -2.47510585E+01
  0.00000000E+00  1.23755293E+01  1.23755293E+01 -2.47510585E+01  0.00000000E+00
  1.23755293E+01  1.23755293E+01 -2.47510585E+01  0.00000000E+00  1.23755293E+01
  1.23755293E+01 -2.47510585E+01  0.00000000E+00  1.23755293E+01  1.23755293E+01
 -2.47510585E+01  0.00000000E+00  1.23755293E+01  1.23755293E+01 -2.47510585E+01
  0.00000000E+00  1.23755293E+01  1.23755293E+01 -2.47510585E+01  0.00000000E+00
  1.23755293E+01  1.23755293E+01 -2.47510585E+01  0.00000000E+00  1.23755293E+01
  1.23755293E+01 -2.47510585E+01  0.00000000E+00  1.23755293E+01  1.23755293E+01
 -2.47510585E+01  0.00000000E+00  1.23755293E+01  1.23755293E+01 -2.47510585E+01
  0.00000000E+00  1.23755293E+01  1.23755293E+01 -2.47510585E+01  0.00000000E+00
  1.23755293E+01  1.23755293E+01 -2.47510585E+01  0.00000000E+00  1.23755293E+01
  1.23755293E+01 -2.47510585E+01  0.00000000E+00  1.23755293E+01  1.23755293E+01
 -2.47510585E+01  0.00000000E+00  1.23755293E+01  1.23755293E+01 -2.47510585E+01
  0.00000000E+00  1.23755293E+01  1.23755293E+01 -2.47510585E+01  0.00000000E+00
  1.23755293E+01  1.23755293E+01 -2.47510585E+01  0.00000000E+00  1.23755293E+01
  1.23755293E+01 -2.47510585E+01  0.00000000E+00  1.23755293E+01  1.23755293E+01
 -2.47510585E+01  0.00000000E+00  1.23755293E+01  1.23755293E+01 -2.47510585E+01
  0.00000000E+00  1.23755293E+01  1.23755293E+01 -2.47510585E+01  0.00000000E+00
  1.23755293E+01  1.23755293E+01 -2.47510585E+01  0.00000000E+00  1.23755293E+01
  1.23755293E+01 -2.47510585E+01  0.00000000E+00  1.23755293E+01  1.23755293E+01
 -2.47510585E+01  0.00000000E+00  1.23755293E+01  1.23755293E+01 -2.47510585E+01
  0.00000000E+00  1.23755293E+01  1.23755293E+01 -2.47510585E+01  0.00000000E+00
  1.23755293E+01  1.23755293E+01 -2.47510585E+01  0.00000000E+00  1.23755293E+01
  1.23755293E+01 -2.47510585E+01  0.00000000E+00  1.23755293E+01  1.23755293E+01
 -2.47510585E+01  0.00000000E+00  1.23755293E+01  1.23755293E+01 -2.47510585E+01
  0.00000000E+00  1.23755293E+01  1.23755293E+01 -2.47510585E+01  0.00000000E+00
  1.23755293E+01  1.23755293E+01 -2.47510585E+01  0.00000000E+00  1.23755293E+01
  1.23755293E+01 -2.47510585E+01  0.00000000E+00  1.23755293E+01  1.23755293E+01
 -2.47510585E+01  0.00000000E+00  1.23755293E+01  1.23755293E+01 -2.47510585E+01
  0.00000000E+00  1.23755293E+01  1.23755293E+01 -2.47510585E+01  0.00000000E+00
  1.23755293E+01  1.23755293E+01 -2.47510585E+01  0.00000000E+00  1.23755293E+01
  1.23755293E+01 -2.47510585E+01  0.00000000E+00  1.23755293E+01  1.23755293E+01
 -2.47510585E+01  0.00000000E+00  1.23755293E+01  1.23755293E+01 -2.47510585E+01
  0.00000000E+00  1.23755293E+01  1.23755293E+01 -2.47510585E+01  0.00000000E+00
  1.23755293E+01  1.23755293E+01 -2.47510585E+01  0.00000000E+00  1.23755293E+01
  1.23755293E+01 -2.47510585E+01  0.00000000E+00  1.23755293E+01  1.23755293E+01
 -2.47510585E+01  0.00000000E+00  1.23755293E+01  1.23755293E+01 -2.47510585E+01
  0.00000000E+00  1.23755293E+01  1.23755293E+01 -2.47510585E+01  0.00000000E+00
  1.23755293E+01  1.23755293E+01 -2.47510585E+01  0.00000000E+00  1.23755293E+01
  1.23755293E+01 -2.47510585E+01  0.00000000E+00  1.23755293E+01  1.23755293E+01
 -2.47510585E+01  0.00000000E+00  1.23755293E+01  1.23755293E+01 -2.47510585E+01
  0.00000000E+00  1.23755293E+01  1.23755293E+01 -2.47510585E+01  0.00000000E+00
  1.23755293E+01  1.23755293E+01 -2.47510585E+01  0.00000000E+00  1.23755293E+01
  1.23755293E+01 -2.47510585E+01  0.00000000E+00  1.23755293E+01  1.23755293E+01
 -2.47510585E+01  0.00000000E+00  1.23755293E+01  1.23755293E+01 -2.47510585E+01
  0.00000000E+00  1.23755293E+01  1.23755293E+01 -2.47510585E+01  0.00000000E+00
  1.23755293E+01  1.23755293E+01 -2.47510585E+01  0.00000000E+00  1.23755293E+01
  1.23755293E+01 -2.47510585E+01  0.00000000E+00  1.23755293E+01  1.23755293E+01
 -2.47510585E+01  0.00000000E+00  1.23755293E+01  1.23755293E+01 -2.47510585E+01
  0.00000000E+00  1.23755293E+01  1.23755293E+01 -2.47510585E+01  0.00000000E+00
  1.23755293E+01  1.23755293E+01 -2.47510585E+01  0.00000000E+00  1.23755293E+01
  1.23755293E+01 -2.47510585E+01  0.00000000E+00  1.23755293E+01  1.23755293E+01
 -2.47510585E+01  0.00000000E+00  1.23755293E+01  1.23755293E+01 -2.47510585E+01
  0.00000000E+00  1.23755293E+01  1.23755293E+01 -2.47510585E+01  0.00000000E+00
  1.23755293E+01  1.23755293E+01 -2.47510585E+01  0.00000000E+00  1.23755293E+01
  1.23755293E+01 -2.47510585E+01  0.00000000E+00  1.23755293E+01  1.23755293E+01
 -2.47510585E+01  0.00000000E+00  1.23755293E+01  1.23755293E+01 -2.47510585E+01
  0.00000000E+00  1.23755293E+01  1.23755293E+01 -2.47510585E+01  0.00000000E+00
  1.23755293E+01  1.23755293E+01 -2.47510585E+01  0.00000000E+00  1.23755293E+01
  1.23755293E+01 -2.47510585E+01  0.00000000E+00  1.23755293E+01  1.23755293E+01
 -2.47510585E+01  0.00000000E+00  1.23755293E+01  1.23755293E+01 -2.47510585E+01
  0.00000000E+00  1.23755293E+01  1.23755293E+01 -2.47510585E+01  0.00000000E+00
  1.23755293E+01  1.23755293E+01 -2.47510585E+01  0.00000000E+00  1.23755293E+01
  1.23755293E+01 -2.47510585E+01  0.00000000E+00  1.23755293E+01  1.23755293E+01
 -2.47510585E+01  0.00000000E+00  1.23755293E+01  1.23755293E+01 -2.47510585E+01
  0.00000000E+00  1.23755293E+01  1.23755293E+01 -2.47510585E+01  0.00000000E+00
  1.23755293E+01  1.23755293E+01 -2.47510585E+01  0.00000000E+00  1.23755293E+01
  1.23755293E+01 -2.47510585E+01  0.00000000E+00  1.23755293E+01  1.23755293E+01
 -2.47510585E+01  0.00000000E+00  1.23755293E+01  1.23755293E+01 -2.47510585E+01
  0.00000000E+00  1.23755293E+01  1.23755293E+01 -2.47510585E+01  0.00000000E+00
  1.23755293E+01  1.23755293E+01 -2.47510585E+01  0.00000000E+00  1.23755293E+01
  1.23755293E+01 -2.47510585E+01  0.00000000E+00  1.23755293E+01  1.23755293E+01
 -2.47510585E+01  0.00000000E+00  1.23755293E+01  1.23755293E+01 -2.47510585E+01
  0.00000000E+00  1.23755293E+01  1.23755293E+01 -2.47510585E+01  0.00000000E+00
  1.23755293E+01  1.23755293E+01 -2.47510585E+01  0.00000000E+00  1.23755293E+01
  1.23755293E+01 -2.47510585E+01  0.00000000E+00  1.23755293E+01  1.23755293E+01
 -2.47510585E+01  0.00000000E+00  1.23755293E+01  1.23755293E+01 -2.47510585E+01
  0.00000000E+00  1.23755293E+01  1.23755293E+01 -2.47510585E+01  0.00000000E+00
  1.23755293E+01  1.23755293E+01 -2.47510585E+01  0.00000000E+00  1.23755293E+01
  1.23755293E+01 -2.47510585E+01  0.00000000E+00  1.23755293E+01  1.23755293E+01
 -2.47510585E+01  0.00000000E+00  1.23755293E+01  1.23755293E+01 -2.47510585E+01
  0.00000000E+00  1.23755293E+01  1.23755293E+01 -2.47510585E+01  0.00000000E+00
  1.23755293E+01  1.23755293E+01 -2.47510585E+01  0.00000000E+00  1.23755293E+01
  1.23755293E+01 -2.47510585E+01  0.00000000E+00  1.23755293E+01  1.23755293E+01
 -2.47510585E+01  0.00000000E+00  1.23755293E+01  1.23755293E+01 -2.47510585E+01
  0.00000000E+00  1.23755293E+01  1.23755293E+01 -2.47510585E+01  0.00000000E+00
  1.23755293E+01  1.23755293E+01 -2.47510585E+01  0.00000000E+00  1.23755293E+01
  1.23755293E+01 -2.47510585E+01  0.00000000E+00  1.23755293E+01  1.23755293E+01
 -2.47510585E+01  0.00000000E+00  1.23755293E+01  1.23755293E+01 -2.47510585E+01
  0.00000000E+00  1.23755293E+01  1.23755293E+01 -2.47510585E+01  0.00000000E+00
  1.23755293E+01  1.23755293E+01 -2.47510585E+01  0.00000000E+00  1.23755293E+01
  1.23755293E+01 -2.47510585E+01  0.00000000E+00  1.23755293E+01  1.23755293E+01
 -2.47510585E+01  0.00000000E+00  1.23755293E+01  1.23755293E+01 -2.47510585E+01
  0.00000000E+00  1.23755293E+01  1.23755293E+01 -2.47510585E+01  0.00000000E+00
  1.23755293E+01  1.23755293E+01 -2.47510585E+01  0.00000000E+00  1.23755293E+01
  1.23755293E+01 -2.47510585E+01  0.00000000E+00  1.23755293E+01  1.23755293E+01
 -2.47510585E+01  0.00000000E+00  1.23755293E+01  1.23755293E+01 -2.47510585E+01
  0.00000000E+00  1.23755293E+01  1.23755293E+01 -2.47510585E+01  0.00000000E+00
  1.23755293E+01  1.23755293E+01 -2.47510585E+01  0.00000000E+00  1.23755293E+01
  1.23755293E+01 -2.47510585E+01  0.00000000E+00  1.23755293E+01  1.23755293E+01
 -2.47510585E+01  0.00000000E+00  1.23755293E+01  1.23755293E+01 -2.47510585E+01
  0.00000000E+00  1.23755293E+01  1.23755293E+01 -2.47510585E+01  0.00000000E+00
  1.23755293E+01  1.23755293E+01 -2.47510585E+01  0.00000000E+00  1.23755293E+01
  1.23755293E+01 -2.47510585E+01  0.00000000E+00  1.23755293E+01  1.23755293E+01
 -2.47510585E+01  0.00000000E+00  1.23755293E+01  1.23755293E+01 -2.47510585E+01
  0.00000000E+00  1.23755293E+01  1.23755293E+01 -2.47510585E+01  0.00000000E+00
  1.23755293E+01  1.23755293E+01 -2.47510585E+01  0.00000000E+00  1.23755293E+01
  1.23755293E+01 -2.47510585E+01  0.00000000E+00  1.23755293E+01  1.23755293E+01
 -2.47510585E+01  0.00000000E+00  1.23755293E+01  1.23755293E+01 -2.47510585E+01
  0.00000000E+00  1.23755293E+01  1.23755293E+01 -2.47510585E+01  0.00000000E+00
  1.23755293E+01  1.23755293E+01 -2.47510585E+01  0.00000000E+00  1.23755293E+01
  1.23755293E+01 -2.47510585E+01  0.00000000E+00  1.23755293E+01  1.23755293E+01
 -2.47510585E+01  0.00000000E+00  1.23755293E+01  1.23755293E+01 -2.47510585E+01
  0.00000000E+00  1.23755293E+01  1.23755293E+01 -2.47510585E+01  0.00000000E+00
  1.23755293E+01  1.23755293E+01 -2.47510585E+01  0.00000000E+00  1.23755293E+01
  1.23755293E+01 -2.47510585E+01  0.00000000E+00  1.23755293E+01  1.23755293E+01
 -2.47510585E+01  0.00000000E+00  1.23755293E+01  1.23755293E+01 -2.47510585E+01
  0.00000000E+00  1.23755293E+01  1.23755293E+01 -2.47510585E+01  0.00000000E+00
  1.23755293E+01  1.23755293E+01 -2.47510585E+01  0.00000000E+00  1.23755293E+01
  1.23755293E+01 -2.47510585E+01  0.00000000E+00  1.23755293E+01  1.23755293E+01
 -2.47510585E+01  0.00000000E+00  1.23755293E+01  1.23755293E+01 -2.47510585E+01
  0.00000000E+00  1.23755293E+01  1.23755293E+01 -2.47510585E+01  0.00000000E+00
  1.23755293E+01  1.23755293E+01 -2.47510585E+01  0.00000000E+00  1.23755293E+01
  1.23755293E+01 -2.47510585E+01  0.00000000E+00  1.23755293E+01  1.23755293E+01
 -2.47510585E+01  0.00000000E+00  1.23755293E+01  1.23755293E+01 -2.47510585E+01
  0.00000000E+00  1.23755293E+01  1.23755293E+01 -2.47510585E+01  0.00000000E+00
  1.23755293E+01  1.23755293E+01 -2.47510585E+01  0.00000000E+00  1.23755293E+01
  1.23755293E+01 -2.47510585E+01  0.00000000E+00  1.23755293E+01  1.23755293E+01
 -2.47510585E+01  0.00000000E+00  1.23755293E+01  1.23755293E+01 -2.47510585E+01
  0.00000000E+00  1.23755293E+01  1.23755293E+01 -2.47510585E+01  0.00000000E+00
  1.23755293E+01  1.23755293E+01 -2.47510585E+01  0.00000000E+00  1.23755293E+01
  1.23755293E+01 -2.47510585E+01  0.00000000E+00  1.23755293E+01  1.23755293E+01
 -2.47510585E+01  0.00000000E+00  1.23755293E+01  1.23755293E+01 -2.47510585E+01
  0.00000000E+00  1.23755293E+01  1.23755293E+01 -2.47510585E+01  0.00000000E+00
  1.23755293E+01  1.23755293E+01 -2.47510585E+01  0.00000000E+00  1.23755293E+01
  1.23755293E+01 -2.47510585E+01  0.00000000E+00  1.23755293E+01  1.23755293E+01
 -2.47510585E+01  0.00000000E+00  1.23755293E+01  1.23755293E+01 -2.47510585E+01
  0.00000000E+00  1.23755293E+01  1.23755293E+01 -2.47510585E+01  0.00000000E+00
  1.23755293E+01  1.23755293E+01 -2.47510585E+01  0.00000000E+00  1.23755293E+01
  1.23755293E+01 -2.47510585E+01  0.00000000E+00  1.23755293E+01  1.23755293E+01
 -2.47510585E+01  0.00000000E+00  1.23755293E+01  1.23755293E+01 -2.47510585E+01
  0.00000000E+00  1.23755293E+01  1.23755293E+01 -2.47510585E+01  0.00000000E+00
  1.23755293E+01  1.23755293E+01 -2.47510585E+01  0.00000000E+00  1.23755293E+01
  1.23755293E+01 -2.47510585E+01  0.00000000E+00  1.23755293E+01  1.23755293E+01
 -2.47510585E+01  0.00000000E+00  1.23755293E+01  1.23755293E+01 -2.47510585E+01
  0.00000000E+00  1.23755293E+01  1.23755293E+01 -2.47510585E+01  0.00000000E+00
  1.23755293E+01  1.23755293E+01 -2.47510585E+01  0.00000000E+00  1.23755293E+01
  1.23755293E+01 -2.47510585E+01  0.00000000E+00  1.23755293E+01  1.23755293E+01
 -2.47510585E+01  0.00000000E+00  1.23755293E+01  1.23755293E+01 -2.47510585E+01
  0.00000000E+00  1.23755293E+01  1.23755293E+01 -2.47510585E+01  0.00000000E+00
  1.23755293E+01  1.23755293E+01 -2.47510585E+01  0.00000000E+00  1.23755293E+01
  1.23755293E+01 -2.47510585E+01  0.00000000E+00  1.23755293E+01  1.23755293E+01
 -2.47510585E+01  0.00000000E+00  1.23755293E+01  1.23755293E+01 -2.47510585E+01
  0.00000000E+00  1.23755293E+01  1.23755293E+01 -2.47510585E+01  0.00000000E+00
  1.23755293E+01  1.23755293E+01 -2.47510585E+01  0.00000000E+00  1.23755293E+01
  1.23755293E+01 -2.47510585E+01  0.00000000E+00  1.23755293E+01  1.23755293E+01
 -2.47510585E+01  0.00000000E+00  1.23755293E+01  1.23755293E+01 -2.47510585E+01
  0.00000000E+00  1.23755293E+01  1.23755293E+01 -2.47510585E+01  0.00000000E+00
  1.23755293E+01  1.23755293E+01 -2.47510585E+01  0.00000000E+00  1.23755293E+01
  1.23755293E+01 -2.47510585E+01  0.00000000E+00  1.23755293E+01  1.23755293E+01
 -2.47510585E+01  0.00000000E+00  1.23755293E+01  1.23755293E+01 -2.47510585E+01
  0.00000000E+00  1.23755293E+01  1.23755293E+01 -2.47510585E+01  0.00000000E+00
  1.23755293E+01  1.23755293E+01 -2.47510585E+01  0.00000000E+00  1.23755293E+01
  1.23755293E+01 -2.47510585E+01  0.00000000E+00  1.23755293E+01  1.23755293E+01
 -2.47510585E+01  0.00000000E+00  1.23755293E+01  1.23755293E+01 -2.47510585E+01
  0.00000000E+00  1.23755293E+01  1.23755293E+01 -2.47510585E+01  0.00000000E+00
  1.23755293E+01  1.23755293E+01 -2.47510585E+01  0.00000000E+00  1.23755293E+01
  1.23755293E+01 -2.47510585E+01  0.00000000E+00  1.23755293E+01  1.23755293E+01
 -2.47510585E+01  0.00000000E+00  1.23755293E+01  1.23755293E+01 -2.47510585E+01
  0.00000000E+00  1.23755293E+01  1.23755293E+01 -2.47510585E+01  0.00000000E+00
  1.23755293E+01  1.23755293E+01 -2.47510585E+01  0.00000000E+00  1.23755293E+01
  1.23755293E+01 -2.47510585E+01  0.00000000E+00  1.23755293E+01  1.23755293E+01
 -2.47510585E+01  0.00000000E+00  1.23755293E+01  1.23755293E+01 -2.47510585E+01
  0.00000000E+00  1.23755293E+01  1.23755293E+01 -2.47510585E+01  0.00000000E+00
  1.23755293E+01  1.23755293E+01 -2.47510585E+01  0.00000000E+00  1.23755293E+01
  1.23755293E+01 -2.47510585E+01  0.00000000E+00  1.23755293E+01  1.23755293E+01
 -2.47510585E+01  0.00000000E+00  1.23755293E+01  1.23755293E+01 -2.47510585E+01
  0.00000000E+00  1.23755293E+01  1.23755293E+01 -2.47510585E+01  0.00000000E+00
  1.23755293E+01  1.23755293E+01 -2.47510585E+01  0.00000000E+00  1.23755293E+01
  1.23755293E+01 -2.47510585E+01  0.00000000E+00  1.23755293E+01  1.23755293E+01
 -2.47510585E+01  0.00000000E+00  1.23755293E+01  1.23755293E+01 -2.47510585E+01
  0.00000000E+00  1.23755293E+01  1.23755293E+01 -2.47510585E+01  0.00000000E+00
  1.23755293E+01  1.23755293E+01 -2.47510585E+01  0.00000000E+00  1.23755293E+01
  1.23755293E+01 -2.47510585E+01  0.00000000E+00  1.23755293E+01  1.23755293E+01
 -2.47510585E+01  0.00000000E+00  1.23755293E+01  1.23755293E+01 -2.47510585E+01
  0.00000000E+00  1.23755293E+01  1.23755293E+01 -2.47510585E+01  0.00000000E+00
  1.23755293E+01  1.23755293E+01 -2.47510585E+01  0.00000000E+00  1.23755293E+01
  1.23755293E+01 -2.47510585E+01  0.00000000E+00  1.23755293E+01  1.23755293E+01
 -2.47510585E+01  0.00000000E+00  1.23755293E+01  1.23755293E+01 -2.47510585E+01
  0.00000000E+00  1.23755293E+01  1.23755293E+01 -2.47510585E+01  0.00000000E+00
  1.23755293E+01  1.23755293E+01 -2.47510585E+01  0.00000000E+00  1.23755293E+01
  1.23755293E+01 -2.47510585E+01  0.00000000E+00  1.23755293E+01  1.23755293E+01
 -2.47510585E+01  0.00000000E+00  1.23755293E+01  1.23755293E+01 -2.47510585E+01
  0.00000000E+00  1.23755293E+01  1.23755293E+01 -2.47510585E+01  0.00000000E+00
  1.23755293E+01  1.23755293E+01 -2.47510585E+01  0.00000000E+00  1.23755293E+01
  1.23755293E+01 -2.47510585E+01  0.00000000E+00  1.23755293E+01  1.23755293E+01
 -2.47510585E+01  0.00000000E+00  1.23755293E+01  1.23755293E+01 -2.47510585E+01
  0.00000000E+00  1.23755293E+01  1.23755293E+01 -2.47510585E+01  0.00000000E+00
  1.23755293E+01  1.23755293E+01 -2.47510585E+01  0.00000000E+00  1.23755293E+01
  1.23755293E+01 -2.47510585E+01  0.00000000E+00  1.23755293E+01  1.23755293E+01
 -2.47510585E+01  0.00000000E+00  1.23755293E+01  1.23755293E+01 -2.47510585E+01
  0.00000000E+00  1.23755293E+01  1.23755293E+01 -2.47510585E+01  0.00000000E+00
  1.23755293E+01  1.23755293E+01 -2.47510585E+01  0.00000000E+00  1.23755293E+01
  1.23755293E+01 -2.47510585E+01  0.00000000E+00  1.23755293E+01  1.23755293E+01
 -2.47510585E+01  0.00000000E+00  1.23755293E+01  1.23755293E+01 -2.47510585E+01
  0.00000000E+00  1.23755293E+01  1.23755293E+01 -2.47510585E+01  0.00000000E+00
  1.23755293E+01  1.23755293E+01 -2.47510585E+01  0.00000000E+00  1.23755293E+01
  1.23755293E+01 -2.47510585E+01  0.00000000E+00  1.23755293E+01  1.23755293E+01
 -2.47510585E+01  0.00000000E+00  1.23755293E+01  1.23755293E+01 -2.47510585E+01
  0.00000000E+00  1.23755293E+01  1.23755293E+01 -2.47510585E+01  0.00000000E+00
  1.23755293E+01  1.23755293E+01 -2.47510585E+01  0.00000000E+00  1.23755293E+01
  1.23755293E+01 -2.47510585E+01  0.00000000E+00  1.23755293E+01  1.23755293E+01
 -2.47510585E+01  0.00000000E+00  1.23755293E+01  1.23755293E+01 -2.47510585E+01
  0.00000000E+00  1.23755293E+01  1.23755293E+01 -2.47510585E+01  0.00000000E+00
  1.23755293E+01  1.23755293E+01 -2.47510585E+01  0.00000000E+00  1.23755293E+01
  1.23755293E+01 -2.47510585E+01  0.00000000E+00  1.23755293E+01  1.23755293E+01
 -2.47510585E+01  0.00000000E+00  1.23755293E+01  1.23755293E+01 -2.47510585E+01
  0.00000000E+00  1.23755293E+01  1.23755293E+01 -2.47510585E+01  0.00000000E+00
  1.23755293E+01  1.23755293E+01 -2.47510585E+01  0.00000000E+00  1.23755293E+01
  1.23755293E+01 -2.47510585E+01  0.00000000E+00  1.23755293E+01  1.23755293E+01
 -2.47510585E+01  0.00000000E+00  1.23755293E+01  1.23755293E+01 -2.47510585E+01
  0.00000000E+00  1.23755293E+01  1.23755293E+01 -2.47510585E+01  0.00000000E+00
  1.23755293E+01  1.23755293E+01 -2.47510585E+01  0.00000000E+00  1.23755293E+01
  1.23755293E+01 -2.47510585E+01  0.00000000E+00  1.23755293E+01  1.23755293E+01
 -2.47510585E+01  0.00000000E+00  1.23755293E+01  1.23755293E+01 -2.47510585E+01
  0.00000000E+00  1.23755293E+01  1.23755293E+01 -2.47510585E+01  0.00000000E+00
  1.23755293E+01  1.23755293E+01 -2.47510585E+01  0.00000000E+00  1.23755293E+01
  1.23755293E+01 -2.47510585E+01  0.00000000E+00  1.23755293E+01  1.23755293E+01
 -2.47510585E+01  0.00000000E+00  1.23755293E+01  1.23755293E+01 -2.47510585E+01
  0.00000000E+00  1.23755293E+01  1.23755293E+01 -2.47510585E+01  0.00000000E+00
  1.23755293E+01  1.23755293E+01 -2.47510585E+01  0.00000000E+00  1.23755293E+01
  1.23755293E+01 -2.47510585E+01  0.00000000E+00  1.23755293E+01  1.23755293E+01
 -2.47510585E+01  0.00000000E+00  1.23755293E+01  1.23755293E+01 -2.47510585E+01
  0.00000000E+00  1.23755293E+01  1.23755293E+01 -2.47510585E+01  0.00000000E+00
  1.23755293E+01  1.23755293E+01 -2.47510585E+01  0.00000000E+00  1.23755293E+01
  1.23755293E+01 -2.47510585E+01  0.00000000E+00  1.23755293E+01  1.23755293E+01
 -2.47510585E+01  0.00000000E+00  1.23755293E+01  1.23755293E+01 -2.47510585E+01
  0.00000000E+00  1.23755293E+01  1.23755293E+01 -2.47510585E+01  0.00000000E+00
  1.23755293E+01  1.23755293E+01 -2.47510585E+01  0.00000000E+00  1.23755293E+01
  1.23755293E+01 -2.47510585E+01  0.00000000E+00  1.23755293E+01  1.23755293E+01
 -2.47510585E+01  0.00000000E+00  1.23755293E+01  1.23755293E+01 -2.47510585E+01
  0.00000000E+00  1.23755293E+01  1.23755293E+01 -2.47510585E+01  0.00000000E+00
  1.23755293E+01  1.23755293E+01 -2.47510585E+01  0.00000000E+00  1.23755293E+01
  1.23755293E+01 -2.47510585E+01  0.00000000E+00  1.23755293E+01  1.23755293E+01
 -2.47510585E+01  0.00000000E+00  1.23755293E+01  1.23755293E+01 -2.47510585E+01
  0.00000000E+00  1.23755293E+01  1.23755293E+01 -2.47510585E+01  0.00000000E+00
  1.23755293E+01  1.23755293E+01 -2.47510585E+01  0.00000000E+00  1.23755293E+01
  1.23755293E+01 -2.47510585E+01  0.00000000E+00  1.23755293E+01  1.23755293E+01
 -2.47510585E+01  0.00000000E+00  1.23755293E+01  1.23755293E+01 -2.47510585E+01
  0.00000000E+00  1.23755293E+01  1.23755293E+01 -2.47510585E+01  0.00000000E+00
  1.23755293E+01  1.23755293E+01 -2.47510585E+01  0.00000000E+00  1.23755293E+01
  1.23755293E+01 -2.47510585E+01  0.00000000E+00  1.23755293E+01  1.23755293E+01
 -2.47510585E+01  0.00000000E+00  1.23755293E+01  1.23755293E+01 -2.47510585E+01
  0.00000000E+00  1.23755293E+01  1.23755293E+01 -2.47510585E+01  0.00000000E+00
  1.23755293E+01  1.23755293E+01 -2.47510585E+01  0.00000000E+00  1.23755293E+01
  1.23755293E+01 -2.47510585E+01  0.00000000E+00  1.23755293E+01  1.23755293E+01
 -2.47510585E+01  0.00000000E+00  1.23755293E+01  1.23755293E+01 -2.47510585E+01
  0.00000000E+00  1.23755293E+01  1.23755293E+01 -2.47510585E+01  0.00000000E+00
  1.23755293E+01  1.23755293E+01 -2.47510585E+01  0.00000000E+00  1.23755293E+01
  1.23755293E+01 -2.47510585E+01  0.00000000E+00  1.23755293E+01  1.23755293E+01
 -2.47510585E+01  0.00000000E+00  1.23755293E+01  1.23755293E+01 -2.47510585E+01
  0.00000000E+00  1.23755293E+01  1.23755293E+01 -2.47510585E+01  0.00000000E+00
  1.23755293E+01  1.23755293E+01 -2.47510585E+01  0.00000000E+00  1.23755293E+01
  1.23755293E+01 -2.47510585E+01  0.00000000E+00  1.23755293E+01  1.23755293E+01
 -2.47510585E+01  0.00000000E+00  1.23755293E+01  1.23755293E+01 -2.47510585E+01
  0.00000000E+00  1.23755293E+01  1.23755293E+01 -2.47510585E+01  0.00000000E+00
  1.23755293E+01  1.23755293E+01 -2.47510585E+01  0.00000000E+00  1.23755293E+01
  1.23755293E+01 -2.47510585E+01  0.00000000E+00  1.23755293E+01  1.23755293E+01
 -2.47510585E+01  0.00000000E+00  1.23755293E+01  1.23755293E+01 -2.47510585E+01
  0.00000000E+00  1.23755293E+01  1.23755293E+01 -2.47510585E+01  0.00000000E+00
  1.23755293E+01  1.23755293E+01 -2.47510585E+01  0.00000000E+00  1.23755293E+01
  1.23755293E+01 -2.47510585E+01  0.00000000E+00  1.23755293E+01  1.23755293E+01
 -2.47510585E+01  0.00000000E+00  1.23755293E+01  1.23755293E+01 -2.47510585E+01
  0.00000000E+00  1.23755293E+01  1.23755293E+01 -2.47510585E+01  0.00000000E+00
  1.23755293E+01  1.23755293E+01 -2.47510585E+01  0.00000000E+00  1.23755293E+01
  1.23755293E+01 -2.47510585E+01  0.00000000E+00  1.23755293E+01  1.23755293E+01
 -2.47510585E+01  0.00000000E+00  1.23755293E+01  1.23755293E+01 -2.47510585E+01
  0.00000000E+00  1.23755293E+01  1.23755293E+01 -2.47510585E+01  0.00000000E+00
  1.23755293E+01  1.23755293E+01 -2.47510585E+01  0.00000000E+00  1.23755293E+01
  1.23755293E+01 -2.47510585E+01  0.00000000E+00  1.23755293E+01  1.23755293E+01
 -2.47510585E+01  0.00000000E+00  1.23755293E+01  1.23755293E+01 -2.47510585E+01
  0.00000000E+00  1.23755293E+01  1.23755293E+01 -2.47510585E+01  0.00000000E+00
  1.23755293E+01  1.23755293E+01 -2.47510585E+01  0.00000000E+00  1.23755293E+01
  1.23755293E+01 -2.47510585E+01  0.00000000E+00  1.23755293E+01  1.23755293E+01
 -2.47510585E+01  0.00000000E+00  1.23755293E+01  1.23755293E+01 -2.47510585E+01
  0.00000000E+00  1.23755293E+01  1.23755293E+01 -2.47510585E+01  0.00000000E+00
  1.23755293E+01  1.23755293E+01 -2.47510585E+01  0.00000000E+00  1.23755293E+01
  1.23755293E+01 -2.47510585E+01  0.00000000E+00  1.23755293E+01  1.23755293E+01
 -2.47510585E+01  0.00000000E+00  1.23755293E+01  1.23755293E+01 -2.47510585E+01
  0.00000000E+00  1.23755293E+01  1.23755293E+01 -2.47510585E+01  0.00000000E+00
  1.23755293E+01  1.23755293E+01 -2.47510585E+01  0.00000000E+00  1.23755293E+01
  1.23755293E+01 -2.47510585E+01  0.00000000E+00  1.23755293E+01  1.23755293E+01
 -2.47510585E+01  0.00000000E+00  1.23755293E+01  1.23755293E+01 -2.47510585E+01
  0.00000000E+00  1.23755293E+01  1.23755293E+01 -2.47510585E+01  0.00000000E+00
  1.23755293E+01  1.23755293E+01 -2.47510585E+01  0.00000000E+00  1.23755293E+01
  1.23755293E+01 -2.47510585E+01  0.00000000E+00  1.23755293E+01  1.23755293E+01
 -2.47510585E+01  0.00000000E+00  1.23755293E+01  1.23755293E+01 -2.47510585E+01
  0.00000000E+00  1.23755293E+01  1.23755293E+01 -2.47510585E+01  0.00000000E+00
  1.23755293E+01  1.23755293E+01 -2.47510585E+01  0.00000000E+00  1.23755293E+01
  1.23755293E+01 -2.47510585E+01  0.00000000E+00  1.23755293E+01  1.23755293E+01
 -2.47510585E+01  0.00000000E+00  1.23755293E+01  1.23755293E+01 -2.47510585E+01
  0.00000000E+00  1.23755293E+01  1.23755293E+01 -2.47510585E+01  0.00000000E+00
  1.23755293E+01  1.23755293E+01 -2.47510585E+01  0.00000000E+00  1.23755293E+01
  1.23755293E+01 -2.47510585E+01  0.00000000E+00  1.23755293E+01  1.23755293E+01
 -2.47510585E+01  0.00000000E+00  1.23755293E+01  1.23755293E+01 -2.47510585E+01
  0.00000000E+00  1.23755293E+01  1.23755293E+01 -2.47510585E+01  0.00000000E+00
  1.23755293E+01  1.23755293E+01 -2.47510585E+01  0.00000000E+00  1.23755293E+01
  1.23755293E+01 -2.47510585E+01  0.00000000E+00  1.23755293E+01  1.23755293E+01
 -2.47510585E+01  0.00000000E+00  1.23755293E+01  1.23755293E+01 -2.47510585E+01
  0.00000000E+00  1.23755293E+01  1.23755293E+01 -2.47510585E+01  0.00000000E+00
  1.23755293E+01  1.23755293E+01 -2.47510585E+01  0.00000000E+00  1.23755293E+01
  1.23755293E+01 -2.47510585E+01  0.00000000E+00  1.23755293E+01  1.23755293E+01
 -2.47510585E+01  0.00000000E+00  1.23755293E+01  1.23755293E+01 -2.47510585E+01
  0.00000000E+00  1.23755293E+01  1.23755293E+01 -2.47510585E+01  0.00000000E+00
  1.23755293E+01  1.23755293E+01 -2.47510585E+01  0.00000000E+00  1.23755293E+01
  1.23755293E+01 -2.47510585E+01  0.00000000E+00  1.23755293E+01  1.23755293E+01
 -2.47510585E+01  0.00000000E+00  1.23755293E+01  1.23755293E+01 -2.47510585E+01
  0.00000000E+00  1.23755293E+01  1.23755293E+01 -2.47510585E+01  0.00000000E+00
  1.23755293E+01  1.23755293E+01 -2.47510585E+01  0.00000000E+00  1.23755293E+01
  1.23755293E+01 -2.47510585E+01  0.00000000E+00  1.23755293E+01  1.23755293E+01
 -2.47510585E+01  0.00000000E+00  1.23755293E+01  1.23755293E+01 -2.47510585E+01
  0.00000000E+00  1.23755293E+01  1.23755293E+01 -2.47510585E+01  0.00000000E+00
  1.23755293E+01  1.23755293E+01 -2.47510585E+01  0.00000000E+00  1.23755293E+01
  1.23755293E+01 -2.47510585E+01  0.00000000E+00  1.23755293E+01  1.23755293E+01
 -2.47510585E+01  0.00000000E+00  1.23755293E+01  1.23755293E+01 -2.47510585E+01
  0.00000000E+00  1.23755293E+01  1.23755293E+01 -2.47510585E+01  0.00000000E+00
  1.23755293E+01  1.23755293E+01 -2.47510585E+01  0.00000000E+00  1.23755293E+01
  1.23755293E+01 -2.47510585E+01  0.00000000E+00  1.23755293E+01  1.23755293E+01
 -2.47510585E+01  0.00000000E+00  1.23755293E+01  1.23755293E+01 -2.47510585E+01
  0.00000000E+00  1.23755293E+01  1.23755293E+01 -2.47510585E+01  0.00000000E+00
  1.23755293E+01  1.23755293E+01 -2.47510585E+01  0.00000000E+00  1.23755293E+01
  1.23755293E+01 -2.47510585E+01  0.00000000E+00  1.23755293E+01  1.23755293E+01
 -2.47510585E+01  0.00000000E+00  1.23755293E+01  1.23755293E+01 -2.47510585E+01
  0.00000000E+00  1.23755293E+01  1.23755293E+01 -2.47510585E+01  0.00000000E+00
  1.23755293E+01  1.23755293E+01 -2.47510585E+01  0.00000000E+00  1.23755293E+01
  1.23755293E+01 -2.47510585E+01  0.00000000E+00  1.23755293E+01  1.23755293E+01
 -2.47510585E+01  0.00000000E+00  1.23755293E+01  1.23755293E+01 -2.47510585E+01
  0.00000000E+00  1.23755293E+01  1.23755293E+01 -2.47510585E+01  0.00000000E+00
  1.23755293E+01  1.23755293E+01 -2.47510585E+01  0.00000000E+00  1.23755293E+01
  1.23755293E+01 -2.47510585E+01  0.00000000E+00  1.23755293E+01  1.23755293E+01
 -2.47510585E+01  0.00000000E+00  1.23755293E+01  1.23755293E+01 -2.47510585E+01
  0.00000000E+00  1.23755293E+01  1.23755293E+01 -2.47510585E+01  0.00000000E+00
  1.23755293E+01  1.23755293E+01 -2.47510585E+01  0.00000000E+00  1.23755293E+01
  1.23755293E+01 -2.47510585E+01  0.00000000E+00  1.23755293E+01  1.23755293E+01
 -2.47510585E+01  0.00000000E+00  1.23755293E+01  1.23755293E+01 -2.47510585E+01
  0.00000000E+00  1.23755293E+01  1.23755293E+01 -2.47510585E+01  0.00000000E+00
  1.23755293E+01  1.23755293E+01 -2.47510585E+01  0.00000000E+00  1.23755293E+01
  1.23755293E+01 -2.47510585E+01  0.00000000E+00  1.23755293E+01  1.23755293E+01
 -2.47510585E+01  0.00000000E+00  1.23755293E+01  1.23755293E+01 -2.47510585E+01
  0.00000000E+00  1.23755293E+01  1.23755293E+01 -2.47510585E+01  0.00000000E+00
  1.23755293E+01  1.23755293E+01 -2.47510585E+01  0.00000000E+00  1.23755293E+01
  1.23755293E+01 -2.47510585E+01  0.00000000E+00  1.23755293E+01  1.23755293E+01
 -2.47510585E+01  0.00000000E+00  1.23755293E+01  1.23755293E+01 -2.47510585E+01
  0.00000000E+00  1.23755293E+01  1.23755293E+01 -2.47510585E+01  0.00000000E+00
  1.23755293E+01  1.23755293E+01 -2.47510585E+01  0.00000000E+00  1.23755293E+01
  1.23755293E+01 -2.47510585E+01  0.00000000E+00  1.23755293E+01  1.23755293E+01
 -2.47510585E+01  0.00000000E+00  1.23755293E+01  1.23755293E+01 -2.47510585E+01
  0.00000000E+00  1.23755293E+01  1.23755293E+01 -2.47510585E+01  0.00000000E+00
  1.23755293E+01  1.23755293E+01 -2.47510585E+01  0.00000000E+00  1.23755293E+01
  1.23755293E+01 -2.47510585E+01  0.00000000E+00  1.23755293E+01  1.23755293E+01
 -2.47510585E+01  0.00000000E+00  1.23755293E+01  1.23755293E+01 -2.47510585E+01
  0.00000000E+00  1.23755293E+01  1.23755293E+01 -2.47510585E+01  0.00000000E+00
  1.23755293E+01  1.23755293E+01 -2.47510585E+01  0.00000000E+00  1.23755293E+01
  1.23755293E+01 -2.47510585E+01  0.00000000E+00  1.23755293E+01  1.23755293E+01
 -2.47510585E+01  0.00000000E+00  1.23755293E+01  1.23755293E+01 -2.47510585E+01
  0.00000000E+00  1.23755293E+01  1.23755293E+01 -2.47510585E+01  0.00000000E+00
  1.23755293E+01  1.23755293E+01 -2.47510585E+01  0.00000000E+00  1.23755293E+01
  1.23755293E+01 -2.47510585E+01  0.00000000E+00  1.23755293E+01  1.23755293E+01
 -2.47510585E+01  0.00000000E+00  1.23755293E+01  1.23755293E+01 -2.47510585E+01
  0.00000000E+00  1.23755293E+01  1.23755293E+01 -2.47510585E+01  0.00000000E+00
  1.23755293E+01  1.23755293E+01 -2.47510585E+01  0.00000000E+00  1.23755293E+01
  1.23755293E+01 -2.47510585E+01  0.00000000E+00  1.23755293E+01  1.23755293E+01
 -2.47510585E+01  0.00000000E+00  1.23755293E+01  1.23755293E+01 -2.47510585E+01
  0.00000000E+00  1.23755293E+01  1.23755293E+01 -2.47510585E+01  0.00000000E+00
  1.23755293E+01  1.23755293E+01 -2.47510585E+01  0.00000000E+00  1.23755293E+01
  1.23755293E+01 -2.47510585E+01  0.00000000E+00  1.23755293E+01  1.23755293E+01
 -2.47510585E+01  0.00000000E+00  1.23755293E+01  1.23755293E+01 -2.47510585E+01
  0.00000000E+00  1.23755293E+01  1.23755293E+01 -2.47510585E+01  0.00000000E+00
  1.23755293E+01  1.23755293E+01 -2.47510585E+01  0.00000000E+00  1.23755293E+01
  1.23755293E+01 -2.47510585E+01  0.00000000E+00  1.23755293E+01  1.23755293E+01
 -2.47510585E+01  0.00000000E+00  1.23755293E+01  1.23755293E+01 -2.47510585E+01
  0.00000000E+00  1.23755293E+01  1.23755293E+01 -2.47510585E+01  0.00000000E+00
  1.23755293E+01  1.23755293E+01 -2.47510585E+01  0.00000000E+00  1.23755293E+01
  1.23755293E+01 -2.47510585E+01  0.00000000E+00  1.23755293E+01  1.23755293E+01
 -2.47510585E+01  0.00000000E+00  1.23755293E+01  1.23755293E+01 -2.47510585E+01
  0.00000000E+00  1.23755293E+01  1.23755293E+01 -2.47510585E+01  0.00000000E+00
  1.23755293E+01  1.23755293E+01 -2.47510585E+01  0.00000000E+00  1.23755293E+01
  1.23755293E+01 -2.47510585E+01  0.00000000E+00  1.23755293E+01  1.23755293E+01
 -2.47510585E+01  0.00000000E+00  1.23755293E+01  1.23755293E+01 -2.47510585E+01
  0.00000000E+00  1.23755293E+01  1.23755293E+01 -2.47510585E+01  0.00000000E+00
  1.23755293E+01  1.23755293E+01 -2.47510585E+01  0.00000000E+00  1.23755293E+01
  1.23755293E+01 -2.47510585E+01  0.00000000E+00  1.23755293E+01  1.23755293E+01
 -2.47510585E+01  0.00000000E+00  1.23755293E+01  1.23755293E+01 -2.47510585E+01
  0.00000000E+00  1.23755293E+01  1.23755293E+01 -2.47510585E+01  0.00000000E+00
  1.23755293E+01  1.23755293E+01 -2.47510585E+01  0.00000000E+00  1.23755293E+01
  1.23755293E+01 -2.47510585E+01  0.00000000E+00  1.23755293E+01  1.23755293E+01
 -2.47510585E+01  0.00000000E+00  1.23755293E+01  1.23755293E+01 -2.47510585E+01
  0.00000000E+00  1.23755293E+01  1.23755293E+01 -2.47510585E+01  0.00000000E+00
  1.23755293E+01  1.23755293E+01 -2.47510585E+01  0.00000000E+00  1.23755293E+01
  1.23755293E+01 -2.47510585E+01  0.00000000E+00  1.23755293E+01  1.23755293E+01
 -2.47510585E+01  0.00000000E+00  1.23755293E+01  1.23755293E+01 -2.47510585E+01
  0.00000000E+00  1.23755293E+01  1.23755293E+01 -2.47510585E+01  0.00000000E+00
  1.23755293E+01  1.23755293E+01 -2.47510585E+01  0.00000000E+00  1.23755293E+01
  1.23755293E+01 -2.47510585E+01  0.00000000E+00  1.23755293E+01  1.23755293E+01
 -2.47510585E+01  0.00000000E+00  1.23755293E+01  1.23755293E+01 -2.47510585E+01
  0.00000000E+00  1.23755293E+01  1.23755293E+01 -2.47510585E+01  0.00000000E+00
  1.23755293E+01  1.23755293E+01 -2.47510585E+01  0.00000000E+00  1.23755293E+01
  1.23755293E+01 -2.47510585E+01  0.00000000E+00  1.23755293E+01  1.23755293E+01
 -2.47510585E+01  0.00000000E+00  1.23755293E+01  1.23755293E+01 -2.47510585E+01
  0.00000000E+00  1.23755293E+01  1.23755293E+01 -2.47510585E+01  0.00000000E+00
  1.23755293E+01  1.23755293E+01 -2.47510585E+01  0.00000000E+00  1.23755293E+01
  1.23755293E+01 -2.47510585E+01  0.00000000E+00  1.23755293E+01  1.23755293E+01
 -2.47510585E+01  0.00000000E+00  1.23755293E+01  1.23755293E+01 -2.47510585E+01
  0.00000000E+00  1.23755293E+01  1.23755293E+01 -2.47510585E+01  0.00000000E+00
  1.23755293E+01  1.23755293E+01 -2.47510585E+01  0.00000000E+00  1.23755293E+01
  1.23755293E+01 -2.47510585E+01  0.00000000E+00  1.23755293E+01  1.23755293E+01
 -2.47510585E+01  0.00000000E+00  1.23755293E+01  1.23755293E+01 -2.47510585E+01
  0.00000000E+00  1.23755293E+01  1.23755293E+01 -2.47510585E+01  0.00000000E+00
  1.23755293E+01  1.23755293E+01 -2.47510585E+01  0.00000000E+00  1.23755293E+01
  1.23755293E+01 -2.47510585E+01  0.00000000E+00  1.23755293E+01  1.23755293E+01
 -2.47510585E+01  0.00000000E+00  1.23755293E+01  1.23755293E+01 -2.47510585E+01
  0.00000000E+00  1.23755293E+01  1.23755293E+01 -2.47510585E+01  0.00000000E+00
  1.23755293E+01  1.23755293E+01 -2.47510585E+01  0.00000000E+00  1.23755293E+01
  1.23755293E+01 -2.47510585E+01  0.00000000E+00  1.23755293E+01  1.23755293E+01
 -2.47510585E+01  0.00000000E+00  1.23755293E+01  1.23755293E+01 -2.47510585E+01
  0.00000000E+00  1.23755293E+01  1.23755293E+01 -2.47510585E+01  0.00000000E+00
  1.23755293E+01  1.23755293E+01 -2.47510585E+01  0.00000000E+00  1.23755293E+01
  1.23755293E+01 -2.47510585E+01  0.00000000E+00  1.23755293E+01  1.23755293E+01
 -2.47510585E+01  0.00000000E+00  1.23755293E+01  1.23755293E+01 -2.47510585E+01
  0.00000000E+00  1.23755293E+01  1.23755293E+01 -2.47510585E+01  0.00000000E+00
  1.23755293E+01  1.23755293E+01 -2.47510585E+01  0.00000000E+00  1.23755293E+01
  1.23755293E+01 -2.47510585E+01  0.00000000E+00  1.23755293E+01  1.23755293E+01
 -2.47510585E+01  0.00000000E+00  1.23755293E+01  1.23755293E+01 -2.47510585E+01
  0.00000000E+00  1.23755293E+01  1.23755293E+01 -2.47510585E+01  0.00000000E+00
  1.23755293E+01  1.23755293E+01 -2.47510585E+01  0.00000000E+00  1.23755293E+01
  1.23755293E+01 -2.47510585E+01  0.00000000E+00  1.23755293E+01  1.23755293E+01
 -2.47510585E+01  0.00000000E+00  1.23755293E+01  1.23755293E+01 -2.47510585E+01
  0.00000000E+00  1.23755293E+01  1.23755293E+01 -2.47510585E+01  0.00000000E+00
  1.23755293E+01  1.23755293E+01 -2.47510585E+01  0.00000000E+00  1.23755293E+01
  1.23755293E+01 -2.47510585E+01  0.00000000E+00  1.23755293E+01  1.23755293E+01
 -2.47510585E+01  0.00000000E+00  1.23755293E+01  1.23755293E+01 -2.47510585E+01
  0.00000000E+00  1.23755293E+01  1.23755293E+01 -2.47510585E+01  0.00000000E+00
  1.23755293E+01  1.23755293E+01 -2.47510585E+01  0.00000000E+00  1.23755293E+01
  1.23755293E+01 -2.47510585E+01  0.00000000E+00  1.23755293E+01  1.23755293E+01
 -2.47510585E+01  0.00000000E+00  1.23755293E+01  1.23755293E+01 -2.47510585E+01
  0.00000000E+00  1.23755293E+01  1.23755293E+01 -2.47510585E+01  0.00000000E+00
  1.23755293E+01  1.23755293E+01 -2.47510585E+01  0.00000000E+00  1.23755293E+01
  1.23755293E+01 -2.47510585E+01  0.00000000E+00  1.23755293E+01  1.23755293E+01
 -2.47510585E+01  0.00000000E+00  1.23755293E+01  1.23755293E+01 -2.47510585E+01
  0.00000000E+00  1.23755293E+01  1.23755293E+01 -2.47510585E+01  0.00000000E+00
  1.23755293E+01  1.23755293E+01 -2.47510585E+01  0.00000000E+00  1.23755293E+01
  1.23755293E+01 -2.47510585E+01  0.00000000E+00  1.23755293E+01  1.23755293E+01
 -2.47510585E+01  0.00000000E+00  1.23755293E+01  1.23755293E+01 -2.47510585E+01
  0.00000000E+00  1.23755293E+01  1.23755293E+01 -2.47510585E+01  0.00000000E+00
  1.23755293E+01  1.23755293E+01 -2.47510585E+01  0.00000000E+00  1.23755293E+01
  1.23755293E+01 -2.47510585E+01  0.00000000E+00  1.23755293E+01  1.23755293E+01
 -2.47510585E+01  0.00000000E+00  1.23755293E+01  1.23755293E+01 -2.47510585E+01
  0.00000000E+00  1.23755293E+01  1.23755293E+01 -2.47510585E+01  0.00000000E+00
  1.23755293E+01  1.23755293E+01 -2.47510585E+01  0.00000000E+00  1.23755293E+01
  1.23755293E+01 -2.47510585E+01  0.00000000E+00  1.23755293E+01  1.23755293E+01
 -2.47510585E+01  0.00000000E+00  1.23755293E+01  1.23755293E+01 -2.47510585E+01
  0.00000000E+00  1.23755293E+01  1.23755293E+01 -2.47510585E+01  0.00000000E+00
  1.23755293E+01  1.23755293E+01 -2.47510585E+01  0.00000000E+00  1.23755293E+01
  1.23755293E+01 -2.47510585E+01  0.00000000E+00  1.23755293E+01  1.23755293E+01
 -2.47510585E+01  0.00000000E+00  1.23755293E+01  1.23755293E+01 -2.47510585E+01
  0.00000000E+00  1.23755293E+01  1.23755293E+01 -2.47510585E+01  0.00000000E+00
  1.23755293E+01  1.23755293E+01 -2.47510585E+01  0.00000000E+00  1.23755293E+01
  1.23755293E+01 -2.47510585E+01  0.00000000E+00  1.23755293E+01  1.23755293E+01
 -2.47510585E+01  0.00000000E+00  1.23755293E+01  1.23755293E+01 -2.47510585E+01
  0.00000000E+00  1.23755293E+01  1.23755293E+01 -2.47510585E+01  0.00000000E+00
  1.23755293E+01  1.23755293E+01 -2.47510585E+01  0.00000000E+00  1.23755293E+01
  1.23755293E+01 -2.47510585E+01  0.00000000E+00  1.23755293E+01  1.23755293E+01
 -2.47510585E+01  0.00000000E+00  1.23755293E+01  1.23755293E+01 -2.47510585E+01
  0.00000000E+00  1.23755293E+01  1.23755293E+01 -2.47510585E+01  0.00000000E+00
  1.23755293E+01  1.23755293E+01 -2.47510585E+01  0.00000000E+00  1.23755293E+01
  1.23755293E+01 -2.47510585E+01  0.00000000E+00  1.23755293E+01  1.23755293E+01
 -2.47510585E+01  0.00000000E+00  1.23755293E+01  1.23755293E+01 -2.47510585E+01
  0.00000000E+00  1.23755293E+01  1.23755293E+01 -2.47510585E+01  0.00000000E+00
  1.23755293E+01  1.23755293E+01 -2.47510585E+01  0.00000000E+00  1.23755293E+01
  1.23755293E+01 -2.47510585E+01  0.00000000E+00  1.23755293E+01  1.23755293E+01
 -2.47510585E+01  0.00000000E+00  1.23755293E+01  1.23755293E+01 -2.47510585E+01
  0.00000000E+00  1.23755293E+01  1.23755293E+01 -2.47510585E+01  0.00000000E+00
  1.23755293E+01  1.23755293E+01 -2.47510585E+01  0.00000000E+00  1.23755293E+01
  1.23755293E+01 -2.47510585E+01  0.00000000E+00  1.23755293E+01  1.23755293E+01
 -2.47510585E+01  0.00000000E+00  1.23755293E+01  1.23755293E+01 -2.47510585E+01
  0.00000000E+00  1.23755293E+01  1.23755293E+01 -2.47510585E+01  0.00000000E+00
  1.23755293E+01  1.23755293E+01 -2.47510585E+01  0.00000000E+00  1.23755293E+01
  1.23755293E+01 -2.47510585E+01  0.00000000E+00  1.23755293E+01  1.23755293E+01
 -2.47510585E+01  0.00000000E+00  1.23755293E+01  1.23755293E+01 -2.47510585E+01
  0.00000000E+00  1.23755293E+01  1.23755293E+01 -2.47510585E+01  0.00000000E+00
  1.23755293E+01  1.23755293E+01 -2.47510585E+01  0.00000000E+00  1.23755293E+01
  1.23755293E+01 -2.47510585E+01  0.00000000E+00  1.23755293E+01  1.23755293E+01
 -2.47510585E+01  0.00000000E+00  1.23755293E+01  1.23755293E+01 -2.47510585E+01
  0.00000000E+00  1.23755293E+01  1.23755293E+01 -2.47510585E+01  0.00000000E+00
  1.23755293E+01  1.23755293E+01 -2.47510585E+01  0.00000000E+00  1.23755293E+01
  1.23755293E+01 -2.47510585E+01  0.00000000E+00  1.23755293E+01  1.23755293E+01
 -2.47510585E+01  0.00000000E+00  1.23755293E+01  1.23755293E+01 -2.47510585E+01
  0.00000000E+00  1.23755293E+01  1.23755293E+01 -2.47510585E+01  0.00000000E+00
  1.23755293E+01  1.23755293E+01 -2.47510585E+01  0.00000000E+00  1.23755293E+01
  1.23755293E+01 -2.47510585E+01  0.00000000E+00  1.23755293E+01  1.23755293E+01
 -2.47510585E+01  0.00000000E+00  1.23755293E+01  1.23755293E+01 -2.47510585E+01
  0.00000000E+00  1.23755293E+01  1.23755293E+01 -2.47510585E+01  0.00000000E+00
  1.23755293E+01  1.23755293E+01 -2.47510585E+01  0.00000000E+00  1.23755293E+01
  1.23755293E+01 -2.47510585E+01  0.00000000E+00  1.23755293E+01  1.23755293E+01
 -2.47510585E+01  0.00000000E+00  1.23755293E+01  1.23755293E+01 -2.47510585E+01
  0.00000000E+00  1.23755293E+01  1.23755293E+01 -2.47510585E+01  0.00000000E+00
  1.23755293E+01  1.23755293E+01 -2.47510585E+01  0.00000000E+00  1.23755293E+01
  1.23755293E+01 -2.47510585E+01  0.00000000E+00  1.23755293E+01  1.23755293E+01
 -2.47510585E+01  0.00000000E+00  1.23755293E+01  1.23755293E+01 -2.47510585E+01
  0.00000000E+00  1.23755293E+01  1.23755293E+01 -2.47510585E+01  0.00000000E+00
  1.23755293E+01  1.23755293E+01 -2.47510585E+01  0.00000000E+00  1.23755293E+01
  1.23755293E+01 -2.47510585E+01  0.00000000E+00  1.23755293E+01  1.23755293E+01
 -2.47510585E+01  0.00000000E+00  1.23755293E+01  1.23755293E+01 -2.47510585E+01
  0.00000000E+00  1.23755293E+01  1.23755293E+01 -2.47510585E+01  0.00000000E+00
  1.23755293E+01  1.23755293E+01 -2.47510585E+01  0.00000000E+00  1.23755293E+01
  1.23755293E+01 -2.47510585E+01  0.00000000E+00  1.23755293E+01  1.23755293E+01
 -2.47510585E+01  0.00000000E+00  1.23755293E+01  1.23755293E+01 -2.47510585E+01
  0.00000000E+00  1.23755293E+01  1.23755293E+01 -2.47510585E+01  0.00000000E+00
  1.23755293E+01  1.23755293E+01 -2.47510585E+01  0.00000000E+00  1.23755293E+01
  1.23755293E+01 -2.47510585E+01  0.00000000E+00  1.23755293E+01  1.23755293E+01
 -2.47510585E+01  0.00000000E+00  1.23755293E+01  1.23755293E+01 -2.47510585E+01
  0.00000000E+00  1.23755293E+01  1.23755293E+01 -2.47510585E+01  0.00000000E+00
  1.23755293E+01  1.23755293E+01 -2.47510585E+01  0.00000000E+00  1.23755293E+01
  1.23755293E+01 -2.47510585E+01  0.00000000E+00  1.23755293E+01  1.23755293E+01
 -2.47510585E+01  0.00000000E+00  1.23755293E+01  1.23755293E+01 -2.47510585E+01
  0.00000000E+00  1.23755293E+01  1.23755293E+01 -2.47510585E+01  0.00000000E+00
  1.23755293E+01  1.23755293E+01 -2.47510585E+01  0.00000000E+00  1.23755293E+01
  1.23755293E+01 -2.47510585E+01  0.00000000E+00  1.23755293E+01  1.23755293E+01
 -2.47510585E+01  0.00000000E+00  1.23755293E+01  1.23755293E+01 -2.47510585E+01
  0.00000000E+00  1.23755293E+01  1.23755293E+01 -2.47510585E+01  0.00000000E+00
  1.23755293E+01  1.23755293E+01 -2.47510585E+01  0.00000000E+00  1.23755293E+01
  1.23755293E+01 -2.47510585E+01  0.00000000E+00  1.23755293E+01  1.23755293E+01
 -2.47510585E+01  0.00000000E+00  1.23755293E+01  1.23755293E+01 -2.47510585E+01
  0.00000000E+00  1.23755293E+01  1.23755293E+01 -2.47510585E+01  0.00000000E+00
  1.23755293E+01  1.23755293E+01 -2.47510585E+01  0.00000000E+00  1.23755293E+01
  1.23755293E+01 -2.47510585E+01  0.00000000E+00  1.23755293E+01  1.23755293E+01
 -2.47510585E+01  0.00000000E+00  1.23755293E+01  1.23755293E+01 -2.47510585E+01
  0.00000000E+00  1.23755293E+01  1.23755293E+01 -2.47510585E+01  0.00000000E+00
  1.23755293E+01  1.23755293E+01 -2.47510585E+01  0.00000000E+00  1.23755293E+01
  1.23755293E+01 -2.47510585E+01  0.00000000E+00  1.23755293E+01  1.23755293E+01
 -2.47510585E+01  0.00000000E+00  1.23755293E+01  1.23755293E+01 -2.47510585E+01
  0.00000000E+00  1.23755293E+01  1.23755293E+01 -2.47510585E+01  0.00000000E+00
  1.23755293E+01  1.23755293E+01 -2.47510585E+01  0.00000000E+00  1.23755293E+01
  1.23755293E+01 -2.47510585E+01  0.00000000E+00  1.23755293E+01  1.23755293E+01
 -2.47510585E+01  0.00000000E+00  1.23755293E+01  1.23755293E+01 -2.47510585E+01
  0.00000000E+00  1.23755293E+01  1.23755293E+01 -2.47510585E+01  0.00000000E+00
  1.23755293E+01  1.23755293E+01 -2.47510585E+01  0.00000000E+00  1.23755293E+01
  1.23755293E+01 -2.47510585E+01  0.00000000E+00  1.23755293E+01  1.23755293E+01
 -2.47510585E+01  0.00000000E+00  1.23755293E+01  1.23755293E+01 -2.47510585E+01
  0.00000000E+00  1.23755293E+01  1.23755293E+01 -2.47510585E+01  0.00000000E+00
  1.23755293E+01  1.23755293E+01 -2.47510585E+01  0.00000000E+00  1.23755293E+01
  1.23755293E+01 -2.47510585E+01  0.00000000E+00  1.23755293E+01  1.23755293E+01
 -2.47510585E+01  0.00000000E+00  1.23755293E+01  1.23755293E+01 -2.47510585E+01
  0.00000000E+00  1.23755293E+01  1.23755293E+01 -2.47510585E+01  0.00000000E+00
  1.23755293E+01  1.23755293E+01 -2.47510585E+01  0.00000000E+00  1.23755293E+01
  1.23755293E+01 -2.47510585E+01  0.00000000E+00  1.23755293E+01  1.23755293E+01
 -2.47510585E+01  0.00000000E+00  1.23755293E+01  1.23755293E+01 -2.47510585E+01
  0.00000000E+00  1.23755293E+01  1.23755293E+01 -2.47510585E+01  0.00000000E+00
  1.23755293E+01  1.23755293E+01 -2.47510585E+01  0.00000000E+00  1.23755293E+01
  1.23755293E+01 -2.47510585E+01  0.00000000E+00  1.23755293E+01  1.23755293E+01
 -2.47510585E+01  0.00000000E+00  1.23755293E+01  1.23755293E+01 -2.47510585E+01
  0.00000000E+00  1.23755293E+01  1.23755293E+01 -2.47510585E+01  0.00000000E+00
  1.23755293E+01  1.23755293E+01 -2.47510585E+01  0.00000000E+00  1.23755293E+01
  1.23755293E+01 -2.47510585E+01  0.00000000E+00  1.23755293E+01  1.23755293E+01
 -2.47510585E+01  0.00000000E+00  1.23755293E+01  1.23755293E+01 -2.47510585E+01
  0.00000000E+00  1.23755293E+01  1.23755293E+01 -2.47510585E+01  0.00000000E+00
  1.23755293E+01  1.23755293E+01 -2.47510585E+01  0.00000000E+00  1.23755293E+01
  1.23755293E+01 -2.47510585E+01  0.00000000E+00  1.23755293E+01  1.23755293E+01
 -2.47510585E+01  0.00000000E+00  1.23755293E+01  1.23755293E+01 -2.47510585E+01
  0.00000000E+00  1.23755293E+01  1.23755293E+01 -2.47510585E+01  0.00000000E+00
  1.23755293E+01  1.23755293E+01 -2.47510585E+01  0.00000000E+00  1.23755293E+01
  1.23755293E+01 -2.47510585E+01  0.00000000E+00  1.23755293E+01  1.23755293E+01
 -2.47510585E+01  0.00000000E+00  1.23755293E+01  1.23755293E+01 -2.47510585E+01
  0.00000000E+00  1.23755293E+01  1.23755293E+01 -2.47510585E+01  0.00000000E+00
  1.23755293E+01  1.23755293E+01 -2.47510585E+01  0.00000000E+00  1.23755293E+01
  1.23755293E+01 -2.47510585E+01  0.00000000E+00  1.23755293E+01  1.23755293E+01
 -2.47510585E+01  0.00000000E+00  1.23755293E+01  1.23755293E+01 -2.47510585E+01
  0.00000000E+00  1.23755293E+01  1.23755293E+01 -2.47510585E+01  0.00000000E+00
  1.23755293E+01  1.23755293E+01 -2.47510585E+01  0.00000000E+00  1.23755293E+01
  1.23755293E+01 -2.47510585E+01  0.00000000E+00  1.23755293E+01  1.23755293E+01
 -2.47510585E+01  0.00000000E+00  1.23755293E+01  1.23755293E+01 -2.47510585E+01
  0.00000000E+00  1.23755293E+01  1.23755293E+01 -2.47510585E+01  0.00000000E+00
  1.23755293E+01  1.23755293E+01 -2.47510585E+01  0.00000000E+00  1.23755293E+01
  1.23755293E+01 -2.47510585E+01  0.00000000E+00  1.23755293E+01  1.23755293E+01
 -2.47510585E+01  0.00000000E+00  1.23755293E+01  1.23755293E+01 -2.47510585E+01
  0.00000000E+00  1.23755293E+01  1.23755293E+01 -2.47510585E+01  0.00000000E+00
  1.23755293E+01  1.23755293E+01 -2.47510585E+01  0.00000000E+00  1.23755293E+01
  1.23755293E+01 -2.47510585E+01  0.00000000E+00  1.23755293E+01  1.23755293E+01
 -2.47510585E+01  0.00000000E+00  1.23755293E+01  1.23755293E+01 -2.47510585E+01
  0.00000000E+00  1.23755293E+01  1.23755293E+01 -2.47510585E+01  0.00000000E+00
  1.23755293E+01  1.23755293E+01 -2.47510585E+01  0.00000000E+00  1.23755293E+01
  1.23755293E+01 -2.47510585E+01  0.00000000E+00  1.23755293E+01  1.23755293E+01
 -2.47510585E+01  0.00000000E+00  1.23755293E+01  1.23755293E+01 -2.47510585E+01
  0.00000000E+00  1.23755293E+01  1.23755293E+01 -2.47510585E+01  0.00000000E+00
  1.23755293E+01  1.23755293E+01 -2.47510585E+01  0.00000000E+00  1.23755293E+01
  1.23755293E+01 -2.47510585E+01  0.00000000E+00  1.23755293E+01  1.23755293E+01
 -2.47510585E+01  0.00000000E+00  1.23755293E+01  1.23755293E+01 -2.47510585E+01
  0.00000000E+00  1.23755293E+01  1.23755293E+01 -2.47510585E+01  0.00000000E+00
  1.23755293E+01  1.23755293E+01 -2.47510585E+01  0.00000000E+00  1.23755293E+01
  1.23755293E+01 -2.47510585E+01  0.00000000E+00  1.23755293E+01  1.23755293E+01
 -2.47510585E+01  0.00000000E+00  1.23755293E+01  1.23755293E+01 -2.47510585E+01
  0.00000000E+00  1.23755293E+01  1.23755293E+01 -2.47510585E+01  0.00000000E+00
  1.23755293E+01  1.23755293E+01 -2.47510585E+01  0.00000000E+00  1.23755293E+01
  1.23755293E+01 -2.47510585E+01  0.00000000E+00  1.23755293E+01  1.23755293E+01
 -2.47510585E+01  0.00000000E+00  1.23755293E+01  1.23755293E+01 -2.47510585E+01
  0.00000000E+00  1.23755293E+01  1.23755293E+01 -2.47510585E+01  0.00000000E+00
  1.23755293E+01  1.23755293E+01 -2.47510585E+01  0.00000000E+00  1.23755293E+01
  1.23755293E+01 -2.47510585E+01  0.00000000E+00  1.23755293E+01  1.23755293E+01
 -2.47510585E+01  0.00000000E+00  1.23755293E+01  1.23755293E+01 -2.47510585E+01
  0.00000000E+00  1.23755293E+01  1.23755293E+01 -2.47510585E+01  0.00000000E+00
  1.23755293E+01  1.23755293E+01 -2.47510585E+01  0.00000000E+00  1.23755293E+01
  1.23755293E+01 -2.47510585E+01  0.00000000E+00  1.23755293E+01  1.23755293E+01
 -2.47510585E+01  0.00000000E+00  1.23755293E+01  1.23755293E+01 -2.47510585E+01
  0.00000000E+00  1.23755293E+01  1.23755293E+01 -2.47510585E+01  0.00000000E+00
  1.23755293E+01  1.23755293E+01 -2.47510585E+01  0.00000000E+00  1.23755293E+01
  1.23755293E+01 -2.47510585E+01  0.00000000E+00  1.23755293E+01  1.23755293E+01
 -2.47510585E+01  0.00000000E+00  1.23755293E+01  1.23755293E+01 -2.47510585E+01
  0.00000000E+00  1.23755293E+01  1.23755293E+01 -2.47510585E+01  0.00000000E+00
  1.23755293E+01  1.23755293E+01 -2.47510585E+01  0.00000000E+00  1.23755293E+01
  1.23755293E+01 -2.47510585E+01  0.00000000E+00  1.23755293E+01  1.23755293E+01
 -2.47510585E+01  0.00000000E+00  1.23755293E+01  1.23755293E+01 -2.47510585E+01
  0.00000000E+00  1.23755293E+01  1.23755293E+01 -2.47510585E+01  0.00000000E+00
  1.23755293E+01  1.23755293E+01 -2.47510585E+01  0.00000000E+00  1.23755293E+01
  1.23755293E+01 -2.47510585E+01  0.00000000E+00  1.23755293E+01  1.23755293E+01
 -2.47510585E+01  0.00000000E+00  1.23755293E+01  1.23755293E+01 -2.47510585E+01
  0.00000000E+00  1.23755293E+01  1.23755293E+01 -2.47510585E+01  0.00000000E+00
  1.23755293E+01  1.23755293E+01 -2.47510585E+01  0.00000000E+00  1.23755293E+01
  1.23755293E+01 -2.47510585E+01  0.00000000E+00  1.23755293E+01  1.23755293E+01
 -2.47510585E+01  0.00000000E+00  1.23755293E+01  1.23755293E+01 -2.47510585E+01
  0.00000000E+00  1.23755293E+01  1.23755293E+01 -2.47510585E+01  0.00000000E+00
  1.23755293E+01  1.23755293E+01 -2.47510585E+01  0.00000000E+00  1.23755293E+01
  1.23755293E+01 -2.47510585E+01  0.00000000E+00  1.23755293E+01  1.23755293E+01
 -2.47510585E+01  0.00000000E+00  1.23755293E+01  1.23755293E+01 -2.47510585E+01
  0.00000000E+00  1.23755293E+01  1.23755293E+01 -2.47510585E+01  0.00000000E+00
  1.23755293E+01  1.23755293E+01 -2.47510585E+01  0.00000000E+00  1.23755293E+01
  1.23755293E+01 -2.47510585E+01  0.00000000E+00  1.23755293E+01  1.23755293E+01
 -2.47510585E+01  0.00000000E+00  1.23755293E+01  1.23755293E+01 -2.47510585E+01
  0.00000000E+00  1.23755293E+01  1.23755293E+01 -2.47510585E+01  0.00000000E+00
  1.23755293E+01  1.23755293E+01 -2.47510585E+01  0.00000000E+00  1.23755293E+01
  1.23755293E+01 -2.47510585E+01  0.00000000E+00  1.23755293E+01  1.23755293E+01
 -2.47510585E+01  0.00000000E+00  1.23755293E+01  1.23755293E+01 -2.47510585E+01
  0.00000000E+00  1.23755293E+01  1.23755293E+01 -2.47510585E+01  0.00000000E+00
  1.23755293E+01  1.23755293E+01 -2.47510585E+01  0.00000000E+00  1.23755293E+01
  1.23755293E+01 -2.47510585E+01  0.00000000E+00  1.23755293E+01  1.23755293E+01
 -2.47510585E+01  0.00000000E+00  1.23755293E+01  1.23755293E+01 -2.47510585E+01
  0.00000000E+00  1.23755293E+01  1.23755293E+01 -2.47510585E+01  0.00000000E+00
  1.23755293E+01  1.23755293E+01 -2.47510585E+01  0.00000000E+00  1.23755293E+01
  1.23755293E+01 -2.47510585E+01  0.00000000E+00  1.23755293E+01  1.23755293E+01
 -2.47510585E+01  0.00000000E+00  1.23755293E+01  1.23755293E+01 -2.47510585E+01
  0.00000000E+00  1.23755293E+01  1.23755293E+01 -2.47510585E+01  0.00000000E+00
  1.23755293E+01  1.23755293E+01 -2.47510585E+01  0.00000000E+00  1.23755293E+01
  1.23755293E+01 -2.47510585E+01  0.00000000E+00  1.23755293E+01  1.23755293E+01
 -2.47510585E+01  0.00000000E+00  1.23755293E+01  1.23755293E+01 -2.47510585E+01
  0.00000000E+00  1.23755293E+01  1.23755293E+01 -2.47510585E+01  0.00000000E+00
  1.23755293E+01  1.23755293E+01 -2.47510585E+01  0.00000000E+00  1.23755293E+01
  1.23755293E+01 -2.47510585E+01  0.00000000E+00  1.23755293E+01  1.23755293E+01
 -2.47510585E+01  0.00000000E+00  1.23755293E+01  1.23755293E+01 -2.47510585E+01
  0.00000000E+00  1.23755293E+01  1.23755293E+01 -2.47510585E+01  0.00000000E+00
  1.23755293E+01  1.23755293E+01 -2.47510585E+01  0.00000000E+00  1.23755293E+01
  1.23755293E+01 -2.47510585E+01  0.00000000E+00  1.23755293E+01  1.23755293E+01
 -2.47510585E+01  0.00000000E+00  1.23755293E+01  1.23755293E+01 -2.47510585E+01
  0.00000000E+00  1.23755293E+01  1.23755293E+01 -2.47510585E+01  0.00000000E+00
  1.23755293E+01  1.23755293E+01 -2.47510585E+01  0.00000000E+00  1.23755293E+01
  1.23755293E+01 -2.47510585E+01  0.00000000E+00  1.23755293E+01  1.23755293E+01
 -2.47510585E+01  0.00000000E+00  1.23755293E+01  1.23755293E+01 -2.47510585E+01
  0.00000000E+00  1.23755293E+01  1.23755293E+01 -2.47510585E+01  0.00000000E+00
  1.23755293E+01  1.23755293E+01 -2.47510585E+01  0.00000000E+00  1.23755293E+01
  1.23755293E+01 -2.47510585E+01  0.00000000E+00  1.23755293E+01  1.23755293E+01
 -2.47510585E+01  0.00000000E+00  1.23755293E+01  1.23755293E+01 -2.47510585E+01
  0.00000000E+00  1.23755293E+01  1.23755293E+01 -2.47510585E+01  0.00000000E+00
  1.23755293E+01  1.23755293E+01 -2.47510585E+01  0.00000000E+00  1.23755293E+01
  1.23755293E+01 -2.47510585E+01  0.00000000E+00  1.23755293E+01  1.23755293E+01
 -2.47510585E+01  0.00000000E+00  1.23755293E+01  1.23755293E+01 -2.47510585E+01
  0.00000000E+00  1.23755293E+01  1.23755293E+01 -2.47510585E+01  0.00000000E+00
  1.23755293E+01  1.23755293E+01 -2.47510585E+01  0.00000000E+00  1.23755293E+01
  1.23755293E+01 -2.47510585E+01  0.00000000E+00  1.23755293E+01  1.23755293E+01
 -2.47510585E+01  0.00000000E+00  1.23755293E+01  1.23755293E+01 -2.47510585E+01
  0.00000000E+00  1.23755293E+01  1.23755293E+01 -2.47510585E+01  0.00000000E+00
  1.23755293E+01  1.23755293E+01 -2.47510585E+01  0.00000000E+00  1.23755293E+01
  1.23755293E+01 -2.47510585E+01  0.00000000E+00  1.23755293E+01  1.23755293E+01
 -2.47510585E+01  0.00000000E+00  1.23755293E+01  1.23755293E+01 -2.47510585E+01
  0.00000000E+00  1.23755293E+01  1.23755293E+01 -2.47510585E+01  0.00000000E+00
  1.23755293E+01  1.23755293E+01 -2.47510585E+01  0.00000000E+00  1.23755293E+01
  1.23755293E+01 -2.47510585E+01  0.00000000E+00  1.23755293E+01  1.23755293E+01
 -2.47510585E+01  0.00000000E+00  1.23755293E+01  1.23755293E+01 -2.47510585E+01
  0.00000000E+00  1.23755293E+01  1.23755293E+01 -2.47510585E+01  0.00000000E+00
  1.23755293E+01  1.23755293E+01 -2.47510585E+01  0.00000000E+00  1.23755293E+01
  1.23755293E+01 -2.47510585E+01  0.00000000E+00  1.23755293E+01  1.23755293E+01
 -2.47510585E+01  0.00000000E+00  1.23755293E+01  1.23755293E+01 -2.47510585E+01
  0.00000000E+00  1.23755293E+01  1.23755293E+01 -2.47510585E+01  0.00000000E+00
  1.23755293E+01  1.23755293E+01 -2.47510585E+01  0.00000000E+00  1.23755293E+01
  1.23755293E+01 -2.47510585E+01  0.00000000E+00  1.23755293E+01  1.23755293E+01
 -2.47510585E+01  0.00000000E+00  1.23755293E+01  1.23755293E+01 -2.47510585E+01
  0.00000000E+00  1.23755293E+01  1.23755293E+01 -2.47510585E+01  0.00000000E+00
  1.23755293E+01  1.23755293E+01 -2.47510585E+01  0.00000000E+00  1.23755293E+01
  1.23755293E+01 -2.47510585E+01  0.00000000E+00  1.23755293E+01  1.23755293E+01
 -2.47510585E+01  0.00000000E+00  1.23755293E+01  1.23755293E+01 -2.47510585E+01
  0.00000000E+00  1.23755293E+01  1.23755293E+01 -2.47510585E+01  0.00000000E+00
  1.23755293E+01  1.23755293E+01 -2.47510585E+01  0.00000000E+00  1.23755293E+01
  1.23755293E+01 -2.47510585E+01  0.00000000E+00  1.23755293E+01  1.23755293E+01
 -2.47510585E+01  0.00000000E+00  1.23755293E+01  1.23755293E+01 -2.47510585E+01
  0.00000000E+00  1.23755293E+01  1.23755293E+01 -2.47510585E+01  0.00000000E+00
  1.23755293E+01  1.23755293E+01 -2.47510585E+01  0.00000000E+00  1.23755293E+01
  1.23755293E+01 -2.47510585E+01  0.00000000E+00  1.23755293E+01  1.23755293E+01
 -2.47510585E+01  0.00000000E+00  1.23755293E+01  1.23755293E+01 -2.47510585E+01
  0.00000000E+00  1.23755293E+01  1.23755293E+01 -2.47510585E+01  0.00000000E+00
  1.23755293E+01  1.23755293E+01 -2.47510585E+01  0.00000000E+00  1.23755293E+01
  1.23755293E+01 -2.47510585E+01  0.00000000E+00  1.23755293E+01  1.23755293E+01
 -2.47510585E+01  0.00000000E+00  1.23755293E+01  1.23755293E+01 -2.47510585E+01
  0.00000000E+00  1.23755293E+01  1.23755293E+01 -2.47510585E+01  0.00000000E+00
  1.23755293E+01  1.23755293E+01 -2.47510585E+01  0.00000000E+00  1.23755293E+01
  1.23755293E+01 -2.47510585E+01  0.00000000E+00  1.23755293E+01  1.23755293E+01
 -2.47510585E+01  0.00000000E+00  1.23755293E+01  1.23755293E+01 -2.47510585E+01
  0.00000000E+00  1.23755293E+01  1.23755293E+01 -2.47510585E+01  0.00000000E+00
  1.23755293E+01  1.23755293E+01 -2.47510585E+01  0.00000000E+00  1.23755293E+01
  1.23755293E+01 -2.47510585E+01  0.00000000E+00  1.23755293E+01  1.23755293E+01
 -2.47510585E+01  0.00000000E+00  1.23755293E+01  1.23755293E+01 -2.47510585E+01
  0.00000000E+00  1.23755293E+01  1.23755293E+01 -2.47510585E+01  0.00000000E+00
  1.23755293E+01  1.23755293E+01 -2.47510585E+01  0.00000000E+00  1.23755293E+01
  1.23755293E+01 -2.47510585E+01  0.00000000E+00  1.23755293E+01  1.23755293E+01
 -2.47510585E+01  0.00000000E+00  1.23755293E+01  1.23755293E+01 -2.47510585E+01
  0.00000000E+00  1.23755293E+01  1.23755293E+01 -2.47510585E+01  0.00000000E+00
  1.23755293E+01  1.23755293E+01 -2.47510585E+01  0.00000000E+00  1.23755293E+01
  1.23755293E+01 -2.47510585E+01  0.00000000E+00  1.23755293E+01  1.23755293E+01
 -2.47510585E+01  0.00000000E+00  1.23755293E+01  1.23755293E+01 -2.47510585E+01
  0.00000000E+00  1.23755293E+01  1.23755293E+01 -2.47510585E+01  0.00000000E+00
  1.23755293E+01  1.23755293E+01 -2.47510585E+01  0.00000000E+00  1.23755293E+01
  1.23755293E+01 -2.47510585E+01  0.00000000E+00  1.23755293E+01  1.23755293E+01
 -2.47510585E+01  0.00000000E+00  1.23755293E+01  1.23755293E+01 -2.47510585E+01
  0.00000000E+00  1.23755293E+01  1.23755293E+01 -2.47510585E+01  0.00000000E+00
  1.23755293E+01  1.23755293E+01 -2.47510585E+01  0.00000000E+00  1.23755293E+01
  1.23755293E+01 -2.47510585E+01  0.00000000E+00  1.23755293E+01  1.23755293E+01
 -2.47510585E+01  0.00000000E+00  1.23755293E+01  1.23755293E+01 -2.47510585E+01
  0.00000000E+00  1.23755293E+01  1.23755293E+01 -2.47510585E+01  0.00000000E+00
  1.23755293E+01  1.23755293E+01 -2.47510585E+01  0.00000000E+00  1.23755293E+01
  1.23755293E+01 -2.47510585E+01  0.00000000E+00  1.23755293E+01  1.23755293E+01
 -2.47510585E+01  0.00000000E+00  1.23755293E+01  1.23755293E+01 -2.47510585E+01
  0.00000000E+00  1.23755293E+01  1.23755293E+01 -2.47510585E+01  0.00000000E+00
  1.23755293E+01  1.23755293E+01 -2.47510585E+01  0.00000000E+00  1.23755293E+01
  1.23755293E+01 -2.47510585E+01  0.00000000E+00  1.23755293E+01  1.23755293E+01
 -2.47510585E+01  0.00000000E+00  1.23755293E+01  1.23755293E+01 -2.47510585E+01
  0.00000000E+00  1.23755293E+01  1.23755293E+01 -2.47510585E+01  0.00000000E+00
  1.23755293E+01  1.23755293E+01 -2.47510585E+01  0.00000000E+00  1.23755293E+01
  1.23755293E+01 -2.47510585E+01  0.00000000E+00  1.23755293E+01  1.23755293E+01
 -2.47510585E+01  0.00000000E+00  1.23755293E+01  1.23755293E+01 -2.47510585E+01
  0.00000000E+00  1.23755293E+01  1.23755293E+01 -2.47510585E+01  0.00000000E+00
  1.23755293E+01  1.23755293E+01 -2.47510585E+01  0.00000000E+00  1.23755293E+01
  1.23755293E+01 -2.47510585E+01  0.00000000E+00  1.23755293E+01  1.23755293E+01
 -2.47510585E+01  0.00000000E+00  1.23755293E+01  1.23755293E+01 -2.47510585E+01
  0.00000000E+00  1.23755293E+01  1.23755293E+01 -2.47510585E+01  0.00000000E+00
  1.23755293E+01  1.23755293E+01 -2.47510585E+01  0.00000000E+00  1.23755293E+01
  1.23755293E+01 -2.47510585E+01  0.00000000E+00  1.23755293E+01  1.23755293E+01
 -2.47510585E+01  0.00000000E+00  1.23755293E+01  1.23755293E+01 -2.47510585E+01
  0.00000000E+00  1.23755293E+01  1.23755293E+01 -2.47510585E+01  0.00000000E+00
  1.23755293E+01  1.23755293E+01 -2.47510585E+01  0.00000000E+00  1.23755293E+01
  1.23755293E+01 -2.47510585E+01  0.00000000E+00  1.23755293E+01  1.23755293E+01
 -2.47510585E+01  0.00000000E+00  1.23755293E+01  1.23755293E+01 -2.47510585E+01
  0.00000000E+00  1.23755293E+01  1.23755293E+01 -2.47510585E+01  0.00000000E+00
  1.23755293E+01  1.23755293E+01 -2.47510585E+01  0.00000000E+00  1.23755293E+01
  1.23755293E+01 -2.47510585E+01  0.00000000E+00  1.23755293E+01  1.23755293E+01
 -2.47510585E+01  0.00000000E+00  1.23755293E+01  1.23755293E+01 -2.47510585E+01
  0.00000000E+00  1.23755293E+01  1.23755293E+01 -2.47510585E+01  0.00000000E+00
  1.23755293E+01  1.23755293E+01 -2.47510585E+01  0.00000000E+00  1.23755293E+01
  1.23755293E+01 -2.47510585E+01  0.00000000E+00  1.23755293E+01  1.23755293E+01
 -2.47510585E+01  0.00000000E+00  1.23755293E+01  1.23755293E+01 -2.47510585E+01
  0.00000000E+00  1.23755293E+01  1.23755293E+01 -2.47510585E+01  0.00000000E+00
  1.23755293E+01  1.23755293E+01 -2.47510585E+01  0.00000000E+00  1.23755293E+01
  1.23755293E+01 -2.47510585E+01  0.00000000E+00  1.23755293E+01  1.23755293E+01
 -2.47510585E+01  0.00000000E+00  1.23755293E+01  1.23755293E+01 -2.47510585E+01
  0.00000000E+00  1.23755293E+01  1.23755293E+01 -2.47510585E+01  0.00000000E+00
  1.23755293E+01  1.23755293E+01 -2.47510585E+01  0.00000000E+00  1.23755293E+01
  1.23755293E+01 -2.47510585E+01  0.00000000E+00  1.23755293E+01  1.23755293E+01
 -2.47510585E+01  0.00000000E+00  1.23755293E+01  1.23755293E+01 -2.47510585E+01
  0.00000000E+00  1.23755293E+01  1.23755293E+01 -2.47510585E+01  0.00000000E+00
  1.23755293E+01  1.23755293E+01 -2.47510585E+01  0.00000000E+00  1.23755293E+01
  1.23755293E+01 -2.47510585E+01  0.00000000E+00  1.23755293E+01  1.23755293E+01
 -2.47510585E+01  0.00000000E+00  1.23755293E+01  1.23755293E+01 -2.47510585E+01
  0.00000000E+00  1.23755293E+01  1.23755293E+01 -2.47510585E+01  0.00000000E+00
  1.23755293E+01  1.23755293E+01 -2.47510585E+01  0.00000000E+00  1.23755293E+01
  1.23755293E+01 -2.47510585E+01  0.00000000E+00  1.23755293E+01  1.23755293E+01
 -2.47510585E+01  0.00000000E+00  1.23755293E+01  1.23755293E+01 -2.47510585E+01
  0.00000000E+00  1.23755293E+01  1.23755293E+01 -2.47510585E+01  0.00000000E+00
  1.23755293E+01  1.23755293E+01 -2.47510585E+01  0.00000000E+00  1.23755293E+01
  1.23755293E+01 -2.47510585E+01  0.00000000E+00  1.23755293E+01  1.23755293E+01
 -2.47510585E+01  0.00000000E+00  1.23755293E+01  1.23755293E+01 -2.47510585E+01
  0.00000000E+00  1.23755293E+01  1.23755293E+01 -2.47510585E+01  0.00000000E+00
  1.23755293E+01  1.23755293E+01 -2.47510585E+01  0.00000000E+00  1.23755293E+01
  1.23755293E+01 -2.47510585E+01  0.00000000E+00  1.23755293E+01  1.23755293E+01
 -2.47510585E+01  0.00000000E+00  1.23755293E+01  1.23755293E+01 -2.47510585E+01
  0.00000000E+00  1.23755293E+01  1.23755293E+01 -2.47510585E+01  0.00000000E+00
  1.23755293E+01  1.23755293E+01 -2.47510585E+01  0.00000000E+00  1.23755293E+01
  1.23755293E+01 -2.47510585E+01  0.00000000E+00  1.23755293E+01  1.23755293E+01
 -2.47510585E+01  0.00000000E+00  1.23755293E+01  1.23755293E+01 -2.47510585E+01
  0.00000000E+00  1.23755293E+01  1.23755293E+01 -2.47510585E+01  0.00000000E+00
  1.23755293E+01  1.23755293E+01 -2.47510585E+01  0.00000000E+00  1.23755293E+01
  1.23755293E+01 -2.47510585E+01  0.00000000E+00  1.23755293E+01  1.23755293E+01
 -2.47510585E+01  0.00000000E+00  1.23755293E+01  1.23755293E+01 -2.47510585E+01
  0.00000000E+00  1.23755293E+01  1.23755293E+01 -2.47510585E+01  0.00000000E+00
  1.23755293E+01  1.23755293E+01 -2.47510585E+01  0.00000000E+00  1.23755293E+01
  1.23755293E+01 -2.47510585E+01  0.00000000E+00  1.23755293E+01  1.23755293E+01
 -2.47510585E+01  0.00000000E+00  1.23755293E+01  1.23755293E+01 -2.47510585E+01
  0.00000000E+00  1.23755293E+01  1.23755293E+01 -2.47510585E+01  0.00000000E+00
  1.23755293E+01  1.23755293E+01 -2.47510585E+01  0.00000000E+00  1.23755293E+01
  1.23755293E+01 -2.47510585E+01  0.00000000E+00  1.23755293E+01  1.23755293E+01
 -2.47510585E+01  0.00000000E+00  1.23755293E+01  1.23755293E+01 -2.47510585E+01
  0.00000000E+00  1.23755293E+01  1.23755293E+01 -2.47510585E+01  0.00000000E+00
  1.23755293E+01  1.23755293E+01 -2.47510585E+01  0.00000000E+00  1.23755293E+01
  1.23755293E+01 -2.47510585E+01  0.00000000E+00  1.23755293E+01  1.23755293E+01
 -2.47510585E+01  0.00000000E+00  1.23755293E+01  1.23755293E+01 -2.47510585E+01
  0.00000000E+00  1.23755293E+01  1.23755293E+01 -2.47510585E+01  0.00000000E+00
  1.23755293E+01  1.23755293E+01 -2.47510585E+01  0.00000000E+00  1.23755293E+01
  1.23755293E+01 -2.47510585E+01  0.00000000E+00  1.23755293E+01  1.23755293E+01
 -2.47510585E+01  0.00000000E+00  1.23755293E+01  1.23755293E+01 -2.47510585E+01
  0.00000000E+00  1.23755293E+01  1.23755293E+01 -2.47510585E+01  0.00000000E+00
  1.23755293E+01  1.23755293E+01 -2.47510585E+01  0.00000000E+00  1.23755293E+01
  1.23755293E+01 -2.47510585E+01  0.00000000E+00  1.23755293E+01  1.23755293E+01
 -2.47510585E+01  0.00000000E+00  1.23755293E+01  1.23755293E+01 -2.47510585E+01
  0.00000000E+00  1.23755293E+01  1.23755293E+01 -2.47510585E+01  0.00000000E+00
  1.23755293E+01  1.23755293E+01 -2.47510585E+01  0.00000000E+00  1.23755293E+01
  1.23755293E+01 -2.47510585E+01  0.00000000E+00  1.23755293E+01  1.23755293E+01
 -2.47510585E+01  0.00000000E+00  1.23755293E+01  1.23755293E+01 -2.47510585E+01
  0.00000000E+00  1.23755293E+01  1.23755293E+01 -2.47510585E+01  0.00000000E+00
  1.23755293E+01  1.23755293E+01 -2.47510585E+01  0.00000000E+00  1.23755293E+01
  1.23755293E+01 -2.47510585E+01  0.00000000E+00  1.23755293E+01  1.23755293E+01
 -2.47510585E+01  0.00000000E+00  1.23755293E+01  1.23755293E+01 -2.47510585E+01
  0.00000000E+00  1.23755293E+01  1.23755293E+01 -2.47510585E+01  0.00000000E+00
  1.23755293E+01  1.23755293E+01 -2.47510585E+01  0.00000000E+00  1.23755293E+01
  1.23755293E+01 -2.47510585E+01  0.00000000E+00  1.23755293E+01  1.23755293E+01
 -2.47510585E+01  0.00000000E+00  1.23755293E+01  1.23755293E+01 -2.47510585E+01
  0.00000000E+00  1.23755293E+01  1.23755293E+01 -2.47510585E+01  0.00000000E+00
  1.23755293E+01  1.23755293E+01 -2.47510585E+01  0.00000000E+00  1.23755293E+01
  1.23755293E+01 -2.47510585E+01  0.00000000E+00  1.23755293E+01  1.23755293E+01
 -2.47510585E+01  0.00000000E+00  1.23755293E+01  1.23755293E+01 -2.47510585E+01
  0.00000000E+00  1.23755293E+01  1.23755293E+01 -2.47510585E+01  0.00000000E+00
  1.23755293E+01  1.23755293E+01 -2.47510585E+01  0.00000000E+00  1.23755293E+01
  1.23755293E+01 -2.47510585E+01  0.00000000E+00  1.23755293E+01  1.23755293E+01
 -2.47510585E+01  0.00000000E+00  1.23755293E+01  1.23755293E+01 -2.47510585E+01
  0.00000000E+00  1.23755293E+01  1.23755293E+01 -2.47510585E+01  0.00000000E+00
  1.23755293E+01  1.23755293E+01 -2.47510585E+01  0.00000000E+00  1.23755293E+01
  1.23755293E+01 -2.47510585E+01  0.00000000E+00  1.23755293E+01  1.23755293E+01
 -2.47510585E+01  0.00000000E+00  1.23755293E+01  1.23755293E+01 -2.47510585E+01
  0.00000000E+00  1.23755293E+01  1.23755293E+01 -2.47510585E+01  0.00000000E+00
  1.23755293E+01  1.23755293E+01 -2.47510585E+01  0.00000000E+00  1.23755293E+01
  1.23755293E+01 -2.47510585E+01  0.00000000E+00  1.23755293E+01  1.23755293E+01
 -2.47510585E+01  0.00000000E+00  1.23755293E+01  1.23755293E+01 -2.47510585E+01
  0.00000000E+00  1.23755293E+01  1.23755293E+01 -2.47510585E+01  0.00000000E+00
  1.23755293E+01  1.23755293E+01 -2.47510585E+01  0.00000000E+00  1.23755293E+01
  1.23755293E+01 -2.47510585E+01  0.00000000E+00  1.23755293E+01  1.23755293E+01
 -2.47510585E+01  0.00000000E+00  1.23755293E+01  1.23755293E+01 -2.47510585E+01
  0.00000000E+00  1.23755293E+01  1.23755293E+01 -2.47510585E+01  0.00000000E+00
  1.23755293E+01  1.23755293E+01 -2.47510585E+01  0.00000000E+00  1.23755293E+01
  1.23755293E+01 -2.47510585E+01  0.00000000E+00  1.23755293E+01  1.23755293E+01
 -2.47510585E+01  0.00000000E+00  1.23755293E+01  1.23755293E+01 -2.47510585E+01
  0.00000000E+00  1.23755293E+01  1.23755293E+01 -2.47510585E+01  0.00000000E+00
  1.23755293E+01  1.23755293E+01 -2.47510585E+01  0.00000000E+00  1.23755293E+01
  1.23755293E+01 -2.47510585E+01  0.00000000E+00  1.23755293E+01  1.23755293E+01
 -2.47510585E+01  0.00000000E+00  1.23755293E+01  1.23755293E+01 -2.47510585E+01
  0.00000000E+00  1.23755293E+01  1.23755293E+01 -2.47510585E+01  0.00000000E+00
  1.23755293E+01  1.23755293E+01 -2.47510585E+01  0.00000000E+00  1.23755293E+01
  1.23755293E+01 -2.47510585E+01  0.00000000E+00  1.23755293E+01  1.23755293E+01
 -2.47510585E+01  0.00000000E+00  1.23755293E+01  1.23755293E+01 -2.47510585E+01
  0.00000000E+00  1.23755293E+01  1.23755293E+01 -2.47510585E+01  0.00000000E+00
  1.23755293E+01  1.23755293E+01 -2.47510585E+01  0.00000000E+00  1.23755293E+01
  1.23755293E+01 -2.47510585E+01  0.00000000E+00  1.23755293E+01  1.23755293E+01
 -2.47510585E+01  0.00000000E+00  1.23755293E+01  1.23755293E+01 -2.47510585E+01
  0.00000000E+00  1.23755293E+01  1.23755293E+01 -2.47510585E+01  0.00000000E+00
  1.23755293E+01  1.23755293E+01 -2.47510585E+01  0.00000000E+00  1.23755293E+01
  1.23755293E+01 -2.47510585E+01  0.00000000E+00  1.23755293E+01  1.23755293E+01
 -2.47510585E+01  0.00000000E+00  1.23755293E+01  1.23755293E+01 -2.47510585E+01
  0.00000000E+00  1.23755293E+01  1.23755293E+01 -2.47510585E+01  0.00000000E+00
  1.23755293E+01  1.23755293E+01 -2.47510585E+01  0.00000000E+00  1.23755293E+01
  1.23755293E+01 -2.47510585E+01  0.00000000E+00  1.23755293E+01  1.23755293E+01
 -2.47510585E+01  0.00000000E+00  1.23755293E+01  1.23755293E+01 -2.47510585E+01
  0.00000000E+00  1.23755293E+01  1.23755293E+01 -2.47510585E+01  0.00000000E+00
  1.23755293E+01  1.23755293E+01 -2.47510585E+01  0.00000000E+00  1.23755293E+01
  1.23755293E+01 -2.47510585E+01  0.00000000E+00  1.23755293E+01  1.23755293E+01
 -2.47510585E+01  0.00000000E+00  1.23755293E+01  1.23755293E+01 -2.47510585E+01
  0.00000000E+00  1.23755293E+01  1.23755293E+01 -2.47510585E+01  0.00000000E+00
  1.23755293E+01  1.23755293E+01 -2.47510585E+01  0.00000000E+00  1.23755293E+01
  1.23755293E+01 -2.47510585E+01  0.00000000E+00  1.23755293E+01  1.23755293E+01
 -2.47510585E+01  0.00000000E+00  1.23755293E+01  1.23755293E+01 -2.47510585E+01
  0.00000000E+00  1.23755293E+01  1.23755293E+01 -2.47510585E+01  0.00000000E+00
  1.23755293E+01  1.23755293E+01 -2.47510585E+01  0.00000000E+00  1.23755293E+01
  1.23755293E+01 -2.47510585E+01  0.00000000E+00  1.23755293E+01  1.23755293E+01
 -2.47510585E+01  0.00000000E+00  1.23755293E+01  1.23755293E+01 -2.47510585E+01
  0.00000000E+00  1.23755293E+01  1.23755293E+01 -2.47510585E+01  0.00000000E+00
  1.23755293E+01  1.23755293E+01 -2.47510585E+01  0.00000000E+00  1.23755293E+01
  1.23755293E+01 -2.47510585E+01  0.00000000E+00  1.23755293E+01  1.23755293E+01
 -2.47510585E+01  0.00000000E+00  1.23755293E+01  1.23755293E+01 -2.47510585E+01
  0.00000000E+00  1.23755293E+01  1.23755293E+01 -2.47510585E+01  0.00000000E+00
  1.23755293E+01  1.23755293E+01 -2.47510585E+01  0.00000000E+00  1.23755293E+01
  1.23755293E+01 -2.47510585E+01  0.00000000E+00  1.23755293E+01  1.23755293E+01
 -2.47510585E+01  0.00000000E+00  1.23755293E+01  1.23755293E+01 -2.47510585E+01
  0.00000000E+00  1.23755293E+01  1.23755293E+01 -2.47510585E+01  0.00000000E+00
  1.23755293E+01  1.23755293E+01 -2.47510585E+01  0.00000000E+00  1.23755293E+01
  1.23755293E+01 -2.47510585E+01  0.00000000E+00  1.23755293E+01  1.23755293E+01
 -2.47510585E+01  0.00000000E+00  1.23755293E+01  1.23755293E+01 -2.47510585E+01
  0.00000000E+00  1.23755293E+01  1.23755293E+01 -2.47510585E+01  0.00000000E+00
  1.23755293E+01  1.23755293E+01 -2.47510585E+01  0.00000000E+00  1.23755293E+01
  1.23755293E+01 -2.47510585E+01  0.00000000E+00  1.23755293E+01  1.23755293E+01
 -2.47510585E+01  0.00000000E+00  1.23755293E+01  1.23755293E+01 -2.47510585E+01
  0.00000000E+00  1.23755293E+01  1.23755293E+01 -2.47510585E+01  0.00000000E+00
  1.23755293E+01  1.23755293E+01 -2.47510585E+01  0.00000000E+00  1.23755293E+01
  1.23755293E+01 -2.47510585E+01  0.00000000E+00  1.23755293E+01  1.23755293E+01
 -2.47510585E+01  0.00000000E+00  1.23755293E+01  1.23755293E+01 -2.47510585E+01
  0.00000000E+00  1.23755293E+01  1.23755293E+01 -2.47510585E+01  0.00000000E+00
  1.23755293E+01  1.23755293E+01 -2.47510585E+01  0.00000000E+00  1.23755293E+01
  1.23755293E+01 -2.47510585E+01  0.00000000E+00  1.23755293E+01  1.23755293E+01
 -2.47510585E+01  0.00000000E+00  1.23755293E+01  1.23755293E+01 -2.47510585E+01
  0.00000000E+00  1.23755293E+01  1.23755293E+01 -2.47510585E+01  0.00000000E+00
  1.23755293E+01  1.23755293E+01 -2.47510585E+01  0.00000000E+00  1.23755293E+01
  1.23755293E+01 -2.47510585E+01  0.00000000E+00  1.23755293E+01  1.23755293E+01
 -2.47510585E+01  0.00000000E+00  1.23755293E+01  1.23755293E+01 -2.47510585E+01
  0.00000000E+00  1.23755293E+01  1.23755293E+01 -2.47510585E+01  0.00000000E+00
  1.23755293E+01  1.23755293E+01 -2.47510585E+01  0.00000000E+00  1.23755293E+01
  1.23755293E+01 -2.47510585E+01  0.00000000E+00  1.23755293E+01  1.23755293E+01
 -2.47510585E+01  0.00000000E+00  1.23755293E+01  1.23755293E+01 -2.47510585E+01
  0.00000000E+00  1.23755293E+01  1.23755293E+01 -2.47510585E+01  0.00000000E+00
  1.23755293E+01  1.23755293E+01 -2.47510585E+01  0.00000000E+00  1.23755293E+01
  1.23755293E+01 -2.47510585E+01  0.00000000E+00  1.23755293E+01  1.23755293E+01
 -2.47510585E+01  0.00000000E+00  1.23755293E+01  1.23755293E+01 -2.47510585E+01
  0.00000000E+00  1.23755293E+01  1.23755293E+01 -2.47510585E+01  0.00000000E+00
  1.23755293E+01  1.23755293E+01 -2.47510585E+01  0.00000000E+00  1.23755293E+01
  1.23755293E+01 -2.47510585E+01  0.00000000E+00  1.23755293E+01  1.23755293E+01
 -2.47510585E+01  0.00000000E+00  1.23755293E+01  1.23755293E+01 -2.47510585E+01
  0.00000000E+00  1.23755293E+01  1.23755293E+01 -2.47510585E+01  0.00000000E+00
  1.23755293E+01  1.23755293E+01 -2.47510585E+01  0.00000000E+00  1.23755293E+01
  1.23755293E+01 -2.47510585E+01  0.00000000E+00  1.23755293E+01  1.23755293E+01
 -2.47510585E+01  0.00000000E+00  1.23755293E+01  1.23755293E+01 -2.47510585E+01
  0.00000000E+00  1.23755293E+01  1.23755293E+01 -2.47510585E+01  0.00000000E+00
  1.23755293E+01  1.23755293E+01 -2.47510585E+01  0.00000000E+00  1.23755293E+01
  1.23755293E+01 -2.47510585E+01  0.00000000E+00  1.23755293E+01  1.23755293E+01
 -2.47510585E+01  0.00000000E+00  1.23755293E+01  1.23755293E+01 -2.47510585E+01
  0.00000000E+00  1.23755293E+01  1.23755293E+01 -2.47510585E+01  0.00000000E+00
  1.23755293E+01  1.23755293E+01 -2.47510585E+01  0.00000000E+00  1.23755293E+01
  1.23755293E+01 -2.47510585E+01  0.00000000E+00  1.23755293E+01  1.23755293E+01
 -2.47510585E+01  0.00000000E+00  1.23755293E+01  1.23755293E+01 -2.47510585E+01
  0.00000000E+00  1.23755293E+01  1.23755293E+01 -2.47510585E+01  0.00000000E+00
  1.23755293E+01  1.23755293E+01 -2.47510585E+01  0.00000000E+00  1.23755293E+01
  1.23755293E+01 -2.47510585E+01  0.00000000E+00  1.23755293E+01  1.23755293E+01
 -2.47510585E+01  0.00000000E+00  1.23755293E+01  1.23755293E+01 -2.47510585E+01
  0.00000000E+00  1.23755293E+01  1.23755293E+01 -2.47510585E+01  0.00000000E+00
  1.23755293E+01  1.23755293E+01 -2.47510585E+01  0.00000000E+00  1.23755293E+01
  1.23755293E+01 -2.47510585E+01  0.00000000E+00  1.23755293E+01  1.23755293E+01
 -2.47510585E+01  0.00000000E+00  1.23755293E+01  1.23755293E+01 -2.47510585E+01
  0.00000000E+00  1.23755293E+01  1.23755293E+01 -2.47510585E+01  0.00000000E+00
  1.23755293E+01  1.23755293E+01 -2.47510585E+01  0.00000000E+00  1.23755293E+01
  1.23755293E+01 -2.47510585E+01  0.00000000E+00  1.23755293E+01  1.23755293E+01
 -2.47510585E+01  0.00000000E+00  1.23755293E+01  1.23755293E+01 -2.47510585E+01
  0.00000000E+00  1.23755293E+01  1.23755293E+01 -2.47510585E+01  0.00000000E+00
  1.23755293E+01  1.23755293E+01 -2.47510585E+01  0.00000000E+00  1.23755293E+01
  1.23755293E+01 -2.47510585E+01  0.00000000E+00  1.23755293E+01  1.23755293E+01
 -2.47510585E+01  0.00000000E+00  1.23755293E+01  1.23755293E+01 -2.47510585E+01
  0.00000000E+00  1.23755293E+01  1.23755293E+01 -2.47510585E+01  0.00000000E+00
  1.23755293E+01  1.23755293E+01 -2.47510585E+01  0.00000000E+00  1.23755293E+01
  1.23755293E+01 -2.47510585E+01  0.00000000E+00  1.23755293E+01  1.23755293E+01
 -2.47510585E+01  0.00000000E+00  1.23755293E+01  1.23755293E+01 -2.47510585E+01
  0.00000000E+00  1.23755293E+01  1.23755293E+01 -2.47510585E+01  0.00000000E+00
  1.23755293E+01  1.23755293E+01 -2.47510585E+01  0.00000000E+00  1.23755293E+01
  1.23755293E+01 -2.47510585E+01  0.00000000E+00  1.23755293E+01  1.23755293E+01
 -2.47510585E+01  0.00000000E+00  1.23755293E+01  1.23755293E+01 -2.47510585E+01
  0.00000000E+00  1.23755293E+01  1.23755293E+01 -2.47510585E+01  0.00000000E+00
  1.23755293E+01  1.23755293E+01 -2.47510585E+01  0.00000000E+00  1.23755293E+01
  1.23755293E+01 -2.47510585E+01  0.00000000E+00  1.23755293E+01  1.23755293E+01
 -2.47510585E+01  0.00000000E+00  1.23755293E+01  1.23755293E+01 -2.47510585E+01
  0.00000000E+00  1.23755293E+01  1.23755293E+01 -2.47510585E+01  0.00000000E+00
  1.23755293E+01  1.23755293E+01 -2.47510585E+01  0.00000000E+00  1.23755293E+01
  1.23755293E+01 -2.47510585E+01  0.00000000E+00  1.23755293E+01  1.23755293E+01
 -2.47510585E+01  0.00000000E+00  1.23755293E+01  1.23755293E+01 -2.47510585E+01
  0.00000000E+00  1.23755293E+01  1.23755293E+01 -2.47510585E+01  0.00000000E+00
  1.23755293E+01  1.23755293E+01 -2.47510585E+01  0.00000000E+00  1.23755293E+01
  1.23755293E+01 -2.47510585E+01  0.00000000E+00  1.23755293E+01  1.23755293E+01
 -2.47510585E+01  0.00000000E+00  1.23755293E+01  1.23755293E+01 -2.47510585E+01
  0.00000000E+00  1.23755293E+01  1.23755293E+01 -2.47510585E+01  0.00000000E+00
  1.23755293E+01  1.23755293E+01 -2.47510585E+01  0.00000000E+00  1.23755293E+01
  1.23755293E+01 -2.47510585E+01  0.00000000E+00  1.23755293E+01  1.23755293E+01
 -2.47510585E+01  0.00000000E+00  1.23755293E+01  1.23755293E+01 -2.47510585E+01
  0.00000000E+00  1.23755293E+01  1.23755293E+01 -2.47510585E+01  0.00000000E+00
  1.23755293E+01  1.23755293E+01 -2.47510585E+01  0.00000000E+00  1.23755293E+01
  1.23755293E+01 -2.47510585E+01  0.00000000E+00  1.23755293E+01  1.23755293E+01
 -2.47510585E+01  0.00000000E+00  1.23755293E+01  1.23755293E+01 -2.47510585E+01
  0.00000000E+00  1.23755293E+01  1.23755293E+01 -2.47510585E+01  0.00000000E+00
  1.23755293E+01  1.23755293E+01 -2.47510585E+01  0.00000000E+00  1.23755293E+01
  1.23755293E+01 -2.47510585E+01  0.00000000E+00  1.23755293E+01  1.23755293E+01
 -2.47510585E+01  0.00000000E+00  1.23755293E+01  1.23755293E+01 -2.47510585E+01
  0.00000000E+00  1.23755293E+01  1.23755293E+01 -2.47510585E+01  0.00000000E+00
  1.23755293E+01  1.23755293E+01 -2.47510585E+01  0.00000000E+00  1.23755293E+01
  1.23755293E+01 -2.47510585E+01  0.00000000E+00  1.23755293E+01  1.23755293E+01
 -2.47510585E+01  0.00000000E+00  1.23755293E+01  1.23755293E+01 -2.47510585E+01
  0.00000000E+00  1.23755293E+01  1.23755293E+01 -2.47510585E+01  0.00000000E+00
  1.23755293E+01  1.23755293E+01 -2.47510585E+01  0.00000000E+00  1.23755293E+01
  1.23755293E+01 -2.47510585E+01  0.00000000E+00  1.23755293E+01  1.23755293E+01
 -2.47510585E+01  0.00000000E+00  1.23755293E+01  1.23755293E+01 -2.47510585E+01
  0.00000000E+00  1.23755293E+01  1.23755293E+01 -2.47510585E+01  0.00000000E+00
  1.23755293E+01  1.23755293E+01 -2.47510585E+01  0.00000000E+00  1.23755293E+01
  1.23755293E+01 -2.47510585E+01  0.00000000E+00  1.23755293E+01  1.23755293E+01
 -2.47510585E+01  0.00000000E+00  1.23755293E+01  1.23755293E+01 -2.47510585E+01
  0.00000000E+00  1.23755293E+01  1.23755293E+01 -2.47510585E+01  0.00000000E+00
  1.23755293E+01  1.23755293E+01 -2.47510585E+01  0.00000000E+00  1.23755293E+01
  1.23755293E+01 -2.47510585E+01  0.00000000E+00  1.23755293E+01  1.23755293E+01
 -2.47510585E+01  0.00000000E+00  1.23755293E+01  1.23755293E+01 -2.47510585E+01
  0.00000000E+00  1.23755293E+01  1.23755293E+01 -2.47510585E+01  0.00000000E+00
  1.23755293E+01  1.23755293E+01 -2.47510585E+01  0.00000000E+00  1.23755293E+01
  1.23755293E+01 -2.47510585E+01  0.00000000E+00  1.23755293E+01  1.23755293E+01
 -2.47510585E+01  0.00000000E+00  1.23755293E+01  1.23755293E+01 -2.47510585E+01
  0.00000000E+00  1.23755293E+01  1.23755293E+01 -2.47510585E+01  0.00000000E+00
  1.23755293E+01  1.23755293E+01 -2.47510585E+01  0.00000000E+00  1.23755293E+01
  1.23755293E+01 -2.47510585E+01  0.00000000E+00  1.23755293E+01  1.23755293E+01
 -2.47510585E+01  0.00000000E+00  1.23755293E+01  1.23755293E+01 -2.47510585E+01
  0.00000000E+00  1.23755293E+01  1.23755293E+01 -2.47510585E+01  0.00000000E+00
  1.23755293E+01  1.23755293E+01 -2.47510585E+01  0.00000000E+00  1.23755293E+01
  1.23755293E+01 -2.47510585E+01  0.00000000E+00  1.23755293E+01  1.23755293E+01
 -2.47510585E+01  0.00000000E+00  1.23755293E+01  1.23755293E+01 -2.47510585E+01
  0.00000000E+00  1.23755293E+01  1.23755293E+01 -2.47510585E+01  0.00000000E+00
  1.23755293E+01  1.23755293E+01 -2.47510585E+01  0.00000000E+00  1.23755293E+01
  1.23755293E+01 -2.47510585E+01  0.00000000E+00  1.23755293E+01  1.23755293E+01
 -2.47510585E+01  0.00000000E+00  1.23755293E+01  1.23755293E+01 -2.47510585E+01
  0.00000000E+00  1.23755293E+01  1.23755293E+01 -2.47510585E+01  0.00000000E+00
  1.23755293E+01  1.23755293E+01 -2.47510585E+01  0.00000000E+00  1.23755293E+01
  1.23755293E+01 -2.47510585E+01  0.00000000E+00  1.23755293E+01  1.23755293E+01
 -2.47510585E+01  0.00000000E+00  1.23755293E+01  1.23755293E+01 -2.47510585E+01
  0.00000000E+00  1.23755293E+01  1.23755293E+01 -2.47510585E+01  0.00000000E+00
  1.23755293E+01  1.23755293E+01 -2.47510585E+01  0.00000000E+00  1.23755293E+01
  1.23755293E+01 -2.47510585E+01  0.00000000E+00  1.23755293E+01  1.23755293E+01
 -2.47510585E+01  0.00000000E+00  1.23755293E+01  1.23755293E+01 -2.47510585E+01
  0.00000000E+00  1.23755293E+01  1.23755293E+01 -2.47510585E+01  0.00000000E+00
  1.23755293E+01  1.23755293E+01 -2.47510585E+01  0.00000000E+00  1.23755293E+01
  1.23755293E+01 -2.47510585E+01  0.00000000E+00  1.23755293E+01  1.23755293E+01
 -2.47510585E+01  0.00000000E+00  1.23755293E+01  1.23755293E+01 -2.47510585E+01
  0.00000000E+00  1.23755293E+01  1.23755293E+01 -2.47510585E+01  0.00000000E+00
  1.23755293E+01  1.23755293E+01 -2.47510585E+01  0.00000000E+00  1.23755293E+01
  1.23755293E+01 -2.47510585E+01  0.00000000E+00  1.23755293E+01  1.23755293E+01
 -2.47510585E+01  0.00000000E+00  1.23755293E+01  1.23755293E+01 -2.47510585E+01
  0.00000000E+00  1.23755293E+01  1.23755293E+01 -2.47510585E+01  0.00000000E+00
  1.23755293E+01  1.23755293E+01 -2.47510585E+01  0.00000000E+00  1.23755293E+01
  1.23755293E+01 -2.47510585E+01  0.00000000E+00  1.23755293E+01  1.23755293E+01
 -2.47510585E+01  0.00000000E+00  1.23755293E+01  1.23755293E+01 -2.47510585E+01
  0.00000000E+00  1.23755293E+01  1.23755293E+01 -2.47510585E+01  0.00000000E+00
  1.23755293E+01  1.23755293E+01 -2.47510585E+01  0.00000000E+00  1.23755293E+01
  1.23755293E+01 -2.47510585E+01  0.00000000E+00  1.23755293E+01  1.23755293E+01
 -2.47510585E+01  0.00000000E+00  1.23755293E+01  1.23755293E+01 -2.47510585E+01
  0.00000000E+00  1.23755293E+01  1.23755293E+01 -2.47510585E+01  0.00000000E+00
  1.23755293E+01  1.23755293E+01 -2.47510585E+01  0.00000000E+00  1.23755293E+01
  1.23755293E+01 -2.47510585E+01  0.00000000E+00  1.23755293E+01  1.23755293E+01
 -2.47510585E+01  0.00000000E+00  1.23755293E+01  1.23755293E+01 -2.47510585E+01
  0.00000000E+00  1.23755293E+01  1.23755293E+01 -2.47510585E+01  0.00000000E+00
  1.23755293E+01  1.23755293E+01 -2.47510585E+01  0.00000000E+00  1.23755293E+01
  1.23755293E+01 -2.47510585E+01  0.00000000E+00  1.23755293E+01  1.23755293E+01
 -2.47510585E+01  0.00000000E+00  1.23755293E+01  1.23755293E+01 -2.47510585E+01
  0.00000000E+00  1.23755293E+01  1.23755293E+01 -2.47510585E+01  0.00000000E+00
  1.23755293E+01  1.23755293E+01 -2.47510585E+01  0.00000000E+00  1.23755293E+01
  1.23755293E+01 -2.47510585E+01  0.00000000E+00  1.23755293E+01  1.23755293E+01
 -2.47510585E+01  0.00000000E+00  1.23755293E+01  1.23755293E+01 -2.47510585E+01
  0.00000000E+00  1.23755293E+01  1.23755293E+01 -2.47510585E+01  0.00000000E+00
  1.23755293E+01  1.23755293E+01 -2.47510585E+01  0.00000000E+00  1.23755293E+01
  1.23755293E+01 -2.47510585E+01  0.00000000E+00  1.23755293E+01  1.23755293E+01
 -2.47510585E+01  0.00000000E+00  1.23755293E+01  1.23755293E+01 -2.47510585E+01
  0.00000000E+00  1.23755293E+01  1.23755293E+01 -2.47510585E+01  0.00000000E+00
  1.23755293E+01  1.23755293E+01 -2.47510585E+01  0.00000000E+00  1.23755293E+01
  1.23755293E+01 -2.47510585E+01  0.00000000E+00  1.23755293E+01  1.23755293E+01
 -2.47510585E+01  0.00000000E+00  1.23755293E+01  1.23755293E+01 -2.47510585E+01
  0.00000000E+00  1.23755293E+01  1.23755293E+01 -2.47510585E+01  0.00000000E+00
  1.23755293E+01  1.23755293E+01 -2.47510585E+01  0.00000000E+00  1.23755293E+01
  1.23755293E+01 -2.47510585E+01  0.00000000E+00  1.23755293E+01  1.23755293E+01
 -2.47510585E+01  0.00000000E+00  1.23755293E+01  1.23755293E+01 -2.47510585E+01
  0.00000000E+00  1.23755293E+01  1.23755293E+01 -2.47510585E+01  0.00000000E+00
  1.23755293E+01  1.23755293E+01 -2.47510585E+01  0.00000000E+00  1.23755293E+01
  1.23755293E+01 -2.47510585E+01  0.00000000E+00  1.23755293E+01  1.23755293E+01
 -2.47510585E+01  0.00000000E+00  1.23755293E+01  1.23755293E+01 -2.47510585E+01
  0.00000000E+00  1.23755293E+01  1.23755293E+01 -2.47510585E+01  0.00000000E+00
  1.23755293E+01  1.23755293E+01 -2.47510585E+01  0.00000000E+00  1.23755293E+01
  1.23755293E+01 -2.47510585E+01  0.00000000E+00  1.23755293E+01  1.23755293E+01
 -2.47510585E+01  0.00000000E+00  1.23755293E+01  1.23755293E+01 -2.47510585E+01
  0.00000000E+00  1.23755293E+01  1.23755293E+01 -2.47510585E+01  0.00000000E+00
  1.23755293E+01  1.23755293E+01 -2.47510585E+01  0.00000000E+00  1.23755293E+01
  1.23755293E+01 -2.47510585E+01  0.00000000E+00  1.23755293E+01  1.23755293E+01
 -2.47510585E+01  0.00000000E+00  1.23755293E+01  1.23755293E+01 -2.47510585E+01
  0.00000000E+00  1.23755293E+01  1.23755293E+01 -2.47510585E+01  0.00000000E+00
  1.23755293E+01  1.23755293E+01 -2.47510585E+01  0.00000000E+00  1.23755293E+01
  1.23755293E+01 -2.47510585E+01  0.00000000E+00  1.23755293E+01  1.23755293E+01
 -2.47510585E+01  0.00000000E+00  1.23755293E+01  1.23755293E+01 -2.47510585E+01
  0.00000000E+00  1.23755293E+01  1.23755293E+01 -2.47510585E+01  0.00000000E+00
  1.23755293E+01  1.23755293E+01 -2.47510585E+01  0.00000000E+00  1.23755293E+01
  1.23755293E+01 -2.47510585E+01  0.00000000E+00  1.23755293E+01  1.23755293E+01
 -2.47510585E+01  0.00000000E+00  1.23755293E+01  1.23755293E+01 -2.47510585E+01
  0.00000000E+00  1.23755293E+01  1.23755293E+01 -2.47510585E+01  0.00000000E+00
  1.23755293E+01  1.23755293E+01 -2.47510585E+01  0.00000000E+00  1.23755293E+01
  1.23755293E+01 -2.47510585E+01  0.00000000E+00  1.23755293E+01  1.23755293E+01
 -2.47510585E+01  0.00000000E+00  1.23755293E+01  1.23755293E+01 -2.47510585E+01
  0.00000000E+00  1.23755293E+01  1.23755293E+01 -2.47510585E+01  0.00000000E+00
  1.23755293E+01  1.23755293E+01 -2.47510585E+01  0.00000000E+00  1.23755293E+01
  1.23755293E+01 -2.47510585E+01  0.00000000E+00  1.23755293E+01  1.23755293E+01
 -2.47510585E+01  0.00000000E+00  1.23755293E+01  1.23755293E+01 -2.47510585E+01
  0.00000000E+00  1.23755293E+01  1.23755293E+01 -2.47510585E+01  0.00000000E+00
  1.23755293E+01  1.23755293E+01 -2.47510585E+01  0.00000000E+00  1.23755293E+01
  1.23755293E+01 -2.47510585E+01  0.00000000E+00  1.23755293E+01  1.23755293E+01
 -2.47510585E+01  0.00000000E+00  1.23755293E+01  1.23755293E+01 -2.47510585E+01
  0.00000000E+00  1.23755293E+01  1.23755293E+01 -2.47510585E+01  0.00000000E+00
  1.23755293E+01  1.23755293E+01 -2.47510585E+01  0.00000000E+00  1.23755293E+01
  1.23755293E+01 -2.47510585E+01  0.00000000E+00  1.23755293E+01  1.23755293E+01
 -2.47510585E+01  0.00000000E+00  1.23755293E+01  1.23755293E+01 -2.47510585E+01
  0.00000000E+00  1.23755293E+01  1.23755293E+01 -2.47510585E+01  0.00000000E+00
  1.23755293E+01  1.23755293E+01 -2.47510585E+01  0.00000000E+00  1.23755293E+01
  1.23755293E+01 -2.47510585E+01  0.00000000E+00  1.23755293E+01  1.23755293E+01
 -2.47510585E+01  0.00000000E+00  1.23755293E+01  1.23755293E+01 -2.47510585E+01
  0.00000000E+00  1.23755293E+01  1.23755293E+01 -2.47510585E+01  0.00000000E+00
  1.23755293E+01  1.23755293E+01 -2.47510585E+01  0.00000000E+00  1.23755293E+01
  1.23755293E+01 -2.47510585E+01  0.00000000E+00  1.23755293E+01  1.23755293E+01
 -2.47510585E+01  0.00000000E+00  1.23755293E+01  1.23755293E+01 -2.47510585E+01
  0.00000000E+00  1.23755293E+01  1.23755293E+01 -2.47510585E+01  0.00000000E+00
  1.23755293E+01  1.23755293E+01 -2.47510585E+01  0.00000000E+00  1.23755293E+01
  1.23755293E+01 -2.47510585E+01  0.00000000E+00  1.23755293E+01  1.23755293E+01
 -2.47510585E+01  0.00000000E+00  1.23755293E+01  1.23755293E+01 -2.47510585E+01
  0.00000000E+00  1.23755293E+01  1.23755293E+01 -2.47510585E+01  0.00000000E+00
  1.23755293E+01  1.23755293E+01 -2.47510585E+01  0.00000000E+00  1.23755293E+01
  1.23755293E+01 -2.47510585E+01  0.00000000E+00  1.23755293E+01  1.23755293E+01
 -2.47510585E+01  0.00000000E+00  1.23755293E+01  1.23755293E+01 -2.47510585E+01
  0.00000000E+00  1.23755293E+01  1.23755293E+01 -2.47510585E+01  0.00000000E+00
  1.23755293E+01  1.23755293E+01 -2.47510585E+01  0.00000000E+00  1.23755293E+01
  1.23755293E+01 -2.47510585E+01  0.00000000E+00  1.23755293E+01  1.23755293E+01
 -2.47510585E+01  0.00000000E+00  1.23755293E+01  1.23755293E+01 -2.47510585E+01
  0.00000000E+00  1.23755293E+01  1.23755293E+01 -2.47510585E+01  0.00000000E+00
  1.23755293E+01  1.23755293E+01 -2.47510585E+01  0.00000000E+00  1.23755293E+01
  1.23755293E+01 -2.47510585E+01  0.00000000E+00  1.23755293E+01  1.23755293E+01
 -2.47510585E+01  0.00000000E+00  1.23755293E+01  1.23755293E+01 -2.47510585E+01
  0.00000000E+00  1.23755293E+01  1.23755293E+01 -2.47510585E+01  0.00000000E+00
  1.23755293E+01  1.23755293E+01 -2.47510585E+01  0.00000000E+00  1.23755293E+01
  1.23755293E+01 -2.47510585E+01  0.00000000E+00  1.23755293E+01  1.23755293E+01
 -2.47510585E+01  0.00000000E+00  1.23755293E+01  1.23755293E+01 -2.47510585E+01
  0.00000000E+00  1.23755293E+01  1.23755293E+01 -2.47510585E+01  0.00000000E+00
  1.23755293E+01  1.23755293E+01 -2.47510585E+01  0.00000000E+00  1.23755293E+01
  1.23755293E+01 -2.47510585E+01  0.00000000E+00  1.23755293E+01  1.23755293E+01
 -2.47510585E+01  0.00000000E+00  1.23755293E+01  1.23755293E+01 -2.47510585E+01
  0.00000000E+00  1.23755293E+01  1.23755293E+01 -2.47510585E+01  0.00000000E+00
  1.23755293E+01  1.23755293E+01 -2.47510585E+01  0.00000000E+00  1.23755293E+01
  1.23755293E+01 -2.47510585E+01  0.00000000E+00  1.23755293E+01  1.23755293E+01
 -2.47510585E+01  0.00000000E+00  1.23755293E+01  1.23755293E+01 -2.47510585E+01
  0.00000000E+00  1.23755293E+01  1.23755293E+01 -2.47510585E+01  0.00000000E+00
  1.23755293E+01  1.23755293E+01 -2.47510585E+01  0.00000000E+00  1.23755293E+01
  1.23755293E+01 -2.47510585E+01  0.00000000E+00  1.23755293E+01  1.23755293E+01
 -2.47510585E+01  0.00000000E+00  1.23755293E+01  1.23755293E+01 -2.47510585E+01
  0.00000000E+00  1.23755293E+01  1.23755293E+01 -2.47510585E+01  0.00000000E+00
  1.23755293E+01  1.23755293E+01 -2.47510585E+01  0.00000000E+00  1.23755293E+01
  1.23755293E+01 -2.47510585E+01  0.00000000E+00  1.23755293E+01  1.23755293E+01
 -2.47510585E+01  0.00000000E+00  1.23755293E+01  1.23755293E+01 -2.47510585E+01
  0.00000000E+00  1.23755293E+01  1.23755293E+01 -2.47510585E+01  0.00000000E+00
  1.23755293E+01  1.23755293E+01 -2.47510585E+01  0.00000000E+00  1.23755293E+01
  1.23755293E+01 -2.47510585E+01  0.00000000E+00  1.23755293E+01  1.23755293E+01
 -2.47510585E+01  0.00000000E+00  1.23755293E+01  1.23755293E+01 -2.47510585E+01
  0.00000000E+00  1.23755293E+01  1.23755293E+01 -2.47510585E+01  0.00000000E+00
  1.23755293E+01  1.23755293E+01 -2.47510585E+01  0.00000000E+00  1.23755293E+01
  1.23755293E+01 -2.47510585E+01  0.00000000E+00  1.23755293E+01  1.23755293E+01
 -2.47510585E+01  0.00000000E+00  1.23755293E+01  1.23755293E+01 -2.47510585E+01
  0.00000000E+00  1.23755293E+01  1.23755293E+01 -2.47510585E+01  0.00000000E+00
  1.23755293E+01  1.23755293E+01 -2.47510585E+01  0.00000000E+00  1.23755293E+01
  1.23755293E+01 -2.47510585E+01  0.00000000E+00  1.23755293E+01  1.23755293E+01
 -2.47510585E+01  0.00000000E+00  1.23755293E+01  1.23755293E+01 -2.47510585E+01
  0.00000000E+00  1.23755293E+01  1.23755293E+01 -2.47510585E+01  0.00000000E+00
  1.23755293E+01  1.23755293E+01 -2.47510585E+01  0.00000000E+00  1.23755293E+01
  1.23755293E+01 -2.47510585E+01  0.00000000E+00  1.23755293E+01  1.23755293E+01
 -2.47510585E+01  0.00000000E+00  1.23755293E+01  1.23755293E+01 -2.47510585E+01
  0.00000000E+00  1.23755293E+01  1.23755293E+01 -2.47510585E+01  0.00000000E+00
  1.23755293E+01  1.23755293E+01 -2.47510585E+01  0.00000000E+00  1.23755293E+01
  1.23755293E+01 -2.47510585E+01  0.00000000E+00  1.23755293E+01  1.23755293E+01
 -2.47510585E+01  0.00000000E+00  1.23755293E+01  1.23755293E+01 -2.47510585E+01
  0.00000000E+00  1.23755293E+01  1.23755293E+01 -2.47510585E+01  0.00000000E+00
  1.23755293E+01  1.23755293E+01 -2.47510585E+01  0.00000000E+00  1.23755293E+01
  1.23755293E+01 -2.47510585E+01  0.00000000E+00  1.23755293E+01  1.23755293E+01
 -2.47510585E+01  0.00000000E+00  1.23755293E+01  1.23755293E+01 -2.47510585E+01
  0.00000000E+00  1.23755293E+01  1.23755293E+01 -2.47510585E+01  0.00000000E+00
  1.23755293E+01  1.23755293E+01 -2.47510585E+01  0.00000000E+00  1.23755293E+01
  1.23755293E+01 -2.47510585E+01  0.00000000E+00  1.23755293E+01  1.23755293E+01
 -2.47510585E+01  0.00000000E+00  1.23755293E+01  1.23755293E+01 -2.47510585E+01
  0.00000000E+00  1.23755293E+01  1.23755293E+01 -2.47510585E+01  0.00000000E+00
  1.23755293E+01  1.23755293E+01 -2.47510585E+01  0.00000000E+00  1.23755293E+01
  1.23755293E+01 -2.47510585E+01  0.00000000E+00  1.23755293E+01  1.23755293E+01
 -2.47510585E+01  0.00000000E+00  1.23755293E+01  1.23755293E+01 -2.47510585E+01
  0.00000000E+00  1.23755293E+01  1.23755293E+01 -2.47510585E+01  0.00000000E+00
  1.23755293E+01  1.23755293E+01 -2.47510585E+01  0.00000000E+00  1.23755293E+01
  1.23755293E+01 -2.47510585E+01  0.00000000E+00  1.23755293E+01  1.23755293E+01
 -2.47510585E+01  0.00000000E+00  1.23755293E+01  1.23755293E+01 -2.47510585E+01
  0.00000000E+00  1.23755293E+01  1.23755293E+01 -2.47510585E+01  0.00000000E+00
  1.23755293E+01  1.23755293E+01 -2.47510585E+01  0.00000000E+00  1.23755293E+01
  1.23755293E+01 -2.47510585E+01  0.00000000E+00  1.23755293E+01  1.23755293E+01
 -2.47510585E+01  0.00000000E+00  1.23755293E+01  1.23755293E+01 -2.47510585E+01
  0.00000000E+00  1.23755293E+01  1.23755293E+01 -2.47510585E+01  0.00000000E+00
  1.23755293E+01  1.23755293E+01 -2.47510585E+01  0.00000000E+00  1.23755293E+01
  1.23755293E+01 -2.47510585E+01  0.00000000E+00  1.23755293E+01  1.23755293E+01
 -2.47510585E+01  0.00000000E+00  1.23755293E+01  1.23755293E+01 -2.47510585E+01
  0.00000000E+00  1.23755293E+01  1.23755293E+01 -2.47510585E+01  0.00000000E+00
  1.23755293E+01  1.23755293E+01 -2.47510585E+01  0.00000000E+00  1.23755293E+01
  1.23755293E+01 -2.47510585E+01  0.00000000E+00  1.23755293E+01  1.23755293E+01
 -2.47510585E+01  0.00000000E+00  1.23755293E+01  1.23755293E+01 -2.47510585E+01
  0.00000000E+00  1.23755293E+01  1.23755293E+01 -2.47510585E+01  0.00000000E+00
  1.23755293E+01  1.23755293E+01 -2.47510585E+01  0.00000000E+00  1.23755293E+01
  1.23755293E+01 -2.47510585E+01  0.00000000E+00  1.23755293E+01  1.23755293E+01
 -2.47510585E+01  0.00000000E+00  1.23755293E+01  1.23755293E+01 -2.47510585E+01
  0.00000000E+00  1.23755293E+01  1.23755293E+01 -2.47510585E+01  0.00000000E+00
  1.23755293E+01  1.23755293E+01 -2.47510585E+01  0.00000000E+00  1.23755293E+01
  1.23755293E+01 -2.47510585E+01  0.00000000E+00  1.23755293E+01  1.23755293E+01
 -2.47510585E+01  0.00000000E+00  1.23755293E+01  1.23755293E+01 -2.47510585E+01
  0.00000000E+00  1.23755293E+01  1.23755293E+01 -2.47510585E+01  0.00000000E+00
  1.23755293E+01  1.23755293E+01 -2.47510585E+01  0.00000000E+00  1.23755293E+01
  1.23755293E+01 -2.47510585E+01  0.00000000E+00  1.23755293E+01  1.23755293E+01
 -2.47510585E+01  0.00000000E+00  1.23755293E+01  1.23755293E+01 -2.47510585E+01
  0.00000000E+00  1.23755293E+01  1.23755293E+01 -2.47510585E+01  0.00000000E+00
  1.23755293E+01  1.23755293E+01 -2.47510585E+01  0.00000000E+00  1.23755293E+01
  1.23755293E+01 -2.47510585E+01  0.00000000E+00  1.23755293E+01  1.23755293E+01
 -2.47510585E+01  0.00000000E+00  1.23755293E+01  1.23755293E+01 -2.47510585E+01
  0.00000000E+00  1.23755293E+01  1.23755293E+01 -2.47510585E+01  0.00000000E+00
  1.23755293E+01  1.23755293E+01 -2.47510585E+01  0.00000000E+00  1.23755293E+01
  1.23755293E+01 -2.47510585E+01  0.00000000E+00  1.23755293E+01  1.23755293E+01
 -2.47510585E+01  0.00000000E+00  1.23755293E+01  1.23755293E+01 -2.47510585E+01
  0.00000000E+00  1.23755293E+01  1.23755293E+01 -2.47510585E+01  0.00000000E+00
  1.23755293E+01  1.23755293E+01 -2.47510585E+01  0.00000000E+00  1.23755293E+01
  1.23755293E+01 -2.47510585E+01  0.00000000E+00  1.23755293E+01  1.23755293E+01
 -2.47510585E+01  0.00000000E+00  1.23755293E+01  1.23755293E+01 -2.47510585E+01
  0.00000000E+00  1.23755293E+01  1.23755293E+01 -2.47510585E+01  0.00000000E+00
  1.23755293E+01  1.23755293E+01 -2.47510585E+01  0.00000000E+00  1.23755293E+01
  1.23755293E+01 -2.47510585E+01  0.00000000E+00  1.23755293E+01  1.23755293E+01
 -2.47510585E+01  0.00000000E+00  1.23755293E+01  1.23755293E+01 -2.47510585E+01
  0.00000000E+00  1.23755293E+01  1.23755293E+01 -2.47510585E+01  0.00000000E+00
  1.23755293E+01  1.23755293E+01 -2.47510585E+01  0.00000000E+00  1.23755293E+01
  1.23755293E+01 -2.47510585E+01  0.00000000E+00  1.23755293E+01  1.23755293E+01
 -2.47510585E+01  0.00000000E+00  1.23755293E+01  1.23755293E+01 -2.47510585E+01
  0.00000000E+00  1.23755293E+01  1.23755293E+01 -2.47510585E+01  0.00000000E+00
  1.23755293E+01  1.23755293E+01 -2.47510585E+01  0.00000000E+00  1.23755293E+01
  1.23755293E+01 -2.47510585E+01  0.00000000E+00  1.23755293E+01  1.23755293E+01
 -2.47510585E+01  0.00000000E+00  1.23755293E+01  1.23755293E+01 -2.47510585E+01
  0.00000000E+00  1.23755293E+01  1.23755293E+01 -2.47510585E+01  0.00000000E+00
  1.23755293E+01  1.23755293E+01 -2.47510585E+01  0.00000000E+00  1.23755293E+01
  1.23755293E+01 -2.47510585E+01  0.00000000E+00  1.23755293E+01  1.23755293E+01
 -2.47510585E+01  0.00000000E+00  1.23755293E+01  1.23755293E+01 -2.47510585E+01
  0.00000000E+00  1.23755293E+01  1.23755293E+01 -2.47510585E+01  0.00000000E+00
  1.23755293E+01  1.23755293E+01 -2.47510585E+01  0.00000000E+00  1.23755293E+01
  1.23755293E+01 -2.47510585E+01  0.00000000E+00  1.23755293E+01  1.23755293E+01
 -2.47510585E+01  0.00000000E+00  1.23755293E+01  1.23755293E+01 -2.47510585E+01
  0.00000000E+00  1.23755293E+01  1.23755293E+01 -2.47510585E+01  0.00000000E+00
  1.23755293E+01  1.23755293E+01 -2.47510585E+01  0.00000000E+00  1.23755293E+01
  1.23755293E+01 -2.47510585E+01  0.00000000E+00  1.23755293E+01  1.23755293E+01
 -2.47510585E+01  0.00000000E+00  1.23755293E+01  1.23755293E+01 -2.47510585E+01
  0.00000000E+00  1.23755293E+01  1.23755293E+01 -2.47510585E+01  0.00000000E+00
  1.23755293E+01  1.23755293E+01 -2.47510585E+01  0.00000000E+00  1.23755293E+01
  1.23755293E+01 -2.47510585E+01  0.00000000E+00  1.23755293E+01  1.23755293E+01
 -2.47510585E+01  0.00000000E+00  1.23755293E+01  1.23755293E+01 -2.47510585E+01
  0.00000000E+00  1.23755293E+01  1.23755293E+01 -2.47510585E+01  0.00000000E+00
  1.23755293E+01  1.23755293E+01 -2.47510585E+01  0.00000000E+00  1.23755293E+01
  1.23755293E+01 -2.47510585E+01  0.00000000E+00  1.23755293E+01  1.23755293E+01
 -2.47510585E+01  0.00000000E+00  1.23755293E+01  1.23755293E+01 -2.47510585E+01
  0.00000000E+00  1.23755293E+01  1.23755293E+01 -2.47510585E+01  0.00000000E+00
  1.23755293E+01  1.23755293E+01 -2.47510585E+01  0.00000000E+00  1.23755293E+01
  1.23755293E+01 -2.47510585E+01  0.00000000E+00  1.23755293E+01  1.23755293E+01
 -2.47510585E+01  0.00000000E+00  1.23755293E+01  1.23755293E+01 -2.47510585E+01
  0.00000000E+00  1.23755293E+01  1.23755293E+01 -2.47510585E+01  0.00000000E+00
  1.23755293E+01  1.23755293E+01 -2.47510585E+01  0.00000000E+00  1.23755293E+01
  1.23755293E+01 -2.47510585E+01  0.00000000E+00  1.23755293E+01  1.23755293E+01
 -2.47510585E+01  0.00000000E+00  1.23755293E+01  1.23755293E+01 -2.47510585E+01
  0.00000000E+00  1.23755293E+01  1.23755293E+01 -2.47510585E+01  0.00000000E+00
  1.23755293E+01  1.23755293E+01 -2.47510585E+01  0.00000000E+00  1.23755293E+01
  1.23755293E+01 -2.47510585E+01  0.00000000E+00  1.23755293E+01  1.23755293E+01
 -2.47510585E+01  0.00000000E+00  1.23755293E+01  1.23755293E+01 -2.47510585E+01
  0.00000000E+00  1.23755293E+01  1.23755293E+01 -2.47510585E+01  0.00000000E+00
  1.23755293E+01  1.23755293E+01 -2.47510585E+01  0.00000000E+00  1.23755293E+01
  1.23755293E+01 -2.47510585E+01  0.00000000E+00  1.23755293E+01  1.23755293E+01
 -2.47510585E+01  0.00000000E+00  1.23755293E+01  1.23755293E+01 -2.47510585E+01
  0.00000000E+00  1.23755293E+01  1.23755293E+01 -2.47510585E+01  0.00000000E+00
  1.23755293E+01  1.23755293E+01 -2.47510585E+01  0.00000000E+00  1.23755293E+01
  1.23755293E+01 -2.47510585E+01  0.00000000E+00  1.23755293E+01  1.23755293E+01
 -2.47510585E+01  0.00000000E+00  1.23755293E+01  1.23755293E+01 -2.47510585E+01
  0.00000000E+00  1.23755293E+01  1.23755293E+01 -2.47510585E+01  0.00000000E+00
  1.23755293E+01  1.23755293E+01 -2.47510585E+01  0.00000000E+00  1.23755293E+01
  1.23755293E+01 -2.47510585E+01  0.00000000E+00  1.23755293E+01  1.23755293E+01
 -2.47510585E+01  0.00000000E+00  1.23755293E+01  1.23755293E+01 -2.47510585E+01
  0.00000000E+00  1.23755293E+01  1.23755293E+01 -2.47510585E+01  0.00000000E+00
  1.23755293E+01  1.23755293E+01 -2.47510585E+01  0.00000000E+00  1.23755293E+01
  1.23755293E+01 -2.47510585E+01  0.00000000E+00  1.23755293E+01  1.23755293E+01
 -2.47510585E+01  0.00000000E+00  1.23755293E+01  1.23755293E+01 -2.47510585E+01
  0.00000000E+00  1.23755293E+01  1.23755293E+01 -2.47510585E+01  0.00000000E+00
  1.23755293E+01  1.23755293E+01 -2.47510585E+01  0.00000000E+00  1.23755293E+01
  1.23755293E+01 -2.47510585E+01  0.00000000E+00  1.23755293E+01  1.23755293E+01
 -2.47510585E+01  0.00000000E+00  1.23755293E+01  1.23755293E+01 -2.47510585E+01
  0.00000000E+00  1.23755293E+01  1.23755293E+01 -2.47510585E+01  0.00000000E+00
  1.23755293E+01  1.23755293E+01 -2.47510585E+01  0.00000000E+00  1.23755293E+01
  1.23755293E+01 -2.47510585E+01  0.00000000E+00  1.23755293E+01  1.23755293E+01
 -2.47510585E+01  0.00000000E+00  1.23755293E+01  1.23755293E+01 -2.47510585E+01
  0.00000000E+00  1.23755293E+01  1.23755293E+01 -2.47510585E+01  0.00000000E+00
  1.23755293E+01  1.23755293E+01 -2.47510585E+01  0.00000000E+00  1.23755293E+01
  1.23755293E+01 -2.47510585E+01  0.00000000E+00  1.23755293E+01  1.23755293E+01
 -2.47510585E+01  0.00000000E+00  1.23755293E+01  1.23755293E+01 -2.47510585E+01
  0.00000000E+00  1.23755293E+01  1.23755293E+01 -2.47510585E+01  0.00000000E+00
  1.23755293E+01  1.23755293E+01 -2.47510585E+01  0.00000000E+00  1.23755293E+01
  1.23755293E+01 -2.47510585E+01  0.00000000E+00  1.23755293E+01  1.23755293E+01
 -2.47510585E+01  0.00000000E+00  1.23755293E+01  1.23755293E+01 -2.47510585E+01
  0.00000000E+00  1.23755293E+01  1.23755293E+01 -2.47510585E+01  0.00000000E+00
  1.23755293E+01  1.23755293E+01 -2.47510585E+01  0.00000000E+00  1.23755293E+01
  1.23755293E+01 -2.47510585E+01  0.00000000E+00  1.23755293E+01  1.23755293E+01
 -2.47510585E+01  0.00000000E+00  1.23755293E+01  1.23755293E+01 -2.47510585E+01
  0.00000000E+00  1.23755293E+01  1.23755293E+01 -2.47510585E+01  0.00000000E+00
  1.23755293E+01  1.23755293E+01 -2.47510585E+01  0.00000000E+00  1.23755293E+01
  1.23755293E+01 -2.47510585E+01  0.00000000E+00  1.23755293E+01  1.23755293E+01
 -2.47510585E+01  0.00000000E+00  1.23755293E+01  1.23755293E+01 -2.47510585E+01
  0.00000000E+00  1.23755293E+01  1.23755293E+01 -2.47510585E+01  0.00000000E+00
  1.23755293E+01  1.23755293E+01 -2.47510585E+01  0.00000000E+00  1.23755293E+01
  1.23755293E+01 -2.47510585E+01  0.00000000E+00  1.23755293E+01  1.23755293E+01
 -2.47510585E+01  0.00000000E+00  1.23755293E+01  1.23755293E+01 -2.47510585E+01
  0.00000000E+00  1.23755293E+01  1.23755293E+01 -2.47510585E+01  0.00000000E+00
  1.23755293E+01  1.23755293E+01 -2.47510585E+01  0.00000000E+00  1.23755293E+01
  1.23755293E+01 -2.47510585E+01  0.00000000E+00  1.23755293E+01  1.23755293E+01
 -2.47510585E+01  0.00000000E+00  1.23755293E+01  1.23755293E+01 -2.47510585E+01
  0.00000000E+00  1.23755293E+01  1.23755293E+01 -2.47510585E+01  0.00000000E+00
  1.23755293E+01  1.23755293E+01 -2.47510585E+01  0.00000000E+00  1.23755293E+01
  1.23755293E+01 -2.47510585E+01  0.00000000E+00  1.23755293E+01  1.23755293E+01
 -2.47510585E+01  0.00000000E+00  1.23755293E+01  1.23755293E+01 -2.47510585E+01
  0.00000000E+00  1.23755293E+01  1.23755293E+01 -2.47510585E+01  0.00000000E+00
  1.23755293E+01  1.23755293E+01 -2.47510585E+01  0.00000000E+00  1.23755293E+01
  1.23755293E+01 -2.47510585E+01  0.00000000E+00  1.23755293E+01  1.23755293E+01
 -2.47510585E+01  0.00000000E+00  1.23755293E+01  1.23755293E+01 -2.47510585E+01
  0.00000000E+00  1.23755293E+01  1.23755293E+01 -2.47510585E+01  0.00000000E+00
  1.23755293E+01  1.23755293E+01 -2.47510585E+01  0.00000000E+00  1.23755293E+01
  1.23755293E+01 -2.47510585E+01  0.00000000E+00  1.23755293E+01  1.23755293E+01
 -2.47510585E+01  0.00000000E+00  1.23755293E+01  1.23755293E+01 -2.47510585E+01
  0.00000000E+00  1.23755293E+01  1.23755293E+01 -2.47510585E+01  0.00000000E+00
  1.23755293E+01  1.23755293E+01 -2.47510585E+01  0.00000000E+00  1.23755293E+01
  1.23755293E+01 -2.47510585E+01  0.00000000E+00  1.23755293E+01  1.23755293E+01
 -2.47510585E+01  0.00000000E+00  1.23755293E+01  1.23755293E+01 -2.47510585E+01
  0.00000000E+00  1.23755293E+01  1.23755293E+01 -2.47510585E+01  0.00000000E+00
  1.23755293E+01  1.23755293E+01 -2.47510585E+01  0.00000000E+00  1.23755293E+01
  1.23755293E+01 -2.47510585E+01  0.00000000E+00  1.23755293E+01  1.23755293E+01
 -2.47510585E+01  0.00000000E+00  1.23755293E+01  1.23755293E+01 -2.47510585E+01
  0.00000000E+00  1.23755293E+01  1.23755293E+01 -2.47510585E+01  0.00000000E+00
  1.23755293E+01  1.23755293E+01 -2.47510585E+01  0.00000000E+00  1.23755293E+01
  1.23755293E+01 -2.47510585E+01  0.00000000E+00  1.23755293E+01  1.23755293E+01
 -2.47510585E+01  0.00000000E+00  1.23755293E+01  1.23755293E+01 -2.47510585E+01
  0.00000000E+00  1.23755293E+01  1.23755293E+01 -2.47510585E+01  0.00000000E+00
  1.23755293E+01  1.23755293E+01 -2.47510585E+01  0.00000000E+00  1.23755293E+01
  1.23755293E+01 -2.47510585E+01  0.00000000E+00  1.23755293E+01  1.23755293E+01
 -2.47510585E+01  0.00000000E+00  1.23755293E+01  1.23755293E+01 -2.47510585E+01
  0.00000000E+00  1.23755293E+01  1.23755293E+01 -2.47510585E+01  0.00000000E+00
  1.23755293E+01  1.23755293E+01 -2.47510585E+01  0.00000000E+00  1.23755293E+01
  1.23755293E+01 -2.47510585E+01  0.00000000E+00  1.23755293E+01  1.23755293E+01
 -2.47510585E+01  0.00000000E+00  1.23755293E+01  1.23755293E+01 -2.47510585E+01
  0.00000000E+00  1.23755293E+01  1.23755293E+01 -2.47510585E+01  0.00000000E+00
  1.23755293E+01  1.23755293E+01 -2.47510585E+01  0.00000000E+00  1.23755293E+01
  1.23755293E+01 -2.47510585E+01  0.00000000E+00  1.23755293E+01  1.23755293E+01
 -2.47510585E+01  0.00000000E+00  1.23755293E+01  1.23755293E+01 -2.47510585E+01
  0.00000000E+00  1.23755293E+01  1.23755293E+01 -2.47510585E+01  0.00000000E+00
  1.23755293E+01  1.23755293E+01 -2.47510585E+01  0.00000000E+00  1.23755293E+01
  1.23755293E+01 -2.47510585E+01  0.00000000E+00  1.23755293E+01  1.23755293E+01
 -2.47510585E+01  0.00000000E+00  1.23755293E+01  1.23755293E+01 -2.47510585E+01
  0.00000000E+00  1.23755293E+01  1.23755293E+01 -2.47510585E+01  0.00000000E+00
  1.23755293E+01  1.23755293E+01 -2.47510585E+01  0.00000000E+00  1.23755293E+01
  1.23755293E+01 -2.47510585E+01  0.00000000E+00  1.23755293E+01  1.23755293E+01
 -2.47510585E+01  0.00000000E+00  1.23755293E+01  1.23755293E+01 -2.47510585E+01
  0.00000000E+00  1.23755293E+01  1.23755293E+01 -2.47510585E+01  0.00000000E+00
  1.23755293E+01  1.23755293E+01 -2.47510585E+01  0.00000000E+00  1.23755293E+01
  1.23755293E+01 -2.47510585E+01  0.00000000E+00  1.23755293E+01  1.23755293E+01
 -2.47510585E+01  0.00000000E+00  1.23755293E+01  1.23755293E+01 -2.47510585E+01
  0.00000000E+00  1.23755293E+01  1.23755293E+01 -2.47510585E+01  0.00000000E+00
  1.23755293E+01  1.23755293E+01 -2.47510585E+01  0.00000000E+00  1.23755293E+01
  1.23755293E+01 -2.47510585E+01  0.00000000E+00  1.23755293E+01  1.23755293E+01
 -2.47510585E+01  0.00000000E+00  1.23755293E+01  1.23755293E+01 -2.47510585E+01
  0.00000000E+00  1.23755293E+01  1.23755293E+01 -2.47510585E+01  0.00000000E+00
  1.23755293E+01  1.23755293E+01 -2.47510585E+01  0.00000000E+00  1.23755293E+01
  1.23755293E+01 -2.47510585E+01  0.00000000E+00  1.23755293E+01  1.23755293E+01
 -2.47510585E+01  0.00000000E+00  1.23755293E+01  1.23755293E+01 -2.47510585E+01
  0.00000000E+00  1.23755293E+01  1.23755293E+01 -2.47510585E+01  0.00000000E+00
  1.23755293E+01  1.23755293E+01 -2.47510585E+01  0.00000000E+00  1.23755293E+01
  1.23755293E+01 -2.47510585E+01  0.00000000E+00  1.23755293E+01  1.23755293E+01
 -2.47510585E+01  0.00000000E+00  1.23755293E+01  1.23755293E+01 -2.47510585E+01
  0.00000000E+00  1.23755293E+01  1.23755293E+01 -2.47510585E+01  0.00000000E+00
  1.23755293E+01  1.23755293E+01 -2.47510585E+01  0.00000000E+00  1.23755293E+01
  1.23755293E+01 -2.47510585E+01  0.00000000E+00  1.23755293E+01  1.23755293E+01
 -2.47510585E+01  0.00000000E+00  1.23755293E+01  1.23755293E+01 -2.47510585E+01
  0.00000000E+00  1.23755293E+01  1.23755293E+01 -2.47510585E+01  0.00000000E+00
  1.23755293E+01  1.23755293E+01 -2.47510585E+01  0.00000000E+00  1.23755293E+01
  1.23755293E+01 -2.47510585E+01  0.00000000E+00  1.23755293E+01  1.23755293E+01
 -2.47510585E+01  0.00000000E+00  1.23755293E+01  1.23755293E+01 -2.47510585E+01
  0.00000000E+00  1.23755293E+01  1.23755293E+01 -2.47510585E+01  0.00000000E+00
  1.23755293E+01  1.23755293E+01 -2.47510585E+01  0.00000000E+00  1.23755293E+01
  1.23755293E+01 -2.47510585E+01  0.00000000E+00  1.23755293E+01  1.23755293E+01
 -2.47510585E+01  0.00000000E+00  1.23755293E+01  1.23755293E+01 -2.47510585E+01
  0.00000000E+00  1.23755293E+01  1.23755293E+01 -2.47510585E+01  0.00000000E+00
  1.23755293E+01  1.23755293E+01 -2.47510585E+01  0.00000000E+00  1.23755293E+01
  1.23755293E+01 -2.47510585E+01  0.00000000E+00  1.23755293E+01  1.23755293E+01
 -2.47510585E+01  0.00000000E+00  1.23755293E+01  1.23755293E+01 -2.47510585E+01
  0.00000000E+00  1.23755293E+01  1.23755293E+01 -2.47510585E+01  0.00000000E+00
  1.23755293E+01  1.23755293E+01 -2.47510585E+01  0.00000000E+00  1.23755293E+01
  1.23755293E+01 -2.47510585E+01  0.00000000E+00  1.23755293E+01  1.23755293E+01
 -2.47510585E+01  0.00000000E+00  1.23755293E+01  1.23755293E+01 -2.47510585E+01
  0.00000000E+00  1.23755293E+01  1.23755293E+01 -2.47510585E+01  0.00000000E+00
  1.23755293E+01  1.23755293E+01 -2.47510585E+01  0.00000000E+00  1.23755293E+01
  1.23755293E+01 -2.47510585E+01  0.00000000E+00  1.23755293E+01  1.23755293E+01
 -2.47510585E+01  0.00000000E+00  1.23755293E+01  1.23755293E+01 -2.47510585E+01
  0.00000000E+00  1.23755293E+01  1.23755293E+01 -2.47510585E+01  0.00000000E+00
  1.23755293E+01  1.23755293E+01 -2.47510585E+01  0.00000000E+00  1.23755293E+01
  1.23755293E+01 -2.47510585E+01  0.00000000E+00  1.23755293E+01  1.23755293E+01
 -2.47510585E+01  0.00000000E+00  1.23755293E+01  1.23755293E+01 -2.47510585E+01
  0.00000000E+00  1.23755293E+01  1.23755293E+01 -2.47510585E+01  0.00000000E+00
  1.23755293E+01  1.23755293E+01 -2.47510585E+01  0.00000000E+00  1.23755293E+01
  1.23755293E+01 -2.47510585E+01  0.00000000E+00  1.23755293E+01  1.23755293E+01
 -2.47510585E+01  0.00000000E+00  1.23755293E+01  1.23755293E+01 -2.47510585E+01
  0.00000000E+00  1.23755293E+01  1.23755293E+01 -2.47510585E+01  0.00000000E+00
  1.23755293E+01  1.23755293E+01 -2.47510585E+01  0.00000000E+00  1.23755293E+01
  1.23755293E+01 -2.47510585E+01  0.00000000E+00  1.23755293E+01  1.23755293E+01
 -2.47510585E+01  0.00000000E+00  1.23755293E+01  1.23755293E+01 -2.47510585E+01
  0.00000000E+00  1.23755293E+01  1.23755293E+01 -2.47510585E+01  0.00000000E+00
  1.23755293E+01  1.23755293E+01 -2.47510585E+01  0.00000000E+00  1.23755293E+01
  1.23755293E+01 -2.47510585E+01  0.00000000E+00  1.23755293E+01  1.23755293E+01
 -2.47510585E+01  0.00000000E+00  1.23755293E+01  1.23755293E+01 -2.47510585E+01
  0.00000000E+00  1.23755293E+01  1.23755293E+01 -2.47510585E+01  0.00000000E+00
  1.23755293E+01  1.23755293E+01 -2.47510585E+01  0.00000000E+00  1.23755293E+01
  1.23755293E+01 -2.47510585E+01  0.00000000E+00  1.23755293E+01  1.23755293E+01
 -2.47510585E+01  0.00000000E+00  1.23755293E+01  1.23755293E+01 -2.47510585E+01
  0.00000000E+00  1.23755293E+01  1.23755293E+01 -2.47510585E+01  0.00000000E+00
  1.23755293E+01  1.23755293E+01 -2.47510585E+01  0.00000000E+00  1.23755293E+01
  1.23755293E+01 -2.47510585E+01  0.00000000E+00  1.23755293E+01  1.23755293E+01
 -2.47510585E+01  0.00000000E+00  1.23755293E+01  1.23755293E+01 -2.47510585E+01
  0.00000000E+00  1.23755293E+01  1.23755293E+01 -2.47510585E+01  0.00000000E+00
  1.23755293E+01  1.23755293E+01 -2.47510585E+01  0.00000000E+00  1.23755293E+01
  1.23755293E+01 -2.47510585E+01  0.00000000E+00  1.23755293E+01  1.23755293E+01
 -2.47510585E+01  0.00000000E+00  1.23755293E+01  1.23755293E+01 -2.47510585E+01
  0.00000000E+00  1.23755293E+01  1.23755293E+01 -2.47510585E+01  0.00000000E+00
  1.23755293E+01  1.23755293E+01 -2.47510585E+01  0.00000000E+00  1.23755293E+01
  1.23755293E+01 -2.47510585E+01  0.00000000E+00  1.23755293E+01  1.23755293E+01
 -2.47510585E+01  0.00000000E+00  1.23755293E+01  1.23755293E+01 -2.47510585E+01
  0.00000000E+00  1.23755293E+01  1.23755293E+01 -2.47510585E+01  0.00000000E+00
  1.23755293E+01  1.23755293E+01 -2.47510585E+01  0.00000000E+00  1.23755293E+01
  1.23755293E+01 -2.47510585E+01  0.00000000E+00  1.23755293E+01  1.23755293E+01
 -2.47510585E+01  0.00000000E+00  1.23755293E+01  1.23755293E+01 -2.47510585E+01
  0.00000000E+00  1.23755293E+01  1.23755293E+01 -2.47510585E+01  0.00000000E+00
  1.23755293E+01  1.23755293E+01 -2.47510585E+01  0.00000000E+00  1.23755293E+01
  1.23755293E+01 -2.47510585E+01  0.00000000E+00  1.23755293E+01  1.23755293E+01
 -2.47510585E+01  0.00000000E+00  1.23755293E+01  1.23755293E+01 -2.47510585E+01
  0.00000000E+00  1.23755293E+01  1.23755293E+01 -2.47510585E+01  0.00000000E+00
  1.23755293E+01  1.23755293E+01 -2.47510585E+01  0.00000000E+00  1.23755293E+01
  1.23755293E+01 -2.47510585E+01  0.00000000E+00  1.23755293E+01  1.23755293E+01
 -2.47510585E+01  0.00000000E+00  1.23755293E+01  1.23755293E+01 -2.47510585E+01
  0.00000000E+00  1.23755293E+01  1.23755293E+01 -2.47510585E+01  0.00000000E+00
  1.23755293E+01  1.23755293E+01 -2.47510585E+01  0.00000000E+00  1.23755293E+01
  1.23755293E+01 -2.47510585E+01  0.00000000E+00  1.23755293E+01  1.23755293E+01
 -2.47510585E+01  0.00000000E+00  1.23755293E+01  1.23755293E+01 -2.47510585E+01
  0.00000000E+00  1.23755293E+01  1.23755293E+01 -2.47510585E+01  0.00000000E+00
  1.23755293E+01  1.23755293E+01 -2.47510585E+01  0.00000000E+00  1.23755293E+01
  1.23755293E+01 -2.47510585E+01  0.00000000E+00  1.23755293E+01  1.23755293E+01
 -2.47510585E+01  0.00000000E+00  1.23755293E+01  1.23755293E+01 -2.47510585E+01
  0.00000000E+00  1.23755293E+01  1.23755293E+01 -2.47510585E+01  0.00000000E+00
  1.23755293E+01  1.23755293E+01 -2.47510585E+01  0.00000000E+00  1.23755293E+01
  1.23755293E+01 -2.47510585E+01  0.00000000E+00  1.23755293E+01  1.23755293E+01
 -2.47510585E+01  0.00000000E+00  1.23755293E+01  1.23755293E+01 -2.47510585E+01
  0.00000000E+00  1.23755293E+01  1.23755293E+01 -2.47510585E+01  0.00000000E+00
  1.23755293E+01  1.23755293E+01 -2.47510585E+01  0.00000000E+00  1.23755293E+01
  1.23755293E+01 -2.47510585E+01  0.00000000E+00  1.23755293E+01  1.23755293E+01
 -2.47510585E+01  0.00000000E+00  1.23755293E+01  1.23755293E+01 -2.47510585E+01
  0.00000000E+00  1.23755293E+01  1.23755293E+01 -2.47510585E+01  0.00000000E+00
  1.23755293E+01  1.23755293E+01 -2.47510585E+01  0.00000000E+00  1.23755293E+01
  1.23755293E+01 -2.47510585E+01  0.00000000E+00  1.23755293E+01  1.23755293E+01
 -2.47510585E+01  0.00000000E+00  1.23755293E+01  1.23755293E+01 -2.47510585E+01
  0.00000000E+00  1.23755293E+01  1.23755293E+01 -2.47510585E+01  0.00000000E+00
  1.23755293E+01  1.23755293E+01 -2.47510585E+01  0.00000000E+00  1.23755293E+01
  1.23755293E+01 -2.47510585E+01  0.00000000E+00  1.23755293E+01  1.23755293E+01
 -2.47510585E+01  0.00000000E+00  1.23755293E+01  1.23755293E+01 -2.47510585E+01
  0.00000000E+00  1.23755293E+01  1.23755293E+01 -2.47510585E+01  0.00000000E+00
  1.23755293E+01  1.23755293E+01 -2.47510585E+01  0.00000000E+00  1.23755293E+01
  1.23755293E+01 -2.47510585E+01  0.00000000E+00  1.23755293E+01  1.23755293E+01
 -2.47510585E+01  0.00000000E+00  1.23755293E+01  1.23755293E+01 -2.47510585E+01
  0.00000000E+00  1.23755293E+01  1.23755293E+01 -2.47510585E+01  0.00000000E+00
  1.23755293E+01  1.23755293E+01 -2.47510585E+01  0.00000000E+00  1.23755293E+01
  1.23755293E+01 -2.47510585E+01  0.00000000E+00  1.23755293E+01  1.23755293E+01
 -2.47510585E+01  0.00000000E+00  1.23755293E+01  1.23755293E+01 -2.47510585E+01
  0.00000000E+00  1.23755293E+01  1.23755293E+01 -2.47510585E+01  0.00000000E+00
  1.23755293E+01  1.23755293E+01 -2.47510585E+01  0.00000000E+00  1.23755293E+01
  1.23755293E+01 -2.47510585E+01  0.00000000E+00  1.23755293E+01  1.23755293E+01
 -2.47510585E+01  0.00000000E+00  1.23755293E+01  1.23755293E+01 -2.47510585E+01
  0.00000000E+00  1.23755293E+01  1.23755293E+01 -2.47510585E+01  0.00000000E+00
  1.23755293E+01  1.23755293E+01 -2.47510585E+01  0.00000000E+00  1.23755293E+01
  1.23755293E+01 -2.47510585E+01  0.00000000E+00  1.23755293E+01  1.23755293E+01
 -2.47510585E+01  0.00000000E+00  1.23755293E+01  1.23755293E+01 -2.47510585E+01
  0.00000000E+00  1.23755293E+01  1.23755293E+01 -2.47510585E+01  0.00000000E+00
  1.23755293E+01  1.23755293E+01 -2.47510585E+01  0.00000000E+00  1.23755293E+01
  1.23755293E+01 -2.47510585E+01  0.00000000E+00  1.23755293E+01  1.23755293E+01
 -2.47510585E+01  0.00000000E+00  1.23755293E+01  1.23755293E+01 -2.47510585E+01
  0.00000000E+00  1.23755293E+01  1.23755293E+01 -2.47510585E+01  0.00000000E+00
  1.23755293E+01  1.23755293E+01 -2.47510585E+01  0.00000000E+00  1.23755293E+01
  1.23755293E+01 -2.47510585E+01  0.00000000E+00  1.23755293E+01  1.23755293E+01
 -2.47510585E+01  0.00000000E+00  1.23755293E+01  1.23755293E+01 -2.47510585E+01
  0.00000000E+00  1.23755293E+01  1.23755293E+01 -2.47510585E+01  0.00000000E+00
  1.23755293E+01  1.23755293E+01 -2.47510585E+01  0.00000000E+00  1.23755293E+01
  1.23755293E+01 -2.47510585E+01  0.00000000E+00  1.23755293E+01  1.23755293E+01
 -2.47510585E+01
%FLAG ATOMIC_NUMBER                                                             
%FORMAT(10I8)                                                                   
       1       6       1       1       6       8       7       1       6       1
       6       1       1       6       6       1       7       1       6       6
       1       6       1       6       1       6       1       6       6       8
       7       1       6       1       6       1       6       1       1       1
       6       1       1       1       6       8       7       1       6       1
       6       1       6       1       1       1       8       1       6       8
       7       1       6       1       6       1       1       6       7       1
       6       1       7       6       1       6       8       7       1       6
       1       6       1       1       6       1       1       6       1       1
       7       1       6       7       1       1       7       1       1       6
       8       6       8       6       6       6       6       6       6       6
       6       7       1       1       1       1       1       1       1       1
       1       1       1       1       1       1       7       1       6       1
       6       1       1       1       6       8       7       1       6       1
       1       6       8       7       1       6       1       6       1       1
       6       1       6       1       1       1       6       1       1       1
       6       8       6       8       6       6       6       6       7       1
       1       1       1       1       1       1       1       7       1       6
       1       6       1       1       8       1       6       8       7       1
       6       1       6       1       1       6       1       1       6       1
       1       7       1       6       7       1       1       7       1       1
       6       8       7       1       6       1       6       1       1       8
       1       6       8       7       1       6       1       1       6       8
       7       1       6       1       1       6       8       7       1       6
       1       6       1       6       1       1       1       6       1       1
       1       6       8       7       1       6       1       6       1       6
       1       1       1       6       1       1       1       6       8       7
       1       6       1       6       1       1       6       1       1       6
       1       1       6       1       1       7       1       1       1       6
       8       7       1       6       1       6       1       1       6       8
       7       1       1       6       8       7       1       6       1       6
       1       1       6       8       7       1       1       6       8       7
       1       6       1       6       1       1       6       6       1       6
       1       6       1       6       1       6       1       6       8       7
       1       6       1       6       1       6       1       1       1       6
       1       1       1       6       8       7       6       1       1       6
       1       1       6       1       1       6       1       6       8       7
       1       6       1       6       1       6       1       1       1       8
       1       6       8       7       1       6       1       6       1       1
       6       8       8       6       8       7       1       6       1       6
       1       6       1       1       1       6       1       1       1       6
       8       7       1       6       1       1       6       8       7       6
       1       1       6       1       1       6       1       1       6       1
       6       8       7       1       6       1       6       1       1       6
       6       1       6       1       6       1       6       1       6       1
       6       8       7       1       6       1       6       1       1       1
       6       8       7       1       6       1       6       1       1       6
       6       1       6       1       6       1       6       1       6       1
       6       8       7       1       1      11      11      11      11      11
      11      11      11      11      11      11      11      11      11      11
      11      11      11      11      11      17      17      17      17      17
      17      17      17      17      17      17      17      17      17      17
      17      17      17      17      17      17      17       8       1       1
       0       8       1       1       0       8       1       1       0       8
       1       1       0       8       1       1       0       8       1       1
       0       8       1       1       0       8       1       1       0       8
       1       1       0       8       1       1       0       8       1       1
       0       8       1       1       0       8       1       1       0       8
       1       1       0       8       1       1       0       8       1       1
       0       8       1       1       0       8       1       1       0       8
       1       1       0       8       1       1       0       8       1       1
       0       8       1       1       0       8       1       1       0       8
       1       1       0       8       1       1       0       8       1       1
       0       8       1       1       0       8       1       1       0       8
       1       1       0       8       1       1       0       8       1       1
       0       8       1       1       0       8       1       1       0       8
       1       1       0       8       1       1       0       8       1       1
       0       8       1       1       0       8       1       1       0       8
       1       1       0       8       1       1       0       8       1       1
       0       8       1       1       0       8       1       1       0       8
       1       1       0       8       1       1       0       8       1       1
       0       8       1       1       0       8       1       1       0       8
       1       1       0       8       1       1       0       8       1       1
       0       8       1       1       0       8       1       1       0       8
       1       1       0       8       1       1       0       8       1       1
       0       8       1       1       0       8       1       1       0       8
       1       1       0       8       1       1       0       8       1       1
       0       8       1       1       0       8       1       1       0       8
       1       1       0       8       1       1       0       8       1       1
       0       8       1       1       0       8       1       1       0       8
       1       1       0       8       1       1       0       8       1       1
       0       8       1       1       0       8       1       1       0       8
       1       1       0       8       1       1       0       8       1       1
       0       8       1       1       0       8       1       1       0       8
       1       1       0       8       1       1       0       8       1       1
       0       8       1       1       0       8       1       1       0       8
       1       1       0       8       1       1       0       8       1       1
       0       8       1       1       0       8       1       1       0       8
       1       1       0       8       1       1       0       8       1       1
       0       8       1       1       0       8       1       1       0       8
       1       1       0       8       1       1       0       8       1       1
       0       8       1       1       0       8       1       1       0       8
       1       1       0       8       1       1       0       8       1       1
       0       8       1       1       0       8       1       1       0       8
       1       1       0       8       1       1       0       8       1       1
       0       8       1       1       0       8       1       1       0       8
       1       1       0       8       1       1       0       8       1       1
       0       8       1       1       0       8       1       1       0       8
       1       1       0       8       1       1       0       8       1       1
       0       8       1       1       0       8       1       1       0       8
       1       1       0       8       1       1       0       8       1       1
       0       8       1       1       0       8       1       1       0       8
       1       1       0       8       1       1       0       8       1       1
       0       8       1       1       0       8       1       1       0       8
       1       1       0       8       1       1       0       8       1       1
       0       8       1       1       0       8       1       1       0       8
       1       1       0       8       1       1       0       8       1       1
       0       8       1       1       0       8       1       1       0       8
       1       1       0       8       1       1       0       8       1       1
       0       8       1       1       0       8       1       1       0       8
       1       1       0       8       1       1       0       8       1       1
       0       8       1       1       0       8       1       1       0       8
       1       1       0       8       1       1       0       8       1       1
       0       8       1       1       0       8       1       1       0       8
       1       1       0       8       1       1       0       8       1       1
       0       8       1       1       0       8       1       1       0       8
       1       1       0       8       1       1       0       8       1       1
       0       8       1       1       0       8       1       1       0       8
       1       1       0       8       1       1       0       8       1       1
       0       8       1       1       0       8       1       1       0       8
       1       1       0       8       1       1       0       8       1       1
       0       8       1       1       0       8       1       1       0       8
       1       1       0       8       1       1       0       8       1       1
       0       8       1       1       0       8       1       1       0       8
       1       1       0       8       1       1       0       8       1       1
       0       8       1       1       0       8       1       1       0       8
       1       1       0       8       1       1       0       8       1       1
       0       8       1       1       0       8       1       1       0       8
       1       1       0       8       1       1       0       8       1       1
       0       8       1       1       0       8       1       1       0       8
       1       1       0       8       1       1       0       8       1       1
       0       8       1       1       0       8       1       1       0       8
       1       1       0       8       1       1       0       8       1       1
       0       8       1       1       0       8       1       1       0       8
       1       1       0       8       1       1       0       8       1       1
       0       8       1       1       0       8       1       1       0       8
       1       1       0       8       1       1       0       8       1       1
       0       8       1       1       0       8       1       1       0       8
       1       1       0       8       1       1       0       8       1       1
       0       8       1       1       0       8       1       1       0       8
       1       1       0       8       1       1       0       8       1       1
       0       8       1       1       0       8       1       1       0       8
       1       1       0       8       1       1       0       8       1       1
       0       8       1       1       0       8       1       1       0       8
       1       1       0       8       1       1       0       8       1       1
       0       8       1       1       0       8       1       1       0       8
       1       1       0       8       1       1       0       8       1       1
       0       8       1       1       0       8       1       1       0       8
       1       1       0       8       1       1       0       8       1       1
       0       8       1       1       0       8       1       1       0       8
       1       1       0       8       1       1       0       8       1       1
       0       8       1       1       0       8       1       1       0       8
       1       1       0       8       1       1       0       8       1       1
       0       8       1       1       0       8       1       1       0       8
       1       1       0       8       1       1       0       8       1       1
       0       8       1       1       0       8       1       1       0       8
       1       1       0       8       1       1       0       8       1       1
       0       8       1       1       0       8       1       1       0       8
       1       1       0       8       1       1       0       8       1       1
       0       8       1       1       0       8       1       1       0       8
       1       1       0       8       1       1       0       8       1       1
       0       8       1       1       0       8       1       1       0       8
       1       1       0       8       1       1       0       8       1       1
       0       8       1       1       0       8       1       1       0       8
       1       1       0       8       1       1       0       8       1       1
       0       8       1       1       0       8       1       1       0       8
       1       1       0       8       1       1       0       8       1       1
       0       8       1       1       0       8       1       1       0       8
       1       1       0       8       1       1       0       8       1       1
       0       8       1       1       0       8       1       1       0       8
       1       1       0       8       1       1       0       8       1       1
       0       8       1       1       0       8       1       1       0       8
       1       1       0       8       1       1       0       8       1       1
       0       8       1       1       0       8       1       1       0       8
       1       1       0       8       1       1       0       8       1       1
       0       8       1       1       0       8       1       1       0       8
       1       1       0       8       1       1       0       8       1       1
       0       8       1       1       0       8       1       1       0       8
       1       1       0       8       1       1       0       8       1       1
       0       8       1       1       0       8       1       1       0       8
       1       1       0       8       1       1       0       8       1       1
       0       8       1       1       0       8       1       1       0       8
       1       1       0       8       1       1       0       8       1       1
       0       8       1       1       0       8       1       1       0       8
       1       1       0       8       1       1       0       8       1       1
       0       8       1       1       0       8       1       1       0       8
       1       1       0       8       1       1       0       8       1       1
       0       8       1       1       0       8       1       1       0       8
       1       1       0       8       1       1       0       8       1       1
       0       8       1       1       0       8       1       1       0       8
       1       1       0       8       1       1       0       8       1       1
       0       8       1       1       0       8       1       1       0       8
       1       1       0       8       1       1       0       8       1       1
       0       8       1       1       0       8       1       1       0       8
       1       1       0       8       1       1       0       8       1       1
       0       8       1       1       0       8       1       1       0       8
       1       1       0       8       1       1       0       8       1       1
       0       8       1       1       0       8       1       1       0       8
       1       1       0       8       1       1       0       8       1       1
       0       8       1       1       0       8       1       1       0       8
       1       1       0       8       1       1       0       8       1       1
       0       8       1       1       0       8       1       1       0       8
       1       1       0       8       1       1       0       8       1       1
       0       8       1       1       0       8       1       1       0       8
       1       1       0       8       1       1       0       8       1       1
       0       8       1       1       0       8       1       1       0       8
       1       1       0       8       1       1       0       8       1       1
       0       8       1       1       0       8       1       1       0       8
       1       1       0       8       1       1       0       8       1       1
       0       8       1       1       0       8       1       1       0       8
       1       1       0       8       1       1       0       8       1       1
       0       8       1       1       0       8       1       1       0       8
       1       1       0       8       1       1       0       8       1       1
       0       8       1       1       0       8       1       1       0       8
       1       1       0       8       1       1       0       8       1       1
       0       8       1       1       0       8       1       1       0       8
       1       1       0       8       1       1       0       8       1       1
       0       8       1       1       0       8       1       1       0       8
       1       1       0       8       1       1       0       8       1       1
       0       8       1       1       0       8       1       1       0       8
       1       1       0       8       1       1       0       8       1       1
       0       8       1       1       0       8       1       1       0       8
       1       1       0       8       1       1       0       8       1       1
       0       8       1       1       0       8       1       1       0       8
       1       1       0       8       1       1       0       8       1       1
       0       8       1       1       0       8       1       1       0       8
       1       1       0       8       1       1       0       8       1       1
       0       8       1       1       0       8       1       1       0       8
       1       1       0       8       1       1       0       8       1       1
       0       8       1       1       0       8       1       1       0       8
       1       1       0       8       1       1       0       8       1       1
       0       8       1       1       0       8       1       1       0       8
       1       1       0       8       1       1       0       8       1       1
       0       8       1       1       0       8       1       1       0       8
       1       1       0       8       1       1       0       8       1       1
       0       8       1       1       0       8       1       1       0       8
       1       1       0       8       1       1       0       8       1       1
       0       8       1       1       0       8       1       1       0       8
       1       1       0       8       1       1       0       8       1       1
       0       8       1       1       0       8       1       1       0       8
       1       1       0       8       1       1       0       8       1       1
       0       8       1       1       0       8       1       1       0       8
       1       1       0       8       1       1       0       8       1       1
       0       8       1       1       0       8       1       1       0       8
       1       1       0       8       1       1       0       8       1       1
       0       8       1       1       0       8       1       1       0       8
       1       1       0       8       1       1       0       8       1       1
       0       8       1       1       0       8       1       1       0       8
       1       1       0       8       1       1       0       8       1       1
       0       8       1       1       0       8       1       1       0       8
       1       1       0       8       1       1       0       8       1       1
       0       8       1       1       0       8       1       1       0       8
       1       1       0       8       1       1       0       8       1       1
       0       8       1       1       0       8       1       1       0       8
       1       1       0       8       1       1       0       8       1       1
       0       8       1       1       0       8       1       1       0       8
       1       1       0       8       1       1       0       8       1       1
       0       8       1       1       0       8       1       1       0       8
       1       1       0       8       1       1       0       8       1       1
       0       8       1       1       0       8       1       1       0       8
       1       1       0       8       1       1       0       8       1       1
       0       8       1       1       0       8       1       1       0       8
       1       1       0       8       1       1       0       8       1       1
       0       8       1       1       0       8       1       1       0       8
       1       1       0       8       1       1       0       8       1       1
       0       8       1       1       0       8       1       1       0       8
       1       1       0       8       1       1       0       8       1       1
       0       8       1       1       0       8       1       1       0       8
       1       1       0       8       1       1       0       8       1       1
       0       8       1       1       0       8       1       1       0       8
       1       1       0       8       1       1       0       8       1       1
       0       8       1       1       0       8       1       1       0       8
       1       1       0       8       1       1       0       8       1       1
       0       8       1       1       0       8       1       1       0       8
       1       1       0       8       1       1       0       8       1       1
       0       8       1       1       0       8       1       1       0       8
       1       1       0       8       1       1       0       8       1       1
       0       8       1       1       0       8       1       1       0       8
       1       1       0       8       1       1       0       8       1       1
       0       8       1       1       0       8       1       1       0       8
       1       1       0       8       1       1       0       8       1       1
       0       8       1       1       0       8       1       1       0       8
       1       1       0       8       1       1       0       8       1       1
       0       8       1       1       0       8       1       1       0       8
       1       1       0       8       1       1       0       8       1       1
       0       8       1       1       0       8       1       1       0       8
       1       1       0       8       1       1       0       8       1       1
       0       8       1       1       0       8       1       1       0       8
       1       1       0       8       1       1       0       8       1       1
       0       8       1       1       0       8       1       1       0       8
       1       1       0       8       1       1       0       8       1       1
       0       8       1       1       0       8       1       1       0       8
       1       1       0       8       1       1       0       8       1       1
       0       8       1       1       0       8       1       1       0       8
       1       1       0       8       1       1       0       8       1       1
       0       8       1       1       0       8       1       1       0       8
       1       1       0       8       1       1       0       8       1       1
       0       8       1       1       0       8       1       1       0       8
       1       1       0       8       1       1       0       8       1       1
       0       8       1       1       0       8       1       1       0       8
       1       1       0       8       1       1       0       8       1       1
       0       8       1       1       0       8       1       1       0       8
       1       1       0       8       1       1       0       8       1       1
       0       8       1       1       0       8       1       1       0       8
       1       1       0       8       1       1       0       8       1       1
       0       8       1       1       0       8       1       1       0       8
       1       1       0       8       1       1       0       8       1       1
       0       8       1       1       0       8       1       1       0       8
       1       1       0       8       1       1       0       8       1       1
       0       8       1       1       0       8       1       1       0       8
       1       1       0       8       1       1       0       8       1       1
       0       8       1       1       0       8       1       1       0       8
       1       1       0       8       1       1       0       8       1       1
       0       8       1       1       0       8       1       1       0       8
       1       1       0       8       1       1       0       8       1       1
       0       8       1       1       0       8       1       1       0       8
       1       1       0       8       1       1       0       8       1       1
       0       8       1       1       0       8       1       1       0       8
       1       1       0       8       1       1       0       8       1       1
       0       8       1       1       0       8       1       1       0       8
       1       1       0       8       1       1       0       8       1       1
       0       8       1       1       0       8       1       1       0       8
       1       1       0       8       1       1       0       8       1       1
       0       8       1       1       0       8       1       1       0       8
       1       1       0       8       1       1       0       8       1       1
       0       8       1       1       0       8       1       1       0       8
       1       1       0       8       1       1       0       8       1       1
       0       8       1       1       0       8       1       1       0       8
       1       1       0       8       1       1       0       8       1       1
       0       8       1       1       0       8       1       1       0       8
       1       1       0       8       1       1       0       8       1       1
       0       8       1       1       0       8       1       1       0       8
       1       1       0       8       1       1       0       8       1       1
       0       8       1       1       0       8       1       1       0       8
       1       1       0       8       1       1       0       8       1       1
       0       8       1       1       0       8       1       1       0       8
       1       1       0       8       1       1       0       8       1       1
       0       8       1       1       0       8       1       1       0       8
       1       1       0       8       1       1       0       8       1       1
       0       8       1       1       0       8       1       1       0       8
       1       1       0       8       1       1       0       8       1       1
       0       8       1       1       0       8       1       1       0       8
       1       1       0       8       1       1       0       8       1       1
       0       8       1       1       0       8       1       1       0       8
       1       1       0       8       1       1       0       8       1       1
       0       8       1       1       0       8       1       1       0       8
       1       1       0       8       1       1       0       8       1       1
       0       8       1       1       0       8       1       1       0       8
       1       1       0       8       1       1       0       8       1       1
       0       8       1       1       0       8       1       1       0       8
       1       1       0       8       1       1       0       8       1       1
       0       8       1       1       0       8       1       1       0       8
       1       1       0       8       1       1       0       8       1       1
       0       8       1       1       0       8       1       1       0       8
       1       1       0       8       1       1       0       8       1       1
       0       8       1       1       0       8       1       1       0       8
       1       1       0       8       1       1       0       8       1       1
       0       8       1       1       0       8       1       1       0       8
       1       1       0       8       1       1       0       8       1       1
       0       8       1       1       0       8       1       1       0       8
       1       1       0       8       1       1       0       8       1       1
       0       8       1       1       0       8       1       1       0       8
       1       1       0       8       1       1       0       8       1       1
       0       8       1       1       0       8       1       1       0       8
       1       1       0       8       1       1       0       8       1       1
       0       8       1       1       0       8       1       1       0       8
       1       1       0       8       1       1       0       8       1       1
       0       8       1       1       0       8       1       1       0       8
       1       1       0       8       1       1       0       8       1       1
       0       8       1       1       0       8       1       1       0       8
       1       1       0       8       1       1       0       8       1       1
       0       8       1       1       0       8       1       1       0       8
       1       1       0       8       1       1       0       8       1       1
       0       8       1       1       0       8       1       1       0       8
       1       1       0       8       1       1       0       8       1       1
       0       8       1       1       0       8       1       1       0       8
       1       1       0       8       1       1       0       8       1       1
       0       8       1       1       0       8       1       1       0       8
       1       1       0       8       1       1       0       8       1       1
       0       8       1       1       0       8       1       1       0       8
       1       1       0       8       1       1       0       8       1       1
       0       8       1       1       0       8       1       1       0       8
       1       1       0       8       1       1       0       8       1       1
       0       8       1       1       0       8       1       1       0       8
       1       1       0       8       1       1       0       8       1       1
       0       8       1       1       0       8       1       1       0       8
       1       1       0       8       1       1       0       8       1       1
       0       8       1       1       0       8       1       1       0       8
       1       1       0       8       1       1       0       8       1       1
       0       8       1       1       0       8       1       1       0       8
       1       1       0       8       1       1       0       8       1       1
       0       8       1       1       0       8       1       1       0       8
       1       1       0       8       1       1       0       8       1       1
       0       8       1       1       0       8       1       1       0       8
       1       1       0       8       1       1       0       8       1       1
       0       8       1       1       0       8       1       1       0       8
       1       1       0       8       1       1       0       8       1       1
       0       8       1       1       0       8       1       1       0       8
       1       1       0       8       1       1       0       8       1       1
       0       8       1       1       0       8       1       1       0       8
       1       1       0       8       1       1       0       8       1       1
       0       8       1       1       0       8       1       1       0       8
       1       1       0       8       1       1       0       8       1       1
       0       8       1       1       0       8       1       1       0       8
       1       1       0       8       1       1       0       8       1       1
       0       8       1       1       0       8       1       1       0       8
       1       1       0       8       1       1       0       8       1       1
       0       8       1       1       0       8       1       1       0       8
       1       1       0       8       1       1       0       8       1       1
       0       8       1       1       0       8       1       1       0       8
       1       1       0       8       1       1       0       8       1       1
       0       8       1       1       0       8       1       1       0       8
       1       1       0       8       1       1       0       8       1       1
       0       8       1       1       0       8       1       1       0       8
       1       1       0       8       1       1       0       8       1       1
       0       8       1       1       0       8       1       1       0       8
       1       1       0       8       1       1       0       8       1       1
       0       8       1       1       0       8       1       1       0       8
       1       1       0       8       1       1       0       8       1       1
       0       8       1       1       0       8       1       1       0       8
       1       1       0       8       1       1       0       8       1       1
       0       8       1       1       0       8       1       1       0       8
       1       1       0       8       1       1       0       8       1       1
       0       8       1       1       0       8       1       1       0       8
       1       1       0       8       1       1       0       8       1       1
       0       8       1       1       0       8       1       1       0       8
       1       1       0       8       1       1       0       8       1       1
       0       8       1       1       0       8       1       1       0       8
       1       1       0       8       1       1       0       8       1       1
       0       8       1       1       0       8       1       1       0       8
       1       1       0       8       1       1       0       8       1       1
       0       8       1       1       0       8       1       1       0       8
       1       1       0       8       1       1       0       8       1       1
       0       8       1       1       0       8       1       1       0       8
       1       1       0       8       1       1       0       8       1       1
       0       8       1       1       0       8       1       1       0       8
       1       1       0       8       1       1       0       8       1       1
       0       8       1       1       0       8       1       1       0       8
       1       1       0       8       1       1       0       8       1       1
       0       8       1       1       0       8       1       1       0       8
       1       1       0       8       1       1       0       8       1       1
       0       8       1       1       0       8       1       1       0       8
       1       1       0       8       1       1       0       8       1       1
       0       8       1       1       0       8       1       1       0       8
       1       1       0       8       1       1       0       8       1       1
       0       8       1       1       0       8       1       1       0       8
       1       1       0       8       1       1       0       8       1       1
       0       8       1       1       0       8       1       1       0       8
       1       1       0       8       1       1       0       8       1       1
       0       8       1       1       0       8       1       1       0       8
       1       1       0       8       1       1       0       8       1       1
       0       8       1       1       0       8       1       1       0       8
       1       1       0       8       1       1       0       8       1       1
       0       8       1       1       0       8       1       1       0       8
       1       1       0       8       1       1       0       8       1       1
       0       8       1       1       0       8       1       1       0       8
       1       1       0       8       1       1       0       8       1       1
       0       8       1       1       0       8       1       1       0       8
       1       1       0       8       1       1       0       8       1       1
       0       8       1       1       0       8       1       1       0       8
       1       1       0       8       1       1       0       8       1       1
       0       8       1       1       0       8       1       1       0       8
       1       1       0       8       1       1       0       8       1       1
       0       8       1       1       0       8       1       1       0       8
       1       1       0       8       1       1       0       8       1       1
       0       8       1       1       0       8       1       1       0       8
       1       1       0       8       1       1       0       8       1       1
       0       8       1       1       0       8       1       1       0       8
       1       1       0       8       1       1       0       8       1       1
       0       8       1       1       0       8       1       1       0       8
       1       1       0       8       1       1       0       8       1       1
       0       8       1       1       0       8       1       1       0       8
       1       1       0       8       1       1       0       8       1       1
       0       8       1       1       0       8       1       1       0       8
       1       1       0       8       1       1       0       8       1       1
       0       8       1       1       0       8       1       1       0       8
       1       1       0       8       1       1       0       8       1       1
       0       8       1       1       0       8       1       1       0       8
       1       1       0       8       1       1       0       8       1       1
       0       8       1       1       0       8       1       1       0       8
       1       1       0       8       1       1       0       8       1       1
       0       8       1       1       0       8       1       1       0       8
       1       1       0       8       1       1       0       8       1       1
       0       8       1       1       0       8       1       1       0       8
       1       1       0       8       1       1       0       8       1       1
       0       8       1       1       0       8       1       1       0       8
       1       1       0       8       1       1       0       8       1       1
       0       8       1       1       0       8       1       1       0       8
       1       1       0       8       1       1       0       8       1       1
       0       8       1       1       0       8       1       1       0       8
       1       1       0       8       1       1       0       8       1       1
       0       8       1       1       0       8       1       1       0       8
       1       1       0       8       1       1       0       8       1       1
       0       8       1       1       0       8       1       1       0       8
       1       1       0       8       1       1       0       8       1       1
       0       8       1       1       0       8       1       1       0       8
       1       1       0       8       1       1       0       8       1       1
       0       8       1       1       0       8       1       1       0       8
       1       1       0       8       1       1       0       8       1       1
       0       8       1       1       0       8       1       1       0       8
       1       1       0       8       1       1       0       8       1       1
       0       8       1       1       0       8       1       1       0       8
       1       1       0       8       1       1       0       8       1       1
       0       8       1       1       0       8       1       1       0       8
       1       1       0       8       1       1       0       8       1       1
       0       8       1       1       0       8       1       1       0       8
       1       1       0       8       1       1       0       8       1       1
       0       8       1       1       0       8       1       1       0       8
       1       1       0       8       1       1       0       8       1       1
       0       8       1       1       0       8       1       1       0       8
       1       1       0       8       1       1       0       8       1       1
       0       8       1       1       0       8       1       1       0       8
       1       1       0       8       1       1       0       8       1       1
       0       8       1       1       0       8       1       1       0       8
       1       1       0       8       1       1       0       8       1       1
       0       8       1       1       0       8       1       1       0       8
       1       1       0       8       1       1       0       8       1       1
       0       8       1       1       0       8       1       1       0       8
       1       1       0       8       1       1       0       8       1       1
       0       8       1       1       0       8       1       1       0       8
       1       1       0       8       1       1       0       8       1       1
       0       8       1       1       0       8       1       1       0       8
       1       1       0       8       1       1       0       8       1       1
       0       8       1       1       0       8       1       1       0       8
       1       1       0       8       1       1       0       8       1       1
       0       8       1       1       0       8       1       1       0       8
       1       1       0       8       1       1       0       8       1       1
       0       8       1       1       0       8       1       1       0       8
       1       1       0       8       1       1       0       8       1       1
       0       8       1       1       0       8       1       1       0       8
       1       1       0       8       1       1       0       8       1       1
       0       8       1       1       0       8       1       1       0       8
       1       1       0       8       1       1       0       8       1       1
       0       8       1       1       0       8       1       1       0       8
       1       1       0       8       1       1       0       8       1       1
       0       8       1       1       0       8       1       1       0       8
       1       1       0       8       1       1       0       8       1       1
       0       8       1       1       0       8       1       1       0       8
       1       1       0       8       1       1       0       8       1       1
       0       8       1       1       0       8       1       1       0       8
       1       1       0       8       1       1       0       8       1       1
       0       8       1       1       0       8       1       1       0       8
       1       1       0       8       1       1       0       8       1       1
       0       8       1       1       0       8       1       1       0       8
       1       1       0       8       1       1       0       8       1       1
       0       8       1       1       0       8       1       1       0       8
       1       1       0       8       1       1       0       8       1       1
       0       8       1       1       0       8       1       1       0       8
       1       1       0       8       1       1       0       8       1       1
       0       8       1       1       0       8       1       1       0       8
       1       1       0       8       1       1       0       8       1       1
       0       8       1       1       0       8       1       1       0       8
       1       1       0       8       1       1       0       8       1       1
       0       8       1       1       0       8       1       1       0       8
       1       1       0       8       1       1       0       8       1       1
       0       8       1       1       0       8       1       1       0       8
       1       1       0       8       1       1       0       8       1       1
       0       8       1       1       0       8       1       1       0       8
       1       1       0       8       1       1       0       8       1       1
       0       8       1       1       0       8       1       1       0       8
       1       1       0       8       1       1       0       8       1       1
       0       8       1       1       0       8       1       1       0       8
       1       1       0       8       1       1       0       8       1       1
       0       8       1       1       0       8       1       1       0       8
       1       1       0       8       1       1       0       8       1       1
       0       8       1       1       0       8       1       1       0       8
       1       1       0       8       1       1       0       8       1       1
       0       8       1       1       0       8       1       1       0       8
       1       1       0       8       1       1       0       8       1       1
       0       8       1       1       0       8       1       1       0       8
       1       1       0       8       1       1       0       8       1       1
       0       8       1       1       0       8       1       1       0       8
       1       1       0       8       1       1       0       8       1       1
       0       8       1       1       0       8       1       1       0       8
       1       1       0       8       1       1       0       8       1       1
       0       8       1       1       0       8       1       1       0       8
       1       1       0       8       1       1       0       8       1       1
       0       8       1       1       0       8       1       1       0       8
       1       1       0       8       1       1       0       8       1       1
       0       8       1       1       0       8       1       1       0       8
       1       1       0       8       1       1       0       8       1       1
       0       8       1       1       0       8       1       1       0       8
       1       1       0       8       1       1       0       8       1       1
       0       8       1       1       0       8       1       1       0       8
       1       1       0       8       1       1       0       8       1       1
       0       8       1       1       0       8       1       1       0       8
       1       1       0       8       1       1       0       8       1       1
       0       8       1       1       0       8       1       1       0       8
       1       1       0       8       1       1       0       8       1       1
       0       8       1       1       0       8       1       1       0       8
       1       1       0       8       1       1       0       8       1       1
       0       8       1       1       0       8       1       1       0       8
       1       1       0       8       1       1       0       8       1       1
       0       8       1       1       0       8       1       1       0       8
       1       1       0       8       1       1       0       8       1       1
       0       8       1       1       0       8       1       1       0       8
       1       1       0       8       1       1       0       8       1       1
       0       8       1       1       0       8       1       1       0       8
       1       1       0       8       1       1       0       8       1       1
       0       8       1       1       0       8       1       1       0       8
       1       1       0       8       1       1       0       8       1       1
       0       8       1       1       0       8       1       1       0       8
       1       1       0       8       1       1       0       8       1       1
       0       8       1       1       0       8       1       1       0       8
       1       1       0       8       1       1       0       8       1       1
       0       8       1       1       0       8       1       1       0       8
       1       1       0       8       1       1       0       8       1       1
       0       8       1       1       0       8       1       1       0       8
       1       1       0       8       1       1       0       8       1       1
       0       8       1       1       0       8       1       1       0       8
       1       1       0       8       1       1       0       8       1       1
       0       8       1       1       0       8       1       1       0       8
       1       1       0       8       1       1       0       8       1       1
       0       8       1       1       0       8       1       1       0       8
       1       1       0       8       1       1       0       8       1       1
       0       8       1       1       0       8       1       1       0       8
       1       1       0       8       1       1       0       8       1       1
       0       8       1       1       0       8       1       1       0       8
       1       1       0       8       1       1       0       8       1       1
       0       8       1       1       0       8       1       1       0       8
       1       1       0       8       1       1       0       8       1       1
       0       8       1       1       0       8       1       1       0       8
       1       1       0       8       1       1       0       8       1       1
       0       8       1       1       0       8       1       1       0       8
       1       1       0       8       1       1       0       8       1       1
       0       8       1       1       0       8       1       1       0       8
       1       1       0       8       1       1       0       8       1       1
       0       8       1       1       0       8       1       1       0       8
       1       1       0       8       1       1       0       8       1       1
       0       8       1       1       0       8       1       1       0       8
       1       1       0       8       1       1       0       8       1       1
       0       8       1       1       0       8       1       1       0       8
       1       1       0       8       1       1       0       8       1       1
       0       8       1       1       0       8       1       1       0       8
       1       1       0       8       1       1       0       8       1       1
       0       8       1       1       0       8       1       1       0       8
       1       1       0       8       1       1       0       8       1       1
       0       8       1       1       0       8       1       1       0       8
       1       1       0       8       1       1       0       8       1       1
       0       8       1       1       0       8       1       1       0       8
       1       1       0       8       1       1       0       8       1       1
       0       8       1       1       0       8       1       1       0       8
       1       1       0       8       1       1       0       8       1       1
       0       8       1       1       0       8       1       1       0       8
       1       1       0       8       1       1       0       8       1       1
       0       8       1       1       0       8       1       1       0       8
       1       1       0       8       1       1       0       8       1       1
       0       8       1       1       0       8       1       1       0       8
       1       1       0       8       1       1       0       8       1       1
       0       8       1       1       0       8       1       1       0       8
       1       1       0       8       1       1       0       8       1       1
       0       8       1       1       0       8       1       1       0       8
       1       1       0       8       1       1       0       8       1       1
       0       8       1       1       0       8       1       1       0       8
       1       1       0       8       1       1       0       8       1       1
       0       8       1       1       0       8       1       1       0       8
       1       1       0       8       1       1       0       8       1       1
       0       8       1       1       0       8       1       1       0       8
       1       1       0       8       1       1       0       8       1       1
       0       8       1       1       0       8       1       1       0       8
       1       1       0       8       1       1       0       8       1       1
       0       8       1       1       0       8       1       1       0       8
       1       1       0       8       1       1       0       8       1       1
       0       8       1       1       0       8       1       1       0       8
       1       1       0       8       1       1       0       8       1       1
       0       8       1       1       0       8       1       1       0       8
       1       1       0       8       1       1       0       8       1       1
       0       8       1       1       0       8       1       1       0       8
       1       1       0       8       1       1       0       8       1       1
       0       8       1       1       0       8       1       1       0       8
       1       1       0       8       1       1       0       8       1       1
       0       8       1       1       0       8       1       1       0       8
       1       1       0       8       1       1       0       8       1       1
       0       8       1       1       0       8       1       1       0       8
       1       1       0       8       1       1       0       8       1       1
       0       8       1       1       0       8       1       1       0       8
       1       1       0       8       1       1       0       8       1       1
       0       8       1       1       0       8       1       1       0       8
       1       1       0       8       1       1       0       8       1       1
       0       8       1       1       0       8       1       1       0       8
       1       1       0       8       1       1       0       8       1       1
       0       8       1       1       0       8       1       1       0       8
       1       1       0       8       1       1       0       8       1       1
       0       8       1       1       0       8       1       1       0       8
       1       1       0       8       1       1       0       8       1       1
       0       8       1       1       0       8       1       1       0       8
       1       1       0       8       1       1       0       8       1       1
       0       8       1       1       0       8       1       1       0       8
       1       1       0       8       1       1       0       8       1       1
       0       8       1       1       0       8       1       1       0       8
       1       1       0       8       1       1       0       8       1       1
       0       8       1       1       0       8       1       1       0       8
       1       1       0       8       1       1       0       8       1       1
       0       8       1       1       0       8       1       1       0       8
       1       1       0       8       1       1       0       8       1       1
       0       8       1       1       0       8       1       1       0       8
       1       1       0       8       1       1       0       8       1       1
       0       8       1       1       0       8       1       1       0       8
       1       1       0       8       1       1       0       8       1       1
       0       8       1       1       0       8       1       1       0       8
       1       1       0       8       1       1       0       8       1       1
       0       8       1       1       0       8       1       1       0       8
       1       1       0       8       1       1       0       8       1       1
       0       8       1       1       0       8       1       1       0       8
       1       1       0       8       1       1       0       8       1       1
       0       8       1       1       0       8       1       1       0       8
       1       1       0       8       1       1       0       8       1       1
       0       8       1       1       0       8       1       1       0       8
       1       1       0       8       1       1       0       8       1       1
       0       8       1       1       0       8       1       1       0       8
       1       1       0       8       1       1       0       8       1       1
       0       8       1       1       0       8       1       1       0       8
       1       1       0       8       1       1       0       8       1       1
       0       8       1       1       0       8       1       1       0       8
       1       1       0       8       1       1       0       8       1       1
       0       8       1       1       0       8       1       1       0       8
       1       1       0       8       1       1       0       8       1       1
       0       8       1       1       0       8       1       1       0       8
       1       1       0       8       1       1       0       8       1       1
       0       8       1       1       0       8       1       1       0       8
       1       1       0       8       1       1       0       8       1       1
       0       8       1       1       0       8       1       1       0       8
       1       1       0       8       1       1       0       8       1       1
       0       8       1       1       0       8       1       1       0       8
       1       1       0       8       1       1       0       8       1       1
       0       8       1       1       0       8       1       1       0       8
       1       1       0       8       1       1       0       8       1       1
       0       8       1       1       0       8       1       1       0       8
       1       1       0       8       1       1       0       8       1       1
       0       8       1       1       0       8       1       1       0       8
       1       1       0       8       1       1       0       8       1       1
       0       8       1       1       0       8       1       1       0       8
       1       1       0       8       1       1       0       8       1       1
       0       8       1       1       0       8       1       1       0       8
       1       1       0       8       1       1       0       8       1       1
       0       8       1       1       0       8       1       1       0       8
       1       1       0       8       1       1       0       8       1       1
       0       8       1       1       0       8       1       1       0       8
       1       1       0       8       1       1       0       8       1       1
       0       8       1       1       0       8       1       1       0       8
       1       1       0       8       1       1       0       8       1       1
       0       8       1       1       0       8       1       1       0       8
       1       1       0       8       1       1       0       8       1       1
       0       8       1       1       0       8       1       1       0       8
       1       1       0       8       1       1       0       8       1       1
       0       8       1       1       0       8       1       1       0       8
       1       1       0       8       1       1       0       8       1       1
       0       8       1       1       0       8       1       1       0       8
       1       1       0       8       1       1       0       8       1       1
       0       8       1       1       0       8       1       1       0       8
       1       1       0       8       1       1       0       8       1       1
       0       8       1       1       0       8       1       1       0       8
       1       1       0       8       1       1       0       8       1       1
       0       8       1       1       0       8       1       1       0       8
       1       1       0       8       1       1       0       8       1       1
       0       8       1       1       0       8       1       1       0       8
       1       1       0       8       1       1       0       8       1       1
       0       8       1       1       0       8       1       1       0       8
       1       1       0       8       1       1       0       8       1       1
       0       8       1       1       0       8       1       1       0       8
       1       1       0       8       1       1       0       8       1       1
       0       8       1       1       0       8       1       1       0       8
       1       1       0       8       1       1       0       8       1       1
       0       8       1       1       0       8       1       1       0       8
       1       1       0       8       1       1       0       8       1       1
       0       8       1       1       0       8       1       1       0       8
       1       1       0       8       1       1       0       8       1       1
       0       8       1       1       0       8       1       1       0       8
       1       1       0       8       1       1       0       8       1       1
       0       8       1       1       0       8       1       1       0       8
       1       1       0       8       1       1       0       8       1       1
       0       8       1       1       0       8       1       1       0       8
       1       1       0       8       1       1       0       8       1       1
       0       8       1       1       0       8       1       1       0       8
       1       1       0       8       1       1       0       8       1       1
       0       8       1       1       0       8       1       1       0       8
       1       1       0       8       1       1       0       8       1       1
       0       8       1       1       0       8       1       1       0       8
       1       1       0       8       1       1       0       8       1       1
       0       8       1       1       0       8       1       1       0       8
       1       1       0       8       1       1       0       8       1       1
       0       8       1       1       0       8       1       1       0       8
       1       1       0       8       1       1       0       8       1       1
       0       8       1       1       0       8       1       1       0       8
       1       1       0       8       1       1       0       8       1       1
       0       8       1       1       0       8       1       1       0       8
       1       1       0       8       1       1       0       8       1       1
       0       8       1       1       0       8       1       1       0       8
       1       1       0       8       1       1       0       8       1       1
       0       8       1       1       0       8       1       1       0       8
       1       1       0       8       1       1       0       8       1       1
       0       8       1       1       0       8       1       1       0       8
       1       1       0       8       1       1       0       8       1       1
       0       8       1       1       0       8       1       1       0       8
       1       1       0       8       1       1       0       8       1       1
       0       8       1       1       0       8       1       1       0       8
       1       1       0       8       1       1       0       8       1       1
       0       8       1       1       0       8       1       1       0       8
       1       1       0       8       1       1       0       8       1       1
       0       8       1       1       0       8       1       1       0       8
       1       1       0       8       1       1       0       8       1       1
       0       8       1       1       0       8       1       1       0       8
       1       1       0       8       1       1       0       8       1       1
       0       8       1       1       0       8       1       1       0       8
       1       1       0       8       1       1       0       8       1       1
       0       8       1       1       0       8       1       1       0       8
       1       1       0       8       1       1       0       8       1       1
       0       8       1       1       0       8       1       1       0       8
       1       1       0       8       1       1       0       8       1       1
       0       8       1       1       0       8       1       1       0       8
       1       1       0       8       1       1       0       8       1       1
       0       8       1       1       0       8       1       1       0       8
       1       1       0       8       1       1       0       8       1       1
       0       8       1       1       0       8       1       1       0       8
       1       1       0       8       1       1       0       8       1       1
       0       8       1       1       0       8       1       1       0       8
       1       1       0       8       1       1       0       8       1       1
       0       8       1       1       0       8       1       1       0       8
       1       1       0       8       1       1       0       8       1       1
       0       8       1       1       0       8       1       1       0       8
       1       1       0       8       1       1       0       8       1       1
       0       8       1       1       0       8       1       1       0       8
       1       1       0       8       1       1       0       8       1       1
       0       8       1       1       0       8       1       1       0       8
       1       1       0       8       1       1       0       8       1       1
       0       8       1       1       0       8       1       1       0       8
       1       1       0       8       1       1       0       8       1       1
       0       8       1       1       0       8       1       1       0       8
       1       1       0       8       1       1       0       8       1       1
       0       8       1       1       0       8       1       1       0       8
       1       1       0       8       1       1       0       8       1       1
       0       8       1       1       0       8       1       1       0       8
       1       1       0       8       1       1       0       8       1       1
       0       8       1       1       0       8       1       1       0       8
       1       1       0       8       1       1       0       8       1       1
       0       8       1       1       0       8       1       1       0       8
       1       1       0       8       1       1       0       8       1       1
       0       8       1       1       0       8       1       1       0       8
       1       1       0       8       1       1       0       8       1       1
       0       8       1       1       0       8       1       1       0       8
       1       1       0       8       1       1       0       8       1       1
       0       8       1       1       0       8       1       1       0       8
       1       1       0       8       1       1       0       8       1       1
       0       8       1       1       0       8       1       1       0       8
       1       1       0       8       1       1       0       8       1       1
       0       8       1       1       0       8       1       1       0       8
       1       1       0       8       1       1       0       8       1       1
       0       8       1       1       0       8       1       1       0       8
       1       1       0       8       1       1       0       8       1       1
       0       8       1       1       0       8       1       1       0       8
       1       1       0       8       1       1       0       8       1       1
       0       8       1       1       0       8       1       1       0       8
       1       1       0       8       1       1       0       8       1       1
       0       8       1       1       0       8       1       1       0       8
       1       1       0       8       1       1       0       8       1       1
       0       8       1       1       0       8       1       1       0       8
       1       1       0       8       1       1       0       8       1       1
       0       8       1       1       0       8       1       1       0       8
       1       1       0       8       1       1       0       8       1       1
       0       8       1       1       0       8       1       1       0       8
       1       1       0       8       1       1       0       8       1       1
       0       8       1       1       0       8       1       1       0       8
       1       1       0       8       1       1       0       8       1       1
       0       8       1       1       0       8       1       1       0       8
       1       1       0       8       1       1       0       8       1       1
       0       8       1       1       0       8       1       1       0       8
       1       1       0       8       1       1       0       8       1       1
       0       8       1       1       0       8       1       1       0       8
       1       1       0       8       1       1       0       8       1       1
       0       8       1       1       0       8       1       1       0       8
       1       1       0       8       1       1       0       8       1       1
       0       8       1       1       0       8       1       1       0       8
       1       1       0       8       1       1       0       8       1       1
       0       8       1       1       0       8       1       1       0       8
       1       1       0       8       1       1       0       8       1       1
       0       8       1       1       0       8       1       1       0       8
       1       1       0       8       1       1       0       8       1       1
       0       8       1       1       0       8       1       1       0       8
       1       1       0       8       1       1       0       8       1       1
       0       8       1       1       0       8       1       1       0       8
       1       1       0       8       1       1       0       8       1       1
       0       8       1       1       0       8       1       1       0       8
       1       1       0       8       1       1       0       8       1       1
       0       8       1       1       0       8       1       1       0       8
       1       1       0       8       1       1       0       8       1       1
       0       8       1       1       0       8       1       1       0       8
       1       1       0       8       1       1       0       8       1       1
       0       8       1       1       0       8       1       1       0       8
       1       1       0       8       1       1       0       8       1       1
       0       8       1       1       0       8       1       1       0       8
       1       1       0       8       1       1       0       8       1       1
       0       8       1       1       0       8       1       1       0       8
       1       1       0       8       1       1       0       8       1       1
       0       8       1       1       0       8       1       1       0       8
       1       1       0       8       1       1       0       8       1       1
       0       8       1       1       0       8       1       1       0       8
       1       1       0       8       1       1       0       8       1       1
       0       8       1       1       0       8       1       1       0       8
       1       1       0       8       1       1       0       8       1       1
       0       8       1       1       0       8       1       1       0       8
       1       1       0       8       1       1       0       8       1       1
       0       8       1       1       0       8       1       1       0       8
       1       1       0       8       1       1       0       8       1       1
       0       8       1       1       0       8       1       1       0       8
       1       1       0       8       1       1       0       8       1       1
       0       8       1       1       0       8       1       1       0       8
       1       1       0       8       1       1       0       8       1       1
       0       8       1       1       0       8       1       1       0       8
       1       1       0       8       1       1       0       8       1       1
       0       8       1       1       0       8       1       1       0       8
       1       1       0       8       1       1       0       8       1       1
       0       8       1       1       0       8       1       1       0       8
       1       1       0       8       1       1       0       8       1       1
       0       8       1       1       0       8       1       1       0       8
       1       1       0       8       1       1       0       8       1       1
       0       8       1       1       0       8       1       1       0       8
       1       1       0       8       1       1       0       8       1       1
       0       8       1       1       0       8       1       1       0       8
       1       1       0       8       1       1       0       8       1       1
       0       8       1       1       0       8       1       1       0       8
       1       1       0       8       1       1       0       8       1       1
       0       8       1       1       0       8       1       1       0       8
       1       1       0       8       1       1       0       8       1       1
       0       8       1       1       0       8       1       1       0       8
       1       1       0       8       1       1       0       8       1       1
       0       8       1       1       0       8       1       1       0       8
       1       1       0       8       1       1       0       8       1       1
       0       8       1       1       0       8       1       1       0       8
       1       1       0       8       1       1       0       8       1       1
       0       8       1       1       0       8       1       1       0       8
       1       1       0       8       1       1       0       8       1       1
       0       8       1       1       0       8       1       1       0       8
       1       1       0       8       1       1       0       8       1       1
       0       8       1       1       0       8       1       1       0       8
       1       1       0       8       1       1       0       8       1       1
       0       8       1       1       0       8       1       1       0       8
       1       1       0       8       1       1       0       8       1       1
       0       8       1       1       0       8       1       1       0       8
       1       1       0       8       1       1       0       8       1       1
       0       8       1       1       0       8       1       1       0       8
       1       1       0       8       1       1       0       8       1       1
       0       8       1       1       0       8       1       1       0       8
       1       1       0       8       1       1       0       8       1       1
       0       8       1       1       0       8       1       1       0       8
       1       1       0       8       1       1       0       8       1       1
       0       8       1       1       0       8       1       1       0       8
       1       1       0       8       1       1       0       8       1       1
       0       8       1       1       0       8       1       1       0       8
       1       1       0       8       1       1       0       8       1       1
       0       8       1       1       0       8       1       1       0       8
       1       1       0       8       1       1       0       8       1       1
       0       8       1       1       0       8       1       1       0       8
       1       1       0       8       1       1       0       8       1       1
       0       8       1       1       0       8       1       1       0       8
       1       1       0       8       1       1       0       8       1       1
       0       8       1       1       0       8       1       1       0       8
       1       1       0       8       1       1       0       8       1       1
       0       8       1       1       0       8       1       1       0       8
       1       1       0       8       1       1       0       8       1       1
       0       8       1       1       0       8       1       1       0       8
       1       1       0       8       1       1       0       8       1       1
       0       8       1       1       0       8       1       1       0       8
       1       1       0       8       1       1       0       8       1       1
       0       8       1       1       0       8       1       1       0       8
       1       1       0       8       1       1       0       8       1       1
       0       8       1       1       0       8       1       1       0       8
       1       1       0       8       1       1       0       8       1       1
       0       8       1       1       0       8       1       1       0       8
       1       1       0       8       1       1       0       8       1       1
       0       8       1       1       0       8       1       1       0       8
       1       1       0       8       1       1       0       8       1       1
       0       8       1       1       0       8       1       1       0       8
       1       1       0       8       1       1       0       8       1       1
       0       8       1       1       0       8       1       1       0       8
       1       1       0       8       1       1       0       8       1       1
       0       8       1       1       0       8       1       1       0       8
       1       1       0       8       1       1       0       8       1       1
       0       8       1       1       0       8       1       1       0       8
       1       1       0       8       1       1       0       8       1       1
       0       8       1       1       0       8       1       1       0       8
       1       1       0       8       1       1       0       8       1       1
       0       8       1       1       0       8       1       1       0       8
       1       1       0       8       1       1       0       8       1       1
       0       8       1       1       0       8       1       1       0       8
       1       1       0       8       1       1       0       8       1       1
       0       8       1       1       0       8       1       1       0       8
       1       1       0       8       1       1       0       8       1       1
       0       8       1       1       0       8       1       1       0       8
       1       1       0       8       1       1       0       8       1       1
       0       8       1       1       0       8       1       1       0       8
       1       1       0       8       1       1       0       8       1       1
       0       8       1       1       0       8       1       1       0       8
       1       1       0       8       1       1       0       8       1       1
       0       8       1       1       0       8       1       1       0       8
       1       1       0       8       1       1       0       8       1       1
       0       8       1       1       0       8       1       1       0       8
       1       1       0       8       1       1       0       8       1       1
       0       8       1       1       0       8       1       1       0       8
       1       1       0       8       1       1       0       8       1       1
       0       8       1       1       0       8       1       1       0       8
       1       1       0       8       1       1       0       8       1       1
       0       8       1       1       0       8       1       1       0       8
       1       1       0       8       1       1       0       8       1       1
       0       8       1       1       0       8       1       1       0       8
       1       1       0       8       1       1       0       8       1       1
       0       8       1       1       0       8       1       1       0       8
       1       1       0       8       1       1       0       8       1       1
       0       8       1       1       0       8       1       1       0       8
       1       1       0       8       1       1       0       8       1       1
       0       8       1       1       0       8       1       1       0       8
       1       1       0       8       1       1       0       8       1       1
       0       8       1       1       0       8       1       1       0       8
       1       1       0       8       1       1       0       8       1       1
       0       8       1       1       0       8       1       1       0       8
       1       1       0       8       1       1       0       8       1       1
       0       8       1       1       0       8       1       1       0       8
       1       1       0       8       1       1       0       8       1       1
       0       8       1       1       0       8       1       1       0       8
       1       1       0       8       1       1       0       8       1       1
       0       8       1       1       0       8       1       1       0       8
       1       1       0       8       1       1       0       8       1       1
       0       8       1       1       0       8       1       1       0       8
       1       1       0       8       1       1       0       8       1       1
       0       8       1       1       0       8       1       1       0       8
       1       1       0       8       1       1       0       8       1       1
       0       8       1       1       0       8       1       1       0       8
       1       1       0       8       1       1       0       8       1       1
       0       8       1       1       0       8       1       1       0       8
       1       1       0       8       1       1       0       8       1       1
       0       8       1       1       0       8       1       1       0       8
       1       1       0       8       1       1       0       8       1       1
       0       8       1       1       0       8       1       1       0       8
       1       1       0       8       1       1       0       8       1       1
       0       8       1       1       0       8       1       1       0       8
       1       1       0       8       1       1       0       8       1       1
       0       8       1       1       0       8       1       1       0       8
       1       1       0       8       1       1       0       8       1       1
       0       8       1       1       0       8       1       1       0       8
       1       1       0       8       1       1       0       8       1       1
       0       8       1       1       0       8       1       1       0       8
       1       1       0       8       1       1       0       8       1       1
       0       8       1       1       0       8       1       1       0       8
       1       1       0       8       1       1       0       8       1       1
       0       8       1       1       0       8       1       1       0       8
       1       1       0       8       1       1       0       8       1       1
       0       8       1       1       0       8       1       1       0       8
       1       1       0       8       1       1       0       8       1       1
       0       8       1       1       0       8       1       1       0       8
       1       1       0       8       1       1       0       8       1       1
       0       8       1       1       0       8       1       1       0       8
       1       1       0       8       1       1       0       8       1       1
       0       8       1       1       0       8       1       1       0       8
       1       1       0       8       1       1       0       8       1       1
       0       8       1       1       0       8       1       1       0       8
       1       1       0       8       1       1       0       8       1       1
       0       8       1       1       0       8       1       1       0       8
       1       1       0       8       1       1       0       8       1       1
       0       8       1       1       0       8       1       1       0       8
       1       1       0       8       1       1       0       8       1       1
       0       8       1       1       0       8       1       1       0       8
       1       1       0       8       1       1       0       8       1       1
       0       8       1       1       0       8       1       1       0       8
       1       1       0       8       1       1       0       8       1       1
       0       8       1       1       0       8       1       1       0       8
       1       1       0       8       1       1       0       8       1       1
       0       8       1       1       0       8       1       1       0       8
       1       1       0       8       1       1       0       8       1       1
       0       8       1       1       0       8       1       1       0       8
       1       1       0       8       1       1       0       8       1       1
       0       8       1       1       0       8       1       1       0       8
       1       1       0       8       1       1       0       8       1       1
       0       8       1       1       0       8       1       1       0       8
       1       1       0       8       1       1       0       8       1       1
       0       8       1       1       0       8       1       1       0       8
       1       1       0       8       1       1       0       8       1       1
       0       8       1       1       0       8       1       1       0       8
       1       1       0       8       1       1       0       8       1       1
       0       8       1       1       0       8       1       1       0       8
       1       1       0       8       1       1       0       8       1       1
       0       8       1       1       0       8       1       1       0       8
       1       1       0       8       1       1       0       8       1       1
       0       8       1       1       0       8       1       1       0       8
       1       1       0       8       1       1       0       8       1       1
       0       8       1       1       0       8       1       1       0       8
       1       1       0       8       1       1       0       8       1       1
       0       8       1       1       0       8       1       1       0       8
       1       1       0       8       1       1       0       8       1       1
       0       8       1       1       0       8       1       1       0       8
       1       1       0       8       1       1       0       8       1       1
       0       8       1       1       0       8       1       1       0       8
       1       1       0       8       1       1       0       8       1       1
       0       8       1       1       0       8       1       1       0       8
       1       1       0       8       1       1       0       8       1       1
       0       8       1       1       0       8       1       1       0       8
       1       1       0       8       1       1       0       8       1       1
       0       8       1       1       0       8       1       1       0       8
       1       1       0       8       1       1       0       8       1       1
       0       8       1       1       0       8       1       1       0       8
       1       1       0       8       1       1       0       8       1       1
       0       8       1       1       0       8       1       1       0       8
       1       1       0       8       1       1       0       8       1       1
       0       8       1       1       0       8       1       1       0       8
       1       1       0       8       1       1       0       8       1       1
       0       8       1       1       0       8       1       1       0       8
       1       1       0       8       1       1       0       8       1       1
       0       8       1       1       0       8       1       1       0       8
       1       1       0       8       1       1       0       8       1       1
       0       8       1       1       0       8       1       1       0       8
       1       1       0       8       1       1       0       8       1       1
       0       8       1       1       0       8       1       1       0       8
       1       1       0       8       1       1       0       8       1       1
       0       8       1       1       0       8       1       1       0       8
       1       1       0       8       1       1       0       8       1       1
       0       8       1       1       0       8       1       1       0       8
       1       1       0       8       1       1       0       8       1       1
       0       8       1       1       0       8       1       1       0       8
       1       1       0       8       1       1       0       8       1       1
       0       8       1       1       0       8       1       1       0       8
       1       1       0       8       1       1       0       8       1       1
       0       8       1       1       0       8       1       1       0       8
       1       1       0       8       1       1       0       8       1       1
       0       8       1       1       0       8       1       1       0       8
       1       1       0       8       1       1       0       8       1       1
       0       8       1       1       0       8       1       1       0       8
       1       1       0       8       1       1       0       8       1       1
       0       8       1       1       0       8       1       1       0       8
       1       1       0       8       1       1       0       8       1       1
       0       8       1       1       0       8       1       1       0       8
       1       1       0       8       1       1       0       8       1       1
       0       8       1       1       0       8       1       1       0       8
       1       1       0       8       1       1       0       8       1       1
       0       8       1       1       0       8       1       1       0       8
       1       1       0       8       1       1       0       8       1       1
       0       8       1       1       0       8       1       1       0       8
       1       1       0       8       1       1       0       8       1       1
       0       8       1       1       0       8       1       1       0       8
       1       1       0       8       1       1       0       8       1       1
       0       8       1       1       0       8       1       1       0       8
       1       1       0       8       1       1       0       8       1       1
       0       8       1       1       0       8       1       1       0       8
       1       1       0       8       1       1       0       8       1       1
       0       8       1       1       0       8       1       1       0       8
       1       1       0       8       1       1       0       8       1       1
       0       8       1       1       0       8       1       1       0       8
       1       1       0       8       1       1       0       8       1       1
       0       8       1       1       0       8       1       1       0       8
       1       1       0       8       1       1       0       8       1       1
       0       8       1       1       0       8       1       1       0       8
       1       1       0       8       1       1       0       8       1       1
       0       8       1       1       0       8       1       1       0       8
       1       1       0       8       1       1       0       8       1       1
       0       8       1       1       0       8       1       1       0       8
       1       1       0       8       1       1       0       8       1       1
       0       8       1       1       0       8       1       1       0       8
       1       1       0       8       1       1       0       8       1       1
       0       8       1       1       0       8       1       1       0       8
       1       1       0       8       1       1       0       8       1       1
       0       8       1       1       0       8       1       1       0       8
       1       1       0       8       1       1       0       8       1       1
       0       8       1       1       0       8       1       1       0       8
       1       1       0       8       1       1       0       8       1       1
       0       8       1       1       0       8       1       1       0       8
       1       1       0       8       1       1       0       8       1       1
       0       8       1       1       0       8       1       1       0       8
       1       1       0       8       1       1       0       8       1       1
       0       8       1       1       0       8       1       1       0       8
       1       1       0       8       1       1       0       8       1       1
       0       8       1       1       0       8       1       1       0       8
       1       1       0       8       1       1       0       8       1       1
       0       8       1       1       0       8       1       1       0       8
       1       1       0       8       1       1       0       8       1       1
       0       8       1       1       0       8       1       1       0       8
       1       1       0       8       1       1       0       8       1       1
       0       8       1       1       0       8       1       1       0       8
       1       1       0       8       1       1       0       8       1       1
       0       8       1       1       0       8       1       1       0       8
       1       1       0       8       1       1       0       8       1       1
       0       8       1       1       0       8       1       1       0       8
       1       1       0       8       1       1       0       8       1       1
       0       8       1       1       0       8       1       1       0       8
       1       1       0       8       1       1       0       8       1       1
       0       8       1       1       0       8       1       1       0       8
       1       1       0       8       1       1       0       8       1       1
       0       8       1       1       0       8       1       1       0       8
       1       1       0       8       1       1       0       8       1       1
       0       8       1       1       0       8       1       1       0       8
       1       1       0       8       1       1       0       8       1       1
       0       8       1       1       0       8       1       1       0       8
       1       1       0       8       1       1       0       8       1       1
       0       8       1       1       0       8       1       1       0       8
       1       1       0       8       1       1       0       8       1       1
       0       8       1       1       0       8       1       1       0       8
       1       1       0       8       1       1       0       8       1       1
       0       8       1       1       0       8       1       1       0       8
       1       1       0       8       1       1       0       8       1       1
       0       8       1       1       0       8       1       1       0       8
       1       1       0       8       1       1       0       8       1       1
       0       8       1       1       0       8       1       1       0       8
       1       1       0       8       1       1       0       8       1       1
       0       8       1       1       0       8       1       1       0       8
       1       1       0       8       1       1       0       8       1       1
       0       8       1       1       0       8       1       1       0       8
       1       1       0       8       1       1       0       8       1       1
       0       8       1       1       0       8       1       1       0       8
       1       1       0       8       1       1       0       8       1       1
       0       8       1       1       0       8       1       1       0       8
       1       1       0       8       1       1       0       8       1       1
       0       8       1       1       0       8       1       1       0       8
       1       1       0       8       1       1       0       8       1       1
       0       8       1       1       0       8       1       1       0       8
       1       1       0       8       1       1       0       8       1       1
       0       8       1       1       0       8       1       1       0       8
       1       1       0       8       1       1       0       8       1       1
       0       8       1       1       0       8       1       1       0       8
       1       1       0       8       1       1       0       8       1       1
       0       8       1       1       0       8       1       1       0       8
       1       1       0       8       1       1       0       8       1       1
       0       8       1       1       0       8       1       1       0       8
       1       1       0       8       1       1       0       8       1       1
       0       8       1       1       0       8       1       1       0       8
       1       1       0       8       1       1       0       8       1       1
       0       8       1       1       0       8       1       1       0       8
       1       1       0       8       1       1       0       8       1       1
       0       8       1       1       0       8       1       1       0       8
       1       1       0       8       1       1       0       8       1       1
       0       8       1       1       0       8       1       1       0       8
       1       1       0       8       1       1       0       8       1       1
       0       8       1       1       0       8       1       1       0       8
       1       1       0       8       1       1       0       8       1       1
       0       8       1       1       0       8       1       1       0       8
       1       1       0       8       1       1       0       8       1       1
       0       8       1       1       0       8       1       1       0       8
       1       1       0       8       1       1       0       8       1       1
       0       8       1       1       0       8       1       1       0       8
       1       1       0       8       1       1       0       8       1       1
       0       8       1       1       0       8       1       1       0       8
       1       1       0       8       1       1       0       8       1       1
       0       8       1       1       0       8       1       1       0       8
       1       1       0       8       1       1       0       8       1       1
       0       8       1       1       0       8       1       1       0       8
       1       1       0       8       1       1       0       8       1       1
       0       8       1       1       0       8       1       1       0       8
       1       1       0       8       1       1       0       8       1       1
       0       8       1       1       0       8       1       1       0       8
       1       1       0       8       1       1       0       8       1       1
       0       8       1       1       0       8       1       1       0       8
       1       1       0       8       1       1       0       8       1       1
       0       8       1       1       0       8       1       1       0       8
       1       1       0       8       1       1       0       8       1       1
       0       8       1       1       0       8       1       1       0       8
       1       1       0       8       1       1       0       8       1       1
       0       8       1       1       0       8       1       1       0       8
       1       1       0       8       1       1       0       8       1       1
       0       8       1       1       0       8       1       1       0       8
       1       1       0       8       1       1       0       8       1       1
       0       8       1       1       0       8       1       1       0       8
       1       1       0       8       1       1       0       8       1       1
       0       8       1       1       0       8       1       1       0       8
       1       1       0       8       1       1       0       8       1       1
       0       8       1       1       0       8       1       1       0       8
       1       1       0       8       1       1       0       8       1       1
       0       8       1       1       0       8       1       1       0       8
       1       1       0       8       1       1       0       8       1       1
       0       8       1       1       0       8       1       1       0       8
       1       1       0       8       1       1       0       8       1       1
       0       8       1       1       0       8       1       1       0       8
       1       1       0       8       1       1       0       8       1       1
       0       8       1       1       0       8       1       1       0       8
       1       1       0       8       1       1       0       8       1       1
       0       8       1       1       0       8       1       1       0       8
       1       1       0       8       1       1       0       8       1       1
       0       8       1       1       0       8       1       1       0       8
       1       1       0       8       1       1       0       8       1       1
       0       8       1       1       0       8       1       1       0       8
       1       1       0       8       1       1       0       8       1       1
       0       8       1       1       0       8       1       1       0       8
       1       1       0       8       1       1       0       8       1       1
       0       8       1       1       0       8       1       1       0       8
       1       1       0       8       1       1       0       8       1       1
       0       8       1       1       0       8       1       1       0       8
       1       1       0       8       1       1       0       8       1       1
       0       8       1       1       0       8       1       1       0       8
       1       1       0       8       1       1       0       8       1       1
       0       8       1       1       0       8       1       1       0       8
       1       1       0       8       1       1       0       8       1       1
       0       8       1       1       0       8       1       1       0       8
       1       1       0       8       1       1       0       8       1       1
       0       8       1       1       0       8       1       1       0       8
       1       1       0       8       1       1       0       8       1       1
       0       8       1       1       0       8       1       1       0       8
       1       1       0       8       1       1       0       8       1       1
       0       8       1       1       0       8       1       1       0       8
       1       1       0       8       1       1       0       8       1       1
       0       8       1       1       0       8       1       1       0       8
       1       1       0       8       1       1       0       8       1       1
       0       8       1       1       0       8       1       1       0       8
       1       1       0       8       1       1       0       8       1       1
       0       8       1       1       0       8       1       1       0       8
       1       1       0       8       1       1       0       8       1       1
       0       8       1       1       0       8       1       1       0       8
       1       1       0       8       1       1       0       8       1       1
       0       8       1       1       0       8       1       1       0       8
       1       1       0       8       1       1       0       8       1       1
       0       8       1       1       0       8       1       1       0       8
       1       1       0       8       1       1       0       8       1       1
       0       8       1       1       0       8       1       1       0       8
       1       1       0       8       1       1       0       8       1       1
       0       8       1       1       0       8       1       1       0       8
       1       1       0       8       1       1       0       8       1       1
       0       8       1       1       0       8       1       1       0       8
       1       1       0       8       1       1       0       8       1       1
       0       8       1       1       0       8       1       1       0       8
       1       1       0       8       1       1       0       8       1       1
       0       8       1       1       0       8       1       1       0       8
       1       1       0       8       1       1       0       8       1       1
       0       8       1       1       0       8       1       1       0       8
       1       1       0       8       1       1       0       8       1       1
       0       8       1       1       0       8       1       1       0       8
       1       1       0       8       1       1       0       8       1       1
       0       8       1       1       0       8       1       1       0       8
       1       1       0       8       1       1       0       8       1       1
       0       8       1       1       0       8       1       1       0       8
       1       1       0       8       1       1       0       8       1       1
       0       8       1       1       0       8       1       1       0       8
       1       1       0       8       1       1       0       8       1       1
       0       8       1       1       0       8       1       1       0       8
       1       1       0       8       1       1       0       8       1       1
       0       8       1       1       0       8       1       1       0       8
       1       1       0       8       1       1       0       8       1       1
       0       8       1       1       0       8       1       1       0       8
       1       1       0       8       1       1       0       8       1       1
       0       8       1       1       0       8       1       1       0       8
       1       1       0       8       1       1       0       8       1       1
       0       8       1       1       0       8       1       1       0       8
       1       1       0       8       1       1       0       8       1       1
       0       8       1       1       0       8       1       1       0       8
       1       1       0       8       1       1       0       8       1       1
       0       8       1       1       0       8       1       1       0       8
       1       1       0       8       1       1       0       8       1       1
       0       8       1       1       0       8       1       1       0       8
       1       1       0       8       1       1       0       8       1       1
       0       8       1       1       0       8       1       1       0       8
       1       1       0       8       1       1       0       8       1       1
       0       8       1       1       0       8       1       1       0       8
       1       1       0       8       1       1       0       8       1       1
       0       8       1       1       0       8       1       1       0       8
       1       1       0       8       1       1       0       8       1       1
       0       8       1       1       0       8       1       1       0       8
       1       1       0       8       1       1       0       8       1       1
       0       8       1       1       0       8       1       1       0       8
       1       1       0       8       1       1       0       8       1       1
       0       8       1       1       0       8       1       1       0       8
       1       1       0       8       1       1       0       8       1       1
       0       8       1       1       0       8       1       1       0       8
       1       1       0       8       1       1       0       8       1       1
       0       8       1       1       0       8       1       1       0       8
       1       1       0       8       1       1       0       8       1       1
       0       8       1       1       0       8       1       1       0       8
       1       1       0       8       1       1       0       8       1       1
       0       8       1       1       0       8       1       1       0       8
       1       1       0       8       1       1       0       8       1       1
       0       8       1       1       0       8       1       1       0       8
       1       1       0       8       1       1       0       8       1       1
       0       8       1       1       0       8       1       1       0       8
       1       1       0       8       1       1       0       8       1       1
       0       8       1       1       0       8       1       1       0       8
       1       1       0       8       1       1       0       8       1       1
       0       8       1       1       0       8       1       1       0       8
       1       1       0       8       1       1       0       8       1       1
       0       8       1       1       0       8       1       1       0       8
       1       1       0       8       1       1       0       8       1       1
       0       8       1       1       0       8       1       1       0       8
       1       1       0       8       1       1       0       8       1       1
       0       8       1       1       0       8       1       1       0       8
       1       1       0       8       1       1       0       8       1       1
       0       8       1       1       0       8       1       1       0       8
       1       1       0       8       1       1       0       8       1       1
       0       8       1       1       0       8       1       1       0       8
       1       1       0       8       1       1       0       8       1       1
       0       8       1       1       0       8       1       1       0       8
       1       1       0       8       1       1       0       8       1       1
       0       8       1       1       0       8       1       1       0       8
       1       1       0       8       1       1       0       8       1       1
       0       8       1       1       0       8       1       1       0       8
       1       1       0       8       1       1       0       8       1       1
       0       8       1       1       0       8       1       1       0       8
       1       1       0       8       1       1       0       8       1       1
       0       8       1       1       0       8       1       1       0       8
       1       1       0       8       1       1       0       8       1       1
       0       8       1       1       0       8       1       1       0       8
       1       1       0       8       1       1       0       8       1       1
       0       8       1       1       0       8       1       1       0       8
       1       1       0       8       1       1       0       8       1       1
       0       8       1       1       0       8       1       1       0       8
       1       1       0       8       1       1       0       8       1       1
       0       8       1       1       0       8       1       1       0       8
       1       1       0       8       1       1       0       8       1       1
       0       8       1       1       0       8       1       1       0       8
       1       1       0       8       1       1       0       8       1       1
       0       8       1       1       0       8       1       1       0       8
       1       1       0       8       1       1       0       8       1       1
       0       8       1       1       0       8       1       1       0       8
       1       1       0       8       1       1       0       8       1       1
       0       8       1       1       0       8       1       1       0       8
       1       1       0       8       1       1       0       8       1       1
       0       8       1       1       0       8       1       1       0       8
       1       1       0       8       1       1       0       8       1       1
       0       8       1       1       0       8       1       1       0       8
       1       1       0       8       1       1       0       8       1       1
       0       8       1       1       0       8       1       1       0       8
       1       1       0       8       1       1       0       8       1       1
       0       8       1       1       0       8       1       1       0       8
       1       1       0       8       1       1       0       8       1       1
       0       8       1       1       0       8       1       1       0       8
       1       1       0       8       1       1       0       8       1       1
       0       8       1       1       0       8       1       1       0       8
       1       1       0       8       1       1       0       8       1       1
       0       8       1       1       0       8       1       1       0       8
       1       1       0       8       1       1       0       8       1       1
       0       8       1       1       0       8       1       1       0       8
       1       1       0       8       1       1       0       8       1       1
       0       8       1       1       0       8       1       1       0       8
       1       1       0       8       1       1       0       8       1       1
       0       8       1       1       0       8       1       1       0       8
       1       1       0       8       1       1       0       8       1       1
       0       8       1       1       0       8       1       1       0       8
       1       1       0       8       1       1       0       8       1       1
       0       8       1       1       0       8       1       1       0       8
       1       1       0       8       1       1       0       8       1       1
       0       8       1       1       0       8       1       1       0       8
       1       1       0       8       1       1       0       8       1       1
       0       8       1       1       0       8       1       1       0       8
       1       1       0       8       1       1       0       8       1       1
       0       8       1       1       0       8       1       1       0       8
       1       1       0       8       1       1       0       8       1       1
       0       8       1       1       0       8       1       1       0       8
       1       1       0       8       1       1       0       8       1       1
       0       8       1       1       0       8       1       1       0       8
       1       1       0       8       1       1       0       8       1       1
       0       8       1       1       0       8       1       1       0       8
       1       1       0       8       1       1       0       8       1       1
       0       8       1       1       0       8       1       1       0       8
       1       1       0       8       1       1       0       8       1       1
       0       8       1       1       0       8       1       1       0       8
       1       1       0       8       1       1       0       8       1       1
       0       8       1       1       0       8       1       1       0       8
       1       1       0       8       1       1       0       8       1       1
       0       8       1       1       0       8       1       1       0       8
       1       1       0       8       1       1       0       8       1       1
       0       8       1       1       0       8       1       1       0       8
       1       1       0       8       1       1       0       8       1       1
       0       8       1       1       0       8       1       1       0       8
       1       1       0       8       1       1       0       8       1       1
       0       8       1       1       0       8       1       1       0       8
       1       1       0       8       1       1       0       8       1       1
       0       8       1       1       0       8       1       1       0       8
       1       1       0       8       1       1       0       8       1       1
       0       8       1       1       0       8       1       1       0       8
       1       1       0       8       1       1       0       8       1       1
       0       8       1       1       0       8       1       1       0       8
       1       1       0       8       1       1       0       8       1       1
       0       8       1       1       0       8       1       1       0       8
       1       1       0       8       1       1       0       8       1       1
       0       8       1       1       0       8       1       1       0       8
       1       1       0       8       1       1       0       8       1       1
       0       8       1       1       0       8       1       1       0       8
       1       1       0       8       1       1       0       8       1       1
       0       8       1       1       0       8       1       1       0       8
       1       1       0       8       1       1       0       8       1       1
       0       8       1       1       0       8       1       1       0       8
       1       1       0       8       1       1       0       8       1       1
       0       8       1       1       0       8       1       1       0       8
       1       1       0       8       1       1       0       8       1       1
       0       8       1       1       0       8       1       1       0       8
       1       1       0       8       1       1       0       8       1       1
       0       8       1       1       0       8       1       1       0       8
       1       1       0       8       1       1       0       8       1       1
       0       8       1       1       0       8       1       1       0       8
       1       1       0       8       1       1       0       8       1       1
       0       8       1       1       0       8       1       1       0       8
       1       1       0       8       1       1       0       8       1       1
       0       8       1       1       0       8       1       1       0       8
       1       1       0       8       1       1       0       8       1       1
       0       8       1       1       0       8       1       1       0       8
       1       1       0       8       1       1       0       8       1       1
       0       8       1       1       0       8       1       1       0       8
       1       1       0       8       1       1       0       8       1       1
       0       8       1       1       0       8       1       1       0       8
       1       1       0       8       1       1       0       8       1       1
       0       8       1       1       0       8       1       1       0       8
       1       1       0       8       1       1       0       8       1       1
       0       8       1       1       0       8       1       1       0       8
       1       1       0       8       1       1       0       8       1       1
       0       8       1       1       0       8       1       1       0       8
       1       1       0       8       1       1       0       8       1       1
       0       8       1       1       0       8       1       1       0       8
       1       1       0       8       1       1       0       8       1       1
       0       8       1       1       0       8       1       1       0       8
       1       1       0       8       1       1       0       8       1       1
       0       8       1       1       0       8       1       1       0       8
       1       1       0       8       1       1       0       8       1       1
       0       8       1       1       0       8       1       1       0       8
       1       1       0       8       1       1       0       8       1       1
       0       8       1       1       0       8       1       1       0       8
       1       1       0       8       1       1       0       8       1       1
       0       8       1       1       0       8       1       1       0       8
       1       1       0       8       1       1       0       8       1       1
       0       8       1       1       0       8       1       1       0       8
       1       1       0       8       1       1       0       8       1       1
       0       8       1       1       0       8       1       1       0       8
       1       1       0       8       1       1       0       8       1       1
       0       8       1       1       0       8       1       1       0       8
       1       1       0       8       1       1       0       8       1       1
       0       8       1       1       0       8       1       1       0       8
       1       1       0       8       1       1       0       8       1       1
       0       8       1       1       0       8       1       1       0       8
       1       1       0       8       1       1       0       8       1       1
       0       8       1       1       0       8       1       1       0       8
       1       1       0       8       1       1       0       8       1       1
       0       8       1       1       0       8       1       1       0       8
       1       1       0       8       1       1       0       8       1       1
       0       8       1       1       0       8       1       1       0       8
       1       1       0       8       1       1       0       8       1       1
       0       8       1       1       0       8       1       1       0       8
       1       1       0       8       1       1       0       8       1       1
       0       8       1       1       0       8       1       1       0       8
       1       1       0       8       1       1       0       8       1       1
       0       8       1       1       0       8       1       1       0       8
       1       1       0       8       1       1       0       8       1       1
       0       8       1       1       0       8       1       1       0       8
       1       1       0       8       1       1       0       8       1       1
       0       8       1       1       0       8       1       1       0       8
       1       1       0       8       1       1       0       8       1       1
       0       8       1       1       0       8       1       1       0       8
       1       1       0       8       1       1       0       8       1       1
       0       8       1       1       0       8       1       1       0       8
       1       1       0       8       1       1       0       8       1       1
       0       8       1       1       0       8       1       1       0       8
       1       1       0       8       1       1       0       8       1       1
       0       8       1       1       0       8       1       1       0       8
       1       1       0       8       1       1       0       8       1       1
       0       8       1       1       0       8       1       1       0       8
       1       1       0       8       1       1       0       8       1       1
       0       8       1       1       0       8       1       1       0       8
       1       1       0       8       1       1       0       8       1       1
       0       8       1       1       0       8       1       1       0       8
       1       1       0       8       1       1       0       8       1       1
       0       8       1       1       0       8       1       1       0       8
       1       1       0       8       1       1       0       8       1       1
       0       8       1       1       0       8       1       1       0       8
       1       1       0       8       1       1       0       8       1       1
       0       8       1       1       0       8       1       1       0       8
       1       1       0       8       1       1       0       8       1       1
       0       8       1       1       0       8       1       1       0       8
       1       1       0       8       1       1       0       8       1       1
       0       8       1       1       0       8       1       1       0       8
       1       1       0       8       1       1       0       8       1       1
       0       8       1       1       0       8       1       1       0       8
       1       1       0       8       1       1       0       8       1       1
       0       8       1       1       0       8       1       1       0       8
       1       1       0       8       1       1       0       8       1       1
       0       8       1       1       0       8       1       1       0       8
       1       1       0       8       1       1       0       8       1       1
       0       8       1       1       0       8       1       1       0       8
       1       1       0       8       1       1       0       8       1       1
       0       8       1       1       0       8       1       1       0       8
       1       1       0       8       1       1       0       8       1       1
       0       8       1       1       0       8       1       1       0       8
       1       1       0       8       1       1       0       8       1       1
       0       8       1       1       0       8       1       1       0       8
       1       1       0       8       1       1       0       8       1       1
       0       8       1       1       0       8       1       1       0       8
       1       1       0       8       1       1       0       8       1       1
       0       8       1       1       0       8       1       1       0       8
       1       1       0       8       1       1       0       8       1       1
       0       8       1       1       0       8       1       1       0       8
       1       1       0       8       1       1       0       8       1       1
       0       8       1       1       0       8       1       1       0       8
       1       1       0       8       1       1       0       8       1       1
       0       8       1       1       0       8       1       1       0       8
       1       1       0       8       1       1       0       8       1       1
       0       8       1       1       0       8       1       1       0       8
       1       1       0       8       1       1       0       8       1       1
       0       8       1       1       0       8       1       1       0       8
       1       1       0       8       1       1       0       8       1       1
       0       8       1       1       0       8       1       1       0       8
       1       1       0       8       1       1       0       8       1       1
       0       8       1       1       0       8       1       1       0       8
       1       1       0       8       1       1       0       8       1       1
       0       8       1       1       0       8       1       1       0       8
       1       1       0       8       1       1       0       8       1       1
       0       8       1       1       0       8       1       1       0       8
       1       1       0       8       1       1       0       8       1       1
       0       8       1       1       0       8       1       1       0       8
       1       1       0       8       1       1       0       8       1       1
       0       8       1       1       0       8       1       1       0       8
       1       1       0       8       1       1       0       8       1       1
       0       8       1       1       0       8       1       1       0       8
       1       1       0       8       1       1       0       8       1       1
       0       8       1       1       0       8       1       1       0       8
       1       1       0       8       1       1       0       8       1       1
       0       8       1       1       0       8       1       1       0       8
       1       1       0       8       1       1       0       8       1       1
       0       8       1       1       0       8       1       1       0       8
       1       1       0       8       1       1       0       8       1       1
       0       8       1       1       0       8       1       1       0       8
       1       1       0       8       1       1       0       8       1       1
       0       8       1       1       0       8       1       1       0       8
       1       1       0       8       1       1       0       8       1       1
       0       8       1       1       0       8       1       1       0       8
       1       1       0       8       1       1       0       8       1       1
       0       8       1       1       0       8       1       1       0       8
       1       1       0       8       1       1       0       8       1       1
       0       8       1       1       0       8       1       1       0       8
       1       1       0       8       1       1       0       8       1       1
       0       8       1       1       0       8       1       1       0       8
       1       1       0       8       1       1       0       8       1       1
       0       8       1       1       0       8       1       1       0       8
       1       1       0       8       1       1       0       8       1       1
       0       8       1       1       0       8       1       1       0       8
       1       1       0       8       1       1       0       8       1       1
       0       8       1       1       0       8       1       1       0       8
       1       1       0       8       1       1       0       8       1       1
       0       8       1       1       0       8       1       1       0       8
       1       1       0       8       1       1       0       8       1       1
       0       8       1       1       0       8       1       1       0       8
       1       1       0       8       1       1       0       8       1       1
       0       8       1       1       0       8       1       1       0       8
       1       1       0       8       1       1       0       8       1       1
       0       8       1       1       0       8       1       1       0       8
       1       1       0       8       1       1       0       8       1       1
       0       8       1       1       0       8       1       1       0       8
       1       1       0       8       1       1       0       8       1       1
       0       8       1       1       0       8       1       1       0       8
       1       1       0       8       1       1       0       8       1       1
       0       8       1       1       0       8       1       1       0       8
       1       1       0       8       1       1       0       8       1       1
       0       8       1       1       0       8       1       1       0       8
       1       1       0       8       1       1       0       8       1       1
       0       8       1       1       0       8       1       1       0       8
       1       1       0       8       1       1       0       8       1       1
       0       8       1       1       0       8       1       1       0       8
       1       1       0       8       1       1       0       8       1       1
       0       8       1       1       0       8       1       1       0       8
       1       1       0       8       1       1       0       8       1       1
       0       8       1       1       0       8       1       1       0       8
       1       1       0       8       1       1       0       8       1       1
       0       8       1       1       0       8       1       1       0       8
       1       1       0       8       1       1       0       8       1       1
       0       8       1       1       0       8       1       1       0       8
       1       1       0       8       1       1       0       8       1       1
       0       8       1       1       0       8       1       1       0       8
       1       1       0       8       1       1       0       8       1       1
       0       8       1       1       0       8       1       1       0       8
       1       1       0       8       1       1       0       8       1       1
       0       8       1       1       0       8       1       1       0       8
       1       1       0       8       1       1       0       8       1       1
       0       8       1       1       0       8       1       1       0       8
       1       1       0       8       1       1       0       8       1       1
       0       8       1       1       0       8       1       1       0       8
       1       1       0       8       1       1       0       8       1       1
       0       8       1       1       0       8       1       1       0       8
       1       1       0       8       1       1       0       8       1       1
       0       8       1       1       0       8       1       1       0       8
       1       1       0       8       1       1       0       8       1       1
       0       8       1       1       0       8       1       1       0       8
       1       1       0       8       1       1       0       8       1       1
       0       8       1       1       0       8       1       1       0       8
       1       1       0       8       1       1       0       8       1       1
       0       8       1       1       0       8       1       1       0       8
       1       1       0       8       1       1       0       8       1       1
       0       8       1       1       0       8       1       1       0       8
       1       1       0       8       1       1       0       8       1       1
       0       8       1       1       0       8       1       1       0       8
       1       1       0       8       1       1       0       8       1       1
       0       8       1       1       0       8       1       1       0       8
       1       1       0       8       1       1       0       8       1       1
       0       8       1       1       0       8       1       1       0       8
       1       1       0       8       1       1       0       8       1       1
       0       8       1       1       0       8       1       1       0       8
       1       1       0       8       1       1       0       8       1       1
       0       8       1       1       0       8       1       1       0       8
       1       1       0       8       1       1       0       8       1       1
       0       8       1       1       0       8       1       1       0       8
       1       1       0       8       1       1       0       8       1       1
       0       8       1       1       0       8       1       1       0       8
       1       1       0       8       1       1       0       8       1       1
       0       8       1       1       0       8       1       1       0       8
       1       1       0       8       1       1       0       8       1       1
       0       8       1       1       0       8       1       1       0       8
       1       1       0       8       1       1       0       8       1       1
       0       8       1       1       0       8       1       1       0       8
       1       1       0       8       1       1       0       8       1       1
       0       8       1       1       0       8       1       1       0       8
       1       1       0       8       1       1       0       8       1       1
       0       8       1       1       0       8       1       1       0       8
       1       1       0       8       1       1       0       8       1       1
       0       8       1       1       0       8       1       1       0       8
       1       1       0       8       1       1       0       8       1       1
       0       8       1       1       0       8       1       1       0       8
       1       1       0       8       1       1       0       8       1       1
       0       8       1       1       0       8       1       1       0       8
       1       1       0       8       1       1       0       8       1       1
       0       8       1       1       0       8       1       1       0       8
       1       1       0       8       1       1       0       8       1       1
       0       8       1       1       0       8       1       1       0       8
       1       1       0       8       1       1       0       8       1       1
       0       8       1       1       0       8       1       1       0       8
       1       1       0       8       1       1       0       8       1       1
       0       8       1       1       0       8       1       1       0       8
       1       1       0       8       1       1       0       8       1       1
       0       8       1       1       0       8       1       1       0       8
       1       1       0       8       1       1       0       8       1       1
       0       8       1       1       0       8       1       1       0       8
       1       1       0       8       1       1       0       8       1       1
       0       8       1       1       0       8       1       1       0       8
       1       1       0       8       1       1       0       8       1       1
       0       8       1       1       0       8       1       1       0       8
       1       1       0       8       1       1       0       8       1       1
       0       8       1       1       0       8       1       1       0       8
       1       1       0       8       1       1       0       8       1       1
       0       8       1       1       0       8       1       1       0       8
       1       1       0       8       1       1       0       8       1       1
       0       8       1       1       0       8       1       1       0       8
       1       1       0       8       1       1       0       8       1       1
       0       8       1       1       0       8       1       1       0       8
       1       1       0       8       1       1       0       8       1       1
       0       8       1       1       0       8       1       1       0       8
       1       1       0       8       1       1       0       8       1       1
       0       8       1       1       0       8       1       1       0       8
       1       1       0       8       1       1       0       8       1       1
       0       8       1       1       0       8       1       1       0       8
       1       1       0       8       1       1       0       8       1       1
       0       8       1       1       0       8       1       1       0       8
       1       1       0       8       1       1       0       8       1       1
       0       8       1       1       0       8       1       1       0       8
       1       1       0       8       1       1       0       8       1       1
       0       8       1       1       0       8       1       1       0       8
       1       1       0       8       1       1       0       8       1       1
       0       8       1       1       0       8       1       1       0       8
       1       1       0       8       1       1       0       8       1       1
       0       8       1       1       0       8       1       1       0       8
       1       1       0       8       1       1       0       8       1       1
       0       8       1       1       0       8       1       1       0       8
       1       1       0       8       1       1       0       8       1       1
       0       8       1       1       0       8       1       1       0       8
       1       1       0       8       1       1       0       8       1       1
       0       8       1       1       0       8       1       1       0       8
       1       1       0       8       1       1       0       8       1       1
       0       8       1       1       0       8       1       1       0       8
       1       1       0       8       1       1       0       8       1       1
       0       8       1       1       0       8       1       1       0       8
       1       1       0       8       1       1       0       8       1       1
       0       8       1       1       0       8       1       1       0       8
       1       1       0       8       1       1       0       8       1       1
       0       8       1       1       0       8       1       1       0       8
       1       1       0       8       1       1       0       8       1       1
       0       8       1       1       0       8       1       1       0       8
       1       1       0       8       1       1       0       8       1       1
       0       8       1       1       0       8       1       1       0       8
       1       1       0       8       1       1       0       8       1       1
       0       8       1       1       0       8       1       1       0       8
       1       1       0       8       1       1       0       8       1       1
       0       8       1       1       0       8       1       1       0       8
       1       1       0       8       1       1       0       8       1       1
       0       8       1       1       0       8       1       1       0       8
       1       1       0       8       1       1       0       8       1       1
       0       8       1       1       0       8       1       1       0       8
       1       1       0       8       1       1       0       8       1       1
       0       8       1       1       0       8       1       1       0       8
       1       1       0       8       1       1       0       8       1       1
       0       8       1       1       0       8       1       1       0       8
       1       1       0       8       1       1       0       8       1       1
       0       8       1       1       0       8       1       1       0       8
       1       1       0       8       1       1       0       8       1       1
       0       8       1       1       0       8       1       1       0       8
       1       1       0       8       1       1       0       8       1       1
       0       8       1       1       0       8       1       1       0       8
       1       1       0       8       1       1       0       8       1       1
       0       8       1       1       0       8       1       1       0       8
       1       1       0       8       1       1       0       8       1       1
       0       8       1       1       0       8       1       1       0       8
       1       1       0       8       1       1       0       8       1       1
       0       8       1       1       0       8       1       1       0       8
       1       1       0       8       1       1       0       8       1       1
       0       8       1       1       0       8       1       1       0       8
       1       1       0       8       1       1       0       8       1       1
       0       8       1       1       0       8       1       1       0       8
       1       1       0       8       1       1       0       8       1       1
       0       8       1       1       0       8       1       1       0       8
       1       1       0       8       1       1       0       8       1       1
       0       8       1       1       0       8       1       1       0       8
       1       1       0       8       1       1       0       8       1       1
       0       8       1       1       0       8       1       1       0       8
       1       1       0       8       1       1       0       8       1       1
       0       8       1       1       0       8       1       1       0       8
       1       1       0       8       1       1       0       8       1       1
       0       8       1       1       0       8       1       1       0       8
       1       1       0       8       1       1       0       8       1       1
       0       8       1       1       0       8       1       1       0       8
       1       1       0       8       1       1       0       8       1       1
       0       8       1       1       0       8       1       1       0       8
       1       1       0       8       1       1       0       8       1       1
       0       8       1       1       0       8       1       1       0       8
       1       1       0       8       1       1       0       8       1       1
       0       8       1       1       0       8       1       1       0       8
       1       1       0       8       1       1       0       8       1       1
       0       8       1       1       0       8       1       1       0       8
       1       1       0       8       1       1       0       8       1       1
       0       8       1       1       0       8       1       1       0       8
       1       1       0       8       1       1       0       8       1       1
       0       8       1       1       0       8       1       1       0       8
       1       1       0       8       1       1       0       8       1       1
       0       8       1       1       0       8       1       1       0       8
       1       1       0       8       1       1       0       8       1       1
       0       8       1       1       0       8       1       1       0       8
       1       1       0       8       1       1       0       8       1       1
       0       8       1       1       0       8       1       1       0       8
       1       1       0       8       1       1       0       8       1       1
       0       8       1       1       0       8       1       1       0       8
       1       1       0       8       1       1       0       8       1       1
       0       8       1       1       0       8       1       1       0       8
       1       1       0       8       1       1       0       8       1       1
       0       8       1       1       0       8       1       1       0       8
       1       1       0       8       1       1       0       8       1       1
       0       8       1       1       0       8       1       1       0       8
       1       1       0       8       1       1       0       8       1       1
       0       8       1       1       0       8       1       1       0       8
       1       1       0       8       1       1       0       8       1       1
       0       8       1       1       0       8       1       1       0       8
       1       1       0       8       1       1       0       8       1       1
       0       8       1       1       0       8       1       1       0       8
       1       1       0       8       1       1       0       8       1       1
       0       8       1       1       0       8       1       1       0       8
       1       1       0       8       1       1       0       8       1       1
       0       8       1       1       0       8       1       1       0       8
       1       1       0       8       1       1       0       8       1       1
       0       8       1       1       0       8       1       1       0       8
       1       1       0       8       1       1       0       8       1       1
       0       8       1       1       0       8       1       1       0       8
       1       1       0       8       1       1       0       8       1       1
       0       8       1       1       0       8       1       1       0       8
       1       1       0       8       1       1       0       8       1       1
       0       8       1       1       0       8       1       1       0       8
       1       1       0       8       1       1       0       8       1       1
       0       8       1       1       0       8       1       1       0       8
       1       1       0       8       1       1       0       8       1       1
       0       8       1       1       0       8       1       1       0       8
       1       1       0       8       1       1       0       8       1       1
       0       8       1       1       0       8       1       1       0       8
       1       1       0       8       1       1       0       8       1       1
       0       8       1       1       0       8       1       1       0       8
       1       1       0       8       1       1       0       8       1       1
       0       8       1       1       0       8       1       1       0       8
       1       1       0       8       1       1       0       8       1       1
       0       8       1       1       0       8       1       1       0       8
       1       1       0       8       1       1       0       8       1       1
       0       8       1       1       0       8       1       1       0       8
       1       1       0       8       1       1       0       8       1       1
       0       8       1       1       0       8       1       1       0       8
       1       1       0       8       1       1       0       8       1       1
       0       8       1       1       0       8       1       1       0       8
       1       1       0       8       1       1       0       8       1       1
       0       8       1       1       0       8       1       1       0       8
       1       1       0       8       1       1       0       8       1       1
       0       8       1       1       0       8       1       1       0       8
       1       1       0       8       1       1       0       8       1       1
       0       8       1       1       0       8       1       1       0       8
       1       1       0       8       1       1       0       8       1       1
       0       8       1       1       0       8       1       1       0       8
       1       1       0       8       1       1       0       8       1       1
       0       8       1       1       0       8       1       1       0       8
       1       1       0       8       1       1       0       8       1       1
       0       8       1       1       0       8       1       1       0       8
       1       1       0       8       1       1       0       8       1       1
       0       8       1       1       0       8       1       1       0       8
       1       1       0       8       1       1       0       8       1       1
       0       8       1       1       0       8       1       1       0       8
       1       1       0       8       1       1       0       8       1       1
       0       8       1       1       0       8       1       1       0       8
       1       1       0       8       1       1       0       8       1       1
       0       8       1       1       0       8       1       1       0       8
       1       1       0       8       1       1       0       8       1       1
       0       8       1       1       0       8       1       1       0       8
       1       1       0       8       1       1       0       8       1       1
       0       8       1       1       0       8       1       1       0       8
       1       1       0       8       1       1       0       8       1       1
       0       8       1       1       0       8       1       1       0       8
       1       1       0       8       1       1       0       8       1       1
       0       8       1       1       0       8       1       1       0       8
       1       1       0       8       1       1       0       8       1       1
       0       8       1       1       0       8       1       1       0       8
       1       1       0       8       1       1       0       8       1       1
       0       8       1       1       0       8       1       1       0       8
       1       1       0       8       1       1       0       8       1       1
       0       8       1       1       0       8       1       1       0       8
       1       1       0       8       1       1       0       8       1       1
       0       8       1       1       0       8       1       1       0       8
       1       1       0       8       1       1       0       8       1       1
       0       8       1       1       0       8       1       1       0       8
       1       1       0       8       1       1       0       8       1       1
       0       8       1       1       0       8       1       1       0       8
       1       1       0       8       1       1       0       8       1       1
       0       8       1       1       0       8       1       1       0       8
       1       1       0       8       1       1       0       8       1       1
       0       8       1       1       0       8       1       1       0       8
       1       1       0       8       1       1       0       8       1       1
       0       8       1       1       0       8       1       1       0       8
       1       1       0       8       1       1       0       8       1       1
       0       8       1       1       0       8       1       1       0       8
       1       1       0       8       1       1       0       8       1       1
       0       8       1       1       0       8       1       1       0       8
       1       1       0       8       1       1       0       8       1       1
       0       8       1       1       0       8       1       1       0       8
       1       1       0       8       1       1       0       8       1       1
       0       8       1       1       0       8       1       1       0       8
       1       1       0       8       1       1       0       8       1       1
       0       8       1       1       0       8       1       1       0       8
       1       1       0       8       1       1       0       8       1       1
       0       8       1       1       0       8       1       1       0       8
       1       1       0       8       1       1       0       8       1       1
       0       8       1       1       0       8       1       1       0       8
       1       1       0       8       1       1       0       8       1       1
       0       8       1       1       0       8       1       1       0       8
       1       1       0       8       1       1       0       8       1       1
       0       8       1       1       0       8       1       1       0       8
       1       1       0       8       1       1       0       8       1       1
       0       8       1       1       0       8       1       1       0       8
       1       1       0       8       1       1       0       8       1       1
       0       8       1       1       0       8       1       1       0       8
       1       1       0       8       1       1       0       8       1       1
       0       8       1       1       0       8       1       1       0       8
       1       1       0       8       1       1       0       8       1       1
       0       8       1       1       0       8       1       1       0       8
       1       1       0       8       1       1       0       8       1       1
       0       8       1       1       0       8       1       1       0       8
       1       1       0       8       1       1       0       8       1       1
       0       8       1       1       0       8       1       1       0       8
       1       1       0       8       1       1       0       8       1       1
       0       8       1       1       0       8       1       1       0       8
       1       1       0       8       1       1       0       8       1       1
       0       8       1       1       0       8       1       1       0       8
       1       1       0       8       1       1       0       8       1       1
       0       8       1       1       0       8       1       1       0       8
       1       1       0       8       1       1       0       8       1       1
       0       8       1       1       0       8       1       1       0       8
       1       1       0       8       1       1       0       8       1       1
       0       8       1       1       0       8       1       1       0       8
       1       1       0       8       1       1       0       8       1       1
       0       8       1       1       0       8       1       1       0       8
       1       1       0       8       1       1       0       8       1       1
       0       8       1       1       0       8       1       1       0       8
       1       1       0       8       1       1       0       8       1       1
       0       8       1       1       0       8       1       1       0       8
       1       1       0       8       1       1       0       8       1       1
       0       8       1       1       0       8       1       1       0       8
       1       1       0       8       1       1       0       8       1       1
       0       8       1       1       0       8       1       1       0       8
       1       1       0       8       1       1       0       8       1       1
       0       8       1       1       0       8       1       1       0       8
       1       1       0       8       1       1       0       8       1       1
       0       8       1       1       0       8       1       1       0       8
       1       1       0       8       1       1       0       8       1       1
       0       8       1       1       0       8       1       1       0       8
       1       1       0       8       1       1       0       8       1       1
       0       8       1       1       0       8       1       1       0       8
       1       1       0       8       1       1       0       8       1       1
       0       8       1       1       0       8       1       1       0       8
       1       1       0       8       1       1       0       8       1       1
       0       8       1       1       0       8       1       1       0       8
       1       1       0       8       1       1       0       8       1       1
       0       8       1       1       0       8       1       1       0       8
       1       1       0       8       1       1       0       8       1       1
       0       8       1       1       0       8       1       1       0       8
       1       1       0       8       1       1       0       8       1       1
       0       8       1       1       0       8       1       1       0       8
       1       1       0       8       1       1       0       8       1       1
       0       8       1       1       0       8       1       1       0       8
       1       1       0       8       1       1       0       8       1       1
       0       8       1       1       0       8       1       1       0       8
       1       1       0       8       1       1       0       8       1       1
       0       8       1       1       0       8       1       1       0       8
       1       1       0       8       1       1       0       8       1       1
       0       8       1       1       0       8       1       1       0       8
       1       1       0       8       1       1       0       8       1       1
       0       8       1       1       0       8       1       1       0       8
       1       1       0       8       1       1       0       8       1       1
       0       8       1       1       0       8       1       1       0       8
       1       1       0       8       1       1       0       8       1       1
       0       8       1       1       0       8       1       1       0       8
       1       1       0       8       1       1       0       8       1       1
       0       8       1       1       0       8       1       1       0       8
       1       1       0       8       1       1       0       8       1       1
       0       8       1       1       0       8       1       1       0       8
       1       1       0       8       1       1       0       8       1       1
       0       8       1       1       0       8       1       1       0       8
       1       1       0       8       1       1       0       8       1       1
       0       8       1       1       0       8       1       1       0       8
       1       1       0       8       1       1       0       8       1       1
       0       8       1       1       0       8       1       1       0       8
       1       1       0       8       1       1       0       8       1       1
       0       8       1       1       0       8       1       1       0       8
       1       1       0       8       1       1       0       8       1       1
       0       8       1       1       0       8       1       1       0       8
       1       1       0       8       1       1       0       8       1       1
       0       8       1       1       0       8       1       1       0       8
       1       1       0       8       1       1       0       8       1       1
       0       8       1       1       0       8       1       1       0       8
       1       1       0       8       1       1       0       8       1       1
       0       8       1       1       0       8       1       1       0       8
       1       1       0       8       1       1       0       8       1       1
       0       8       1       1       0       8       1       1       0       8
       1       1       0       8       1       1       0       8       1       1
       0       8       1       1       0       8       1       1       0       8
       1       1       0       8       1       1       0       8       1       1
       0       8       1       1       0       8       1       1       0       8
       1       1       0       8       1       1       0       8       1       1
       0       8       1       1       0       8       1       1       0       8
       1       1       0       8       1       1       0       8       1       1
       0       8       1       1       0       8       1       1       0       8
       1       1       0       8       1       1       0       8       1       1
       0       8       1       1       0       8       1       1       0       8
       1       1       0       8       1       1       0       8       1       1
       0       8       1       1       0       8       1       1       0       8
       1       1       0       8       1       1       0       8       1       1
       0       8       1       1       0       8       1       1       0       8
       1       1       0       8       1       1       0       8       1       1
       0       8       1       1       0       8       1       1       0       8
       1       1       0       8       1       1       0       8       1       1
       0       8       1       1       0       8       1       1       0       8
       1       1       0       8       1       1       0       8       1       1
       0       8       1       1       0       8       1       1       0       8
       1       1       0       8       1       1       0       8       1       1
       0       8       1       1       0       8       1       1       0       8
       1       1       0       8       1       1       0       8       1       1
       0       8       1       1       0       8       1       1       0       8
       1       1       0       8       1       1       0       8       1       1
       0       8       1       1       0       8       1       1       0       8
       1       1       0       8       1       1       0       8       1       1
       0       8       1       1       0       8       1       1       0       8
       1       1       0       8       1       1       0       8       1       1
       0       8       1       1       0       8       1       1       0       8
       1       1       0       8       1       1       0       8       1       1
       0       8       1       1       0       8       1       1       0       8
       1       1       0       8       1       1       0       8       1       1
       0       8       1       1       0       8       1       1       0       8
       1       1       0       8       1       1       0       8       1       1
       0       8       1       1       0       8       1       1       0       8
       1       1       0       8       1       1       0       8       1       1
       0       8       1       1       0       8       1       1       0       8
       1       1       0       8       1       1       0       8       1       1
       0       8       1       1       0       8       1       1       0       8
       1       1       0       8       1       1       0       8       1       1
       0       8       1       1       0       8       1       1       0       8
       1       1       0       8       1       1       0       8       1       1
       0       8       1       1       0       8       1       1       0       8
       1       1       0       8       1       1       0       8       1       1
       0       8       1       1       0       8       1       1       0       8
       1       1       0       8       1       1       0       8       1       1
       0       8       1       1       0       8       1       1       0       8
       1       1       0       8       1       1       0       8       1       1
       0       8       1       1       0       8       1       1       0       8
       1       1       0       8       1       1       0       8       1       1
       0       8       1       1       0       8       1       1       0       8
       1       1       0       8       1       1       0       8       1       1
       0       8       1       1       0       8       1       1       0       8
       1       1       0       8       1       1       0       8       1       1
       0       8       1       1       0       8       1       1       0       8
       1       1       0       8       1       1       0       8       1       1
       0       8       1       1       0       8       1       1       0       8
       1       1       0       8       1       1       0       8       1       1
       0       8       1       1       0       8       1       1       0       8
       1       1       0       8       1       1       0       8       1       1
       0       8       1       1       0       8       1       1       0       8
       1       1       0       8       1       1       0       8       1       1
       0       8       1       1       0       8       1       1       0       8
       1       1       0       8       1       1       0       8       1       1
       0       8       1       1       0       8       1       1       0       8
       1       1       0       8       1       1       0       8       1       1
       0       8       1       1       0       8       1       1       0       8
       1       1       0       8       1       1       0       8       1       1
       0       8       1       1       0       8       1       1       0       8
       1       1       0       8       1       1       0       8       1       1
       0       8       1       1       0       8       1       1       0       8
       1       1       0       8       1       1       0       8       1       1
       0       8       1       1       0       8       1       1       0       8
       1       1       0       8       1       1       0       8       1       1
       0       8       1       1       0       8       1       1       0       8
       1       1       0       8       1       1       0       8       1       1
       0       8       1       1       0       8       1       1       0       8
       1       1       0       8       1       1       0       8       1       1
       0       8       1       1       0       8       1       1       0       8
       1       1       0       8       1       1       0       8       1       1
       0       8       1       1       0       8       1       1       0       8
       1       1       0       8       1       1       0       8       1       1
       0       8       1       1       0       8       1       1       0       8
       1       1       0       8       1       1       0       8       1       1
       0       8       1       1       0       8       1       1       0       8
       1       1       0       8       1       1       0       8       1       1
       0       8       1       1       0       8       1       1       0       8
       1       1       0       8       1       1       0       8       1       1
       0       8       1       1       0       8       1       1       0       8
       1       1       0       8       1       1       0       8       1       1
       0       8       1       1       0       8       1       1       0       8
       1       1       0       8       1       1       0       8       1       1
       0       8       1       1       0       8       1       1       0       8
       1       1       0       8       1       1       0       8       1       1
       0       8       1       1       0       8       1       1       0       8
       1       1       0       8       1       1       0       8       1       1
       0       8       1       1       0       8       1       1       0       8
       1       1       0       8       1       1       0       8       1       1
       0       8       1       1       0       8       1       1       0       8
       1       1       0       8       1       1       0       8       1       1
       0       8       1       1       0       8       1       1       0       8
       1       1       0       8       1       1       0       8       1       1
       0       8       1       1       0       8       1       1       0       8
       1       1       0       8       1       1       0       8       1       1
       0       8       1       1       0       8       1       1       0       8
       1       1       0       8       1       1       0       8       1       1
       0       8       1       1       0       8       1       1       0       8
       1       1       0       8       1       1       0       8       1       1
       0       8       1       1       0       8       1       1       0       8
       1       1       0       8       1       1       0       8       1       1
       0       8       1       1       0       8       1       1       0       8
       1       1       0       8       1       1       0       8       1       1
       0       8       1       1       0       8       1       1       0       8
       1       1       0       8       1       1       0       8       1       1
       0       8       1       1       0       8       1       1       0       8
       1       1       0       8       1       1       0       8       1       1
       0       8       1       1       0       8       1       1       0       8
       1       1       0       8       1       1       0       8       1       1
       0       8       1       1       0       8       1       1       0       8
       1       1       0       8       1       1       0       8       1       1
       0       8       1       1       0       8       1       1       0       8
       1       1       0       8       1       1       0       8       1       1
       0       8       1       1       0       8       1       1       0       8
       1       1       0       8       1       1       0       8       1       1
       0       8       1       1       0       8       1       1       0       8
       1       1       0       8       1       1       0       8       1       1
       0       8       1       1       0       8       1       1       0       8
       1       1       0       8       1       1       0       8       1       1
       0       8       1       1       0       8       1       1       0       8
       1       1       0       8       1       1       0       8       1       1
       0       8       1       1       0       8       1       1       0       8
       1       1       0       8       1       1       0       8       1       1
       0       8       1       1       0       8       1       1       0       8
       1       1       0       8       1       1       0       8       1       1
       0       8       1       1       0       8       1       1       0       8
       1       1       0       8       1       1       0       8       1       1
       0       8       1       1       0       8       1       1       0       8
       1       1       0       8       1       1       0       8       1       1
       0       8       1       1       0       8       1       1       0       8
       1       1       0       8       1       1       0       8       1       1
       0       8       1       1       0       8       1       1       0       8
       1       1       0       8       1       1       0       8       1       1
       0       8       1       1       0       8       1       1       0       8
       1       1       0       8       1       1       0       8       1       1
       0       8       1       1       0       8       1       1       0       8
       1       1       0       8       1       1       0       8       1       1
       0       8       1       1       0       8       1       1       0       8
       1       1       0       8       1       1       0       8       1       1
       0       8       1       1       0       8       1       1       0       8
       1       1       0       8       1       1       0       8       1       1
       0       8       1       1       0       8       1       1       0       8
       1       1       0       8       1       1       0       8       1       1
       0       8       1       1       0       8       1       1       0       8
       1       1       0       8       1       1       0       8       1       1
       0       8       1       1       0       8       1       1       0       8
       1       1       0       8       1       1       0       8       1       1
       0       8       1       1       0       8       1       1       0       8
       1       1       0       8       1       1       0       8       1       1
       0       8       1       1       0       8       1       1       0       8
       1       1       0       8       1       1       0       8       1       1
       0       8       1       1       0       8       1       1       0       8
       1       1       0       8       1       1       0       8       1       1
       0       8       1       1       0       8       1       1       0       8
       1       1       0       8       1       1       0       8       1       1
       0       8       1       1       0       8       1       1       0       8
       1       1       0       8       1       1       0       8       1       1
       0       8       1       1       0       8       1       1       0       8
       1       1       0       8       1       1       0       8       1       1
       0       8       1       1       0       8       1       1       0       8
       1       1       0       8       1       1       0       8       1       1
       0       8       1       1       0       8       1       1       0       8
       1       1       0       8       1       1       0       8       1       1
       0       8       1       1       0       8       1       1       0       8
       1       1       0       8       1       1       0       8       1       1
       0       8       1       1       0       8       1       1       0       8
       1       1       0       8       1       1       0       8       1       1
       0       8       1       1       0       8       1       1       0       8
       1       1       0       8       1       1       0       8       1       1
       0       8       1       1       0       8       1       1       0       8
       1       1       0       8       1       1       0       8       1       1
       0       8       1       1       0       8       1       1       0       8
       1       1       0       8       1       1       0       8       1       1
       0       8       1       1       0       8       1       1       0       8
       1       1       0       8       1       1       0       8       1       1
       0       8       1       1       0       8       1       1       0       8
       1       1       0       8       1       1       0       8       1       1
       0       8       1       1       0       8       1       1       0       8
       1       1       0       8       1       1       0       8       1       1
       0       8       1       1       0       8       1       1       0       8
       1       1       0       8       1       1       0       8       1       1
       0       8       1       1       0       8       1       1       0       8
       1       1       0       8       1       1       0       8       1       1
       0       8       1       1       0       8       1       1       0       8
       1       1       0       8       1       1       0       8       1       1
       0       8       1       1       0       8       1       1       0       8
       1       1       0       8       1       1       0       8       1       1
       0       8       1       1       0       8       1       1       0       8
       1       1       0       8       1       1       0       8       1       1
       0       8       1       1       0       8       1       1       0       8
       1       1       0       8       1       1       0       8       1       1
       0       8       1       1       0       8       1       1       0       8
       1       1       0       8       1       1       0       8       1       1
       0       8       1       1       0       8       1       1       0       8
       1       1       0       8       1       1       0       8       1       1
       0       8       1       1       0       8       1       1       0       8
       1       1       0       8       1       1       0       8       1       1
       0       8       1       1       0       8       1       1       0       8
       1       1       0       8       1       1       0       8       1       1
       0       8       1       1       0       8       1       1       0       8
       1       1       0       8       1       1       0       8       1       1
       0       8       1       1       0       8       1       1       0       8
       1       1       0       8       1       1       0       8       1       1
       0       8       1       1       0       8       1       1       0       8
       1       1       0       8       1       1       0       8       1       1
       0       8       1       1       0       8       1       1       0       8
       1       1       0       8       1       1       0       8       1       1
       0       8       1       1       0       8       1       1       0       8
       1       1       0       8       1       1       0       8       1       1
       0       8       1       1       0       8       1       1       0       8
       1       1       0       8       1       1       0       8       1       1
       0       8       1       1       0       8       1       1       0       8
       1       1       0       8       1       1       0       8       1       1
       0       8       1       1       0       8       1       1       0       8
       1       1       0       8       1       1       0       8       1       1
       0       8       1       1       0       8       1       1       0       8
       1       1       0       8       1       1       0       8       1       1
       0       8       1       1       0       8       1       1       0       8
       1       1       0       8       1       1       0       8       1       1
       0       8       1       1       0       8       1       1       0       8
       1       1       0       8       1       1       0       8       1       1
       0       8       1       1       0       8       1       1       0       8
       1       1       0       8       1       1       0       8       1       1
       0       8       1       1       0       8       1       1       0       8
       1       1       0       8       1       1       0       8       1       1
       0       8       1       1       0       8       1       1       0       8
       1       1       0       8       1       1       0       8       1       1
       0       8       1       1       0       8       1       1       0       8
       1       1       0       8       1       1       0       8       1       1
       0       8       1       1       0       8       1       1       0       8
       1       1       0       8       1       1       0       8       1       1
       0       8       1       1       0       8       1       1       0       8
       1       1       0       8       1       1       0       8       1       1
       0       8       1       1       0       8       1       1       0       8
       1       1       0       8       1       1       0       8       1       1
       0       8       1       1       0       8       1       1       0       8
       1       1       0       8       1       1       0       8       1       1
       0       8       1       1       0       8       1       1       0       8
       1       1       0       8       1       1       0       8       1       1
       0       8       1       1       0       8       1       1       0       8
       1       1       0       8       1       1       0       8       1       1
       0       8       1       1       0       8       1       1       0       8
       1       1       0       8       1       1       0       8       1       1
       0       8       1       1       0       8       1       1       0       8
       1       1       0       8       1       1       0       8       1       1
       0       8       1       1       0       8       1       1       0       8
       1       1       0       8       1       1       0       8       1       1
       0       8       1       1       0       8       1       1       0       8
       1       1       0       8       1       1       0       8       1       1
       0       8       1       1       0       8       1       1       0       8
       1       1       0       8       1       1       0       8       1       1
       0       8       1       1       0       8       1       1       0       8
       1       1       0       8       1       1       0       8       1       1
       0       8       1       1       0       8       1       1       0       8
       1       1       0       8       1       1       0       8       1       1
       0       8       1       1       0       8       1       1       0       8
       1       1       0       8       1       1       0       8       1       1
       0       8       1       1       0       8       1       1       0       8
       1       1       0       8       1       1       0       8       1       1
       0       8       1       1       0       8       1       1       0       8
       1       1       0       8       1       1       0       8       1       1
       0       8       1       1       0       8       1       1       0       8
       1       1       0       8       1       1       0       8       1       1
       0       8       1       1       0       8       1       1       0       8
       1       1       0       8       1       1       0       8       1       1
       0       8       1       1       0       8       1       1       0       8
       1       1       0       8       1       1       0       8       1       1
       0       8       1       1       0       8       1       1       0       8
       1       1       0       8       1       1       0       8       1       1
       0       8       1       1       0       8       1       1       0       8
       1       1       0       8       1       1       0       8       1       1
       0       8       1       1       0       8       1       1       0       8
       1       1       0       8       1       1       0       8       1       1
       0       8       1       1       0       8       1       1       0       8
       1       1       0       8       1       1       0       8       1       1
       0       8       1       1       0       8       1       1       0       8
       1       1       0       8       1       1       0       8       1       1
       0       8       1       1       0       8       1       1       0       8
       1       1       0       8       1       1       0       8       1       1
       0       8       1       1       0       8       1       1       0       8
       1       1       0       8       1       1       0       8       1       1
       0       8       1       1       0       8       1       1       0       8
       1       1       0       8       1       1       0       8       1       1
       0       8       1       1       0       8       1       1       0       8
       1       1       0       8       1       1       0       8       1       1
       0       8       1       1       0       8       1       1       0       8
       1       1       0       8       1       1       0       8       1       1
       0       8       1       1       0       8       1       1       0       8
       1       1       0       8       1       1       0       8       1       1
       0       8       1       1       0       8       1       1       0       8
       1       1       0       8       1       1       0       8       1       1
       0       8       1       1       0       8       1       1       0       8
       1       1       0       8       1       1       0       8       1       1
       0       8       1       1       0       8       1       1       0       8
       1       1       0       8       1       1       0       8       1       1
       0       8       1       1       0       8       1       1       0       8
       1       1       0       8       1       1       0       8       1       1
       0       8       1       1       0       8       1       1       0       8
       1       1       0       8       1       1       0       8       1       1
       0       8       1       1       0       8       1       1       0       8
       1       1       0       8       1       1       0       8       1       1
       0       8       1       1       0       8       1       1       0       8
       1       1       0       8       1       1       0       8       1       1
       0       8       1       1       0       8       1       1       0       8
       1       1       0       8       1       1       0       8       1       1
       0       8       1       1       0       8       1       1       0       8
       1       1       0       8       1       1       0       8       1       1
       0       8       1       1       0       8       1       1       0       8
       1       1       0       8       1       1       0       8       1       1
       0       8       1       1       0       8       1       1       0       8
       1       1       0       8       1       1       0       8       1       1
       0       8       1       1       0       8       1       1       0       8
       1       1       0       8       1       1       0       8       1       1
       0       8       1       1       0       8       1       1       0       8
       1       1       0       8       1       1       0       8       1       1
       0       8       1       1       0       8       1       1       0       8
       1       1       0       8       1       1       0       8       1       1
       0       8       1       1       0       8       1       1       0       8
       1       1       0       8       1       1       0       8       1       1
       0       8       1       1       0       8       1       1       0       8
       1       1       0       8       1       1       0       8       1       1
       0       8       1       1       0       8       1       1       0       8
       1       1       0       8       1       1       0       8       1       1
       0       8       1       1       0       8       1       1       0       8
       1       1       0       8       1       1       0       8       1       1
       0       8       1       1       0       8       1       1       0       8
       1       1       0       8       1       1       0       8       1       1
       0       8       1       1       0       8       1       1       0       8
       1       1       0       8       1       1       0       8       1       1
       0       8       1       1       0       8       1       1       0       8
       1       1       0       8       1       1       0       8       1       1
       0       8       1       1       0       8       1       1       0       8
       1       1       0       8       1       1       0       8       1       1
       0       8       1       1       0       8       1       1       0       8
       1       1       0       8       1       1       0       8       1       1
       0       8       1       1       0       8       1       1       0       8
       1       1       0       8       1       1       0       8       1       1
       0       8       1       1       0       8       1       1       0       8
       1       1       0       8       1       1       0       8       1       1
       0       8       1       1       0       8       1       1       0       8
       1       1       0       8       1       1       0       8       1       1
       0       8       1       1       0       8       1       1       0       8
       1       1       0       8       1       1       0       8       1       1
       0       8       1       1       0       8       1       1       0       8
       1       1       0       8       1       1       0       8       1       1
       0       8       1       1       0       8       1       1       0       8
       1       1       0       8       1       1       0       8       1       1
       0       8       1       1       0       8       1       1       0       8
       1       1       0       8       1       1       0       8       1       1
       0       8       1       1       0       8       1       1       0       8
       1       1       0       8       1       1       0       8       1       1
       0       8       1       1       0       8       1       1       0       8
       1       1       0       8       1       1       0       8       1       1
       0       8       1       1       0       8       1       1       0       8
       1       1       0       8       1       1       0       8       1       1
       0       8       1       1       0       8       1       1       0       8
       1       1       0       8       1       1       0       8       1       1
       0       8       1       1       0       8       1       1       0       8
       1       1       0       8       1       1       0       8       1       1
       0       8       1       1       0       8       1       1       0       8
       1       1       0       8       1       1       0       8       1       1
       0       8       1       1       0       8       1       1       0       8
       1       1       0       8       1       1       0       8       1       1
       0       8       1       1       0       8       1       1       0       8
       1       1       0       8       1       1       0       8       1       1
       0       8       1       1       0       8       1       1       0       8
       1       1       0       8       1       1       0       8       1       1
       0       8       1       1       0       8       1       1       0       8
       1       1       0       8       1       1       0       8       1       1
       0       8       1       1       0       8       1       1       0       8
       1       1       0       8       1       1       0       8       1       1
       0       8       1       1       0       8       1       1       0       8
       1       1       0       8       1       1       0       8       1       1
       0       8       1       1       0       8       1       1       0       8
       1       1       0       8       1       1       0       8       1       1
       0       8       1       1       0       8       1       1       0       8
       1       1       0       8       1       1       0       8       1       1
       0       8       1       1       0       8       1       1       0       8
       1       1       0       8       1       1       0       8       1       1
       0       8       1       1       0       8       1       1       0       8
       1       1       0       8       1       1       0       8       1       1
       0       8       1       1       0       8       1       1       0       8
       1       1       0       8       1       1       0       8       1       1
       0       8       1       1       0       8       1       1       0       8
       1       1       0       8       1       1       0       8       1       1
       0       8       1       1       0       8       1       1       0       8
       1       1       0       8       1       1       0       8       1       1
       0       8       1       1       0       8       1       1       0       8
       1       1       0       8       1       1       0       8       1       1
       0       8       1       1       0       8       1       1       0       8
       1       1       0       8       1       1       0       8       1       1
       0       8       1       1       0       8       1       1       0       8
       1       1       0       8       1       1       0       8       1       1
       0       8       1       1       0       8       1       1       0       8
       1       1       0       8       1       1       0       8       1       1
       0       8       1       1       0       8       1       1       0       8
       1       1       0       8       1       1       0       8       1       1
       0       8       1       1       0       8       1       1       0       8
       1       1       0       8       1       1       0       8       1       1
       0       8       1       1       0       8       1       1       0       8
       1       1       0       8       1       1       0       8       1       1
       0       8       1       1       0       8       1       1       0       8
       1       1       0       8       1       1       0       8       1       1
       0       8       1       1       0       8       1       1       0       8
       1       1       0       8       1       1       0       8       1       1
       0       8       1       1       0       8       1       1       0       8
       1       1       0       8       1       1       0       8       1       1
       0       8       1       1       0       8       1       1       0       8
       1       1       0       8       1       1       0       8       1       1
       0       8       1       1       0       8       1       1       0       8
       1       1       0       8       1       1       0       8       1       1
       0       8       1       1       0       8       1       1       0       8
       1       1       0       8       1       1       0       8       1       1
       0       8       1       1       0       8       1       1       0       8
       1       1       0       8       1       1       0       8       1       1
       0       8       1       1       0       8       1       1       0       8
       1       1       0       8       1       1       0       8       1       1
       0       8       1       1       0       8       1       1       0       8
       1       1       0       8       1       1       0       8       1       1
       0       8       1       1       0       8       1       1       0       8
       1       1       0       8       1       1       0       8       1       1
       0       8       1       1       0       8       1       1       0       8
       1       1       0       8       1       1       0       8       1       1
       0       8       1       1       0       8       1       1       0       8
       1       1       0       8       1       1       0       8       1       1
       0       8       1       1       0       8       1       1       0       8
       1       1       0       8       1       1       0       8       1       1
       0       8       1       1       0       8       1       1       0       8
       1       1       0       8       1       1       0       8       1       1
       0       8       1       1       0       8       1       1       0       8
       1       1       0       8       1       1       0       8       1       1
       0       8       1       1       0       8       1       1       0       8
       1       1       0       8       1       1       0       8       1       1
       0       8       1       1       0       8       1       1       0       8
       1       1       0       8       1       1       0       8       1       1
       0       8       1       1       0       8       1       1       0       8
       1       1       0       8       1       1       0       8       1       1
       0       8       1       1       0       8       1       1       0       8
       1       1       0       8       1       1       0       8       1       1
       0       8       1       1       0       8       1       1       0       8
       1       1       0       8       1       1       0       8       1       1
       0       8       1       1       0       8       1       1       0       8
       1       1       0       8       1       1       0       8       1       1
       0       8       1       1       0       8       1       1       0       8
       1       1       0       8       1       1       0       8       1       1
       0       8       1       1       0       8       1       1       0       8
       1       1       0       8       1       1       0       8       1       1
       0       8       1       1       0       8       1       1       0       8
       1       1       0       8       1       1       0       8       1       1
       0       8       1       1       0       8       1       1       0       8
       1       1       0       8       1       1       0       8       1       1
       0       8       1       1       0       8       1       1       0       8
       1       1       0       8       1       1       0       8       1       1
       0       8       1       1       0       8       1       1       0       8
       1       1       0       8       1       1       0       8       1       1
       0       8       1       1       0       8       1       1       0       8
       1       1       0       8       1       1       0       8       1       1
       0       8       1       1       0       8       1       1       0       8
       1       1       0       8       1       1       0       8       1       1
       0       8       1       1       0       8       1       1       0       8
       1       1       0       8       1       1       0       8       1       1
       0       8       1       1       0       8       1       1       0       8
       1       1       0       8       1       1       0       8       1       1
       0       8       1       1       0       8       1       1       0       8
       1       1       0       8       1       1       0       8       1       1
       0       8       1       1       0       8       1       1       0       8
       1       1       0       8       1       1       0       8       1       1
       0       8       1       1       0       8       1       1       0       8
       1       1       0       8       1       1       0       8       1       1
       0       8       1       1       0       8       1       1       0       8
       1       1       0       8       1       1       0       8       1       1
       0       8       1       1       0       8       1       1       0       8
       1       1       0       8       1       1       0       8       1       1
       0       8       1       1       0       8       1       1       0       8
       1       1       0       8       1       1       0       8       1       1
       0       8       1       1       0       8       1       1       0       8
       1       1       0       8       1       1       0       8       1       1
       0       8       1       1       0       8       1       1       0       8
       1       1       0       8       1       1       0       8       1       1
       0       8       1       1       0       8       1       1       0       8
       1       1       0       8       1       1       0       8       1       1
       0       8       1       1       0       8       1       1       0       8
       1       1       0       8       1       1       0       8       1       1
       0       8       1       1       0       8       1       1       0       8
       1       1       0       8       1       1       0       8       1       1
       0       8       1       1       0       8       1       1       0       8
       1       1       0       8       1       1       0       8       1       1
       0       8       1       1       0       8       1       1       0       8
       1       1       0       8       1       1       0       8       1       1
       0       8       1       1       0       8       1       1       0       8
       1       1       0       8       1       1       0       8       1       1
       0       8       1       1       0       8       1       1       0       8
       1       1       0       8       1       1       0       8       1       1
       0       8       1       1       0       8       1       1       0       8
       1       1       0       8       1       1       0       8       1       1
       0       8       1       1       0       8       1       1       0       8
       1       1       0       8       1       1       0       8       1       1
       0       8       1       1       0       8       1       1       0       8
       1       1       0       8       1       1       0       8       1       1
       0       8       1       1       0       8       1       1       0       8
       1       1       0       8       1       1       0       8       1       1
       0       8       1       1       0       8       1       1       0       8
       1       1       0       8       1       1       0       8       1       1
       0       8       1       1       0       8       1       1       0       8
       1       1       0       8       1       1       0       8       1       1
       0       8       1       1       0       8       1       1       0       8
       1       1       0       8       1       1       0       8       1       1
       0       8       1       1       0       8       1       1       0       8
       1       1       0       8       1       1       0       8       1       1
       0       8       1       1       0       8       1       1       0       8
       1       1       0       8       1       1       0       8       1       1
       0       8       1       1       0       8       1       1       0       8
       1       1       0       8       1       1       0       8       1       1
       0       8       1       1       0       8       1       1       0       8
       1       1       0       8       1       1       0       8       1       1
       0       8       1       1       0       8       1       1       0       8
       1       1       0       8       1       1       0       8       1       1
       0       8       1       1       0       8       1       1       0       8
       1       1       0       8       1       1       0       8       1       1
       0       8       1       1       0       8       1       1       0       8
       1       1       0       8       1       1       0       8       1       1
       0       8       1       1       0       8       1       1       0       8
       1       1       0       8       1       1       0       8       1       1
       0       8       1       1       0       8       1       1       0       8
       1       1       0       8       1       1       0       8       1       1
       0       8       1       1       0       8       1       1       0       8
       1       1       0       8       1       1       0       8       1       1
       0       8       1       1       0       8       1       1       0       8
       1       1       0       8       1       1       0       8       1       1
       0       8       1       1       0       8       1       1       0       8
       1       1       0       8       1       1       0       8       1       1
       0       8       1       1       0       8       1       1       0       8
       1       1       0       8       1       1       0       8       1       1
       0       8       1       1       0       8       1       1       0       8
       1       1       0       8       1       1       0       8       1       1
       0       8       1       1       0       8       1       1       0       8
       1       1       0       8       1       1       0       8       1       1
       0       8       1       1       0       8       1       1       0       8
       1       1       0       8       1       1       0       8       1       1
       0       8       1       1       0       8       1       1       0       8
       1       1       0       8       1       1       0       8       1       1
       0       8       1       1       0       8       1       1       0       8
       1       1       0       8       1       1       0       8       1       1
       0       8       1       1       0       8       1       1       0       8
       1       1       0       8       1       1       0       8       1       1
       0       8       1       1       0       8       1       1       0       8
       1       1       0       8       1       1       0       8       1       1
       0       8       1       1       0       8       1       1       0       8
       1       1       0       8       1       1       0       8       1       1
       0       8       1       1       0       8       1       1       0       8
       1       1       0       8       1       1       0       8       1       1
       0       8       1       1       0       8       1       1       0       8
       1       1       0       8       1       1       0       8       1       1
       0       8       1       1       0       8       1       1       0       8
       1       1       0       8       1       1       0       8       1       1
       0       8       1       1       0       8       1       1       0       8
       1       1       0       8       1       1       0       8       1       1
       0       8       1       1       0       8       1       1       0       8
       1       1       0       8       1       1       0       8       1       1
       0       8       1       1       0       8       1       1       0       8
       1       1       0       8       1       1       0       8       1       1
       0       8       1       1       0       8       1       1       0       8
       1       1       0       8       1       1       0       8       1       1
       0       8       1       1       0       8       1       1       0       8
       1       1       0       8       1       1       0       8       1       1
       0       8       1       1       0       8       1       1       0       8
       1       1       0       8       1       1       0       8       1       1
       0       8       1       1       0       8       1       1       0       8
       1       1       0       8       1       1       0       8       1       1
       0       8       1       1       0       8       1       1       0       8
       1       1       0       8       1       1       0       8       1       1
       0       8       1       1       0       8       1       1       0       8
       1       1       0       8       1       1       0       8       1       1
       0       8       1       1       0       8       1       1       0       8
       1       1       0       8       1       1       0       8       1       1
       0       8       1       1       0       8       1       1       0       8
       1       1       0       8       1       1       0       8       1       1
       0       8       1       1       0       8       1       1       0       8
       1       1       0       8       1       1       0       8       1       1
       0       8       1       1       0       8       1       1       0       8
       1       1       0       8       1       1       0       8       1       1
       0       8       1       1       0       8       1       1       0       8
       1       1       0       8       1       1       0       8       1       1
       0       8       1       1       0       8       1       1       0       8
       1       1       0       8       1       1       0       8       1       1
       0       8       1       1       0       8       1       1       0       8
       1       1       0       8       1       1       0       8       1       1
       0       8       1       1       0       8       1       1       0       8
       1       1       0       8       1       1       0       8       1       1
       0       8       1       1       0       8       1       1       0       8
       1       1       0       8       1       1       0       8       1       1
       0       8       1       1       0       8       1       1       0       8
       1       1       0       8       1       1       0       8       1       1
       0       8       1       1       0       8       1       1       0       8
       1       1       0       8       1       1       0       8       1       1
       0       8       1       1       0       8       1       1       0       8
       1       1       0       8       1       1       0       8       1       1
       0       8       1       1       0       8       1       1       0       8
       1       1       0       8       1       1       0       8       1       1
       0       8       1       1       0       8       1       1       0       8
       1       1       0       8       1       1       0       8       1       1
       0       8       1       1       0       8       1       1       0       8
       1       1       0       8       1       1       0       8       1       1
       0       8       1       1       0       8       1       1       0       8
       1       1       0       8       1       1       0       8       1       1
       0       8       1       1       0       8       1       1       0       8
       1       1       0       8       1       1       0       8       1       1
       0       8       1       1       0       8       1       1       0       8
       1       1       0       8       1       1       0       8       1       1
       0       8       1       1       0       8       1       1       0       8
       1       1       0       8       1       1       0       8       1       1
       0       8       1       1       0       8       1       1       0       8
       1       1       0       8       1       1       0       8       1       1
       0       8       1       1       0       8       1       1       0       8
       1       1       0       8       1       1       0       8       1       1
       0       8       1       1       0       8       1       1       0       8
       1       1       0       8       1       1       0       8       1       1
       0       8       1       1       0       8       1       1       0       8
       1       1       0       8       1       1       0       8       1       1
       0       8       1       1       0       8       1       1       0       8
       1       1       0       8       1       1       0       8       1       1
       0       8       1       1       0       8       1       1       0       8
       1       1       0       8       1       1       0       8       1       1
       0       8       1       1       0       8       1       1       0       8
       1       1       0       8       1       1       0       8       1       1
       0       8       1       1       0       8       1       1       0       8
       1       1       0       8       1       1       0       8       1       1
       0       8       1       1       0       8       1       1       0       8
       1       1       0       8       1       1       0       8       1       1
       0       8       1       1       0       8       1       1       0       8
       1       1       0       8       1       1       0       8       1       1
       0       8       1       1       0       8       1       1       0       8
       1       1       0       8       1       1       0       8       1       1
       0       8       1       1       0       8       1       1       0       8
       1       1       0       8       1       1       0       8       1       1
       0       8       1       1       0       8       1       1       0       8
       1       1       0       8       1       1       0       8       1       1
       0       8       1       1       0       8       1       1       0       8
       1       1       0       8       1       1       0       8       1       1
       0       8       1       1       0       8       1       1       0       8
       1       1       0       8       1       1       0       8       1       1
       0       8       1       1       0       8       1       1       0       8
       1       1       0       8       1       1       0       8       1       1
       0       8       1       1       0       8       1       1       0       8
       1       1       0       8       1       1       0       8       1       1
       0       8       1       1       0       8       1       1       0       8
       1       1       0       8       1       1       0       8       1       1
       0       8       1       1       0       8       1       1       0       8
       1       1       0       8       1       1       0       8       1       1
       0       8       1       1       0       8       1       1       0       8
       1       1       0       8       1       1       0       8       1       1
       0       8       1       1       0       8       1       1       0       8
       1       1       0       8       1       1       0       8       1       1
       0       8       1       1       0       8       1       1       0       8
       1       1       0       8       1       1       0       8       1       1
       0       8       1       1       0       8       1       1       0       8
       1       1       0       8       1       1       0       8       1       1
       0       8       1       1       0       8       1       1       0       8
       1       1       0       8       1       1       0       8       1       1
       0       8       1       1       0       8       1       1       0       8
       1       1       0       8       1       1       0       8       1       1
       0       8       1       1       0       8       1       1       0       8
       1       1       0       8       1       1       0       8       1       1
       0       8       1       1       0       8       1       1       0       8
       1       1       0       8       1       1       0       8       1       1
       0       8       1       1       0       8       1       1       0       8
       1       1       0       8       1       1       0       8       1       1
       0       8       1       1       0       8       1       1       0       8
       1       1       0       8       1       1       0       8       1       1
       0       8       1       1       0       8       1       1       0       8
       1       1       0       8       1       1       0       8       1       1
       0       8       1       1       0       8       1       1       0       8
       1       1       0       8       1       1       0       8       1       1
       0       8       1       1       0       8       1       1       0       8
       1       1       0       8       1       1       0       8       1       1
       0       8       1       1       0       8       1       1       0       8
       1       1       0       8       1       1       0       8       1       1
       0       8       1       1       0       8       1       1       0       8
       1       1       0       8       1       1       0       8       1       1
       0       8       1       1       0       8       1       1       0       8
       1       1       0       8       1       1       0       8       1       1
       0       8       1       1       0       8       1       1       0       8
       1       1       0       8       1       1       0       8       1       1
       0       8       1       1       0       8       1       1       0       8
       1       1       0       8       1       1       0       8       1       1
       0       8       1       1       0       8       1       1       0       8
       1       1       0       8       1       1       0       8       1       1
       0       8       1       1       0       8       1       1       0       8
       1       1       0       8       1       1       0       8       1       1
       0       8       1       1       0       8       1       1       0       8
       1       1       0       8       1       1       0       8       1       1
       0       8       1       1       0       8       1       1       0       8
       1       1       0       8       1       1       0       8       1       1
       0       8       1       1       0       8       1       1       0       8
       1       1       0       8       1       1       0       8       1       1
       0       8       1       1       0       8       1       1       0       8
       1       1       0       8       1       1       0       8       1       1
       0       8       1       1       0       8       1       1       0       8
       1       1       0       8       1       1       0       8       1       1
       0       8       1       1       0       8       1       1       0       8
       1       1       0       8       1       1       0       8       1       1
       0       8       1       1       0       8       1       1       0       8
       1       1       0       8       1       1       0       8       1       1
       0       8       1       1       0       8       1       1       0       8
       1       1       0       8       1       1       0       8       1       1
       0       8       1       1       0       8       1       1       0       8
       1       1       0       8       1       1       0       8       1       1
       0       8       1       1       0       8       1       1       0       8
       1       1       0       8       1       1       0       8       1       1
       0       8       1       1       0       8       1       1       0       8
       1       1       0       8       1       1       0       8       1       1
       0       8       1       1       0       8       1       1       0       8
       1       1       0       8       1       1       0       8       1       1
       0       8       1       1       0       8       1       1       0       8
       1       1       0       8       1       1       0       8       1       1
       0       8       1       1       0       8       1       1       0       8
       1       1       0       8       1       1       0       8       1       1
       0       8       1       1       0       8       1       1       0       8
       1       1       0       8       1       1       0       8       1       1
       0       8       1       1       0       8       1       1       0       8
       1       1       0       8       1       1       0       8       1       1
       0       8       1       1       0       8       1       1       0       8
       1       1       0       8       1       1       0       8       1       1
       0       8       1       1       0       8       1       1       0       8
       1       1       0       8       1       1       0       8       1       1
       0       8       1       1       0       8       1       1       0       8
       1       1       0       8       1       1       0       8       1       1
       0       8       1       1       0       8       1       1       0       8
       1       1       0       8       1       1       0       8       1       1
       0       8       1       1       0       8       1       1       0       8
       1       1       0       8       1       1       0       8       1       1
       0       8       1       1       0       8       1       1       0       8
       1       1       0       8       1       1       0       8       1       1
       0       8       1       1       0       8       1       1       0       8
       1       1       0       8       1       1       0       8       1       1
       0       8       1       1       0       8       1       1       0       8
       1       1       0       8       1       1       0       8       1       1
       0       8       1       1       0       8       1       1       0       8
       1       1       0       8       1       1       0       8       1       1
       0       8       1       1       0       8       1       1       0       8
       1       1       0       8       1       1       0       8       1       1
       0       8       1       1       0       8       1       1       0       8
       1       1       0       8       1       1       0       8       1       1
       0       8       1       1       0       8       1       1       0       8
       1       1       0       8       1       1       0       8       1       1
       0       8       1       1       0       8       1       1       0       8
       1       1       0       8       1       1       0       8       1       1
       0       8       1       1       0       8       1       1       0       8
       1       1       0       8       1       1       0       8       1       1
       0       8       1       1       0       8       1       1       0       8
       1       1       0       8       1       1       0       8       1       1
       0       8       1       1       0       8       1       1       0       8
       1       1       0       8       1       1       0       8       1       1
       0       8       1       1       0       8       1       1       0       8
       1       1       0       8       1       1       0       8       1       1
       0       8       1       1       0       8       1       1       0       8
       1       1       0       8       1       1       0       8       1       1
       0       8       1       1       0       8       1       1       0       8
       1       1       0       8       1       1       0       8       1       1
       0       8       1       1       0       8       1       1       0       8
       1       1       0       8       1       1       0       8       1       1
       0       8       1       1       0       8       1       1       0       8
       1       1       0       8       1       1       0       8       1       1
       0       8       1       1       0       8       1       1       0       8
       1       1       0       8       1       1       0       8       1       1
       0       8       1       1       0       8       1       1       0       8
       1       1       0       8       1       1       0       8       1       1
       0       8       1       1       0       8       1       1       0       8
       1       1       0       8       1       1       0       8       1       1
       0       8       1       1       0       8       1       1       0       8
       1       1       0       8       1       1       0       8       1       1
       0       8       1       1       0       8       1       1       0       8
       1       1       0       8       1       1       0       8       1       1
       0       8       1       1       0       8       1       1       0       8
       1       1       0       8       1       1       0       8       1       1
       0       8       1       1       0       8       1       1       0       8
       1       1       0       8       1       1       0       8       1       1
       0       8       1       1       0       8       1       1       0       8
       1       1       0       8       1       1       0       8       1       1
       0       8       1       1       0       8       1       1       0       8
       1       1       0       8       1       1       0       8       1       1
       0       8       1       1       0       8       1       1       0       8
       1       1       0       8       1       1       0       8       1       1
       0       8       1       1       0       8       1       1       0       8
       1       1       0       8       1       1       0       8       1       1
       0       8       1       1       0       8       1       1       0       8
       1       1       0       8       1       1       0       8       1       1
       0       8       1       1       0       8       1       1       0       8
       1       1       0       8       1       1       0       8       1       1
       0       8       1       1       0       8       1       1       0       8
       1       1       0       8       1       1       0       8       1       1
       0       8       1       1       0       8       1       1       0       8
       1       1       0       8       1       1       0       8       1       1
       0       8       1       1       0       8       1       1       0       8
       1       1       0       8       1       1       0       8       1       1
       0       8       1       1       0       8       1       1       0       8
       1       1       0       8       1       1       0       8       1       1
       0       8       1       1       0       8       1       1       0       8
       1       1       0       8       1       1       0       8       1       1
       0       8       1       1       0       8       1       1       0       8
       1       1       0       8       1       1       0       8       1       1
       0       8       1       1       0       8       1       1       0       8
       1       1       0       8       1       1       0       8       1       1
       0       8       1       1       0       8       1       1       0       8
       1       1       0       8       1       1       0       8       1       1
       0       8       1       1       0       8       1       1       0       8
       1       1       0       8       1       1       0       8       1       1
       0       8       1       1       0       8       1       1       0       8
       1       1       0       8       1       1       0       8       1       1
       0       8       1       1       0       8       1       1       0       8
       1       1       0       8       1       1       0       8       1       1
       0       8       1       1       0       8       1       1       0       8
       1       1       0       8       1       1       0       8       1       1
       0       8       1       1       0       8       1       1       0       8
       1       1       0       8       1       1       0       8       1       1
       0       8       1       1       0       8       1       1       0       8
       1       1       0       8       1       1       0       8       1       1
       0       8       1       1       0       8       1       1       0       8
       1       1       0       8       1       1       0       8       1       1
       0       8       1       1       0       8       1       1       0       8
       1       1       0       8       1       1       0       8       1       1
       0       8       1       1       0       8       1       1       0       8
       1       1       0       8       1       1       0       8       1       1
       0       8       1       1       0       8       1       1       0       8
       1       1       0       8       1       1       0       8       1       1
       0       8       1       1       0       8       1       1       0       8
       1       1       0       8       1       1       0       8       1       1
       0       8       1       1       0       8       1       1       0       8
       1       1       0       8       1       1       0       8       1       1
       0       8       1       1       0       8       1       1       0       8
       1       1       0       8       1       1       0       8       1       1
       0       8       1       1       0       8       1       1       0       8
       1       1       0       8       1       1       0       8       1       1
       0       8       1       1       0       8       1       1       0       8
       1       1       0       8       1       1       0       8       1       1
       0       8       1       1       0       8       1       1       0       8
       1       1       0       8       1       1       0       8       1       1
       0       8       1       1       0       8       1       1       0       8
       1       1       0       8       1       1       0       8       1       1
       0       8       1       1       0       8       1       1       0       8
       1       1       0       8       1       1       0       8       1       1
       0       8       1       1       0       8       1       1       0       8
       1       1       0       8       1       1       0       8       1       1
       0       8       1       1       0       8       1       1       0       8
       1       1       0       8       1       1       0       8       1       1
       0       8       1       1       0       8       1       1       0       8
       1       1       0       8       1       1       0       8       1       1
       0       8       1       1       0       8       1       1       0       8
       1       1       0       8       1       1       0       8       1       1
       0       8       1       1       0       8       1       1       0       8
       1       1       0       8       1       1       0       8       1       1
       0       8       1       1       0       8       1       1       0       8
       1       1       0       8       1       1       0       8       1       1
       0       8       1       1       0       8       1       1       0       8
       1       1       0       8       1       1       0       8       1       1
       0       8       1       1       0       8       1       1       0       8
       1       1       0       8       1       1       0       8       1       1
       0       8       1       1       0       8       1       1       0       8
       1       1       0       8       1       1       0       8       1       1
       0       8       1       1       0       8       1       1       0       8
       1       1       0       8       1       1       0       8       1       1
       0       8       1       1       0       8       1       1       0       8
       1       1       0       8       1       1       0       8       1       1
       0       8       1       1       0       8       1       1       0       8
       1       1       0       8       1       1       0       8       1       1
       0       8       1       1       0       8       1       1       0       8
       1       1       0       8       1       1       0       8       1       1
       0       8       1       1       0       8       1       1       0       8
       1       1       0       8       1       1       0       8       1       1
       0       8       1       1       0       8       1       1       0       8
       1       1       0       8       1       1       0       8       1       1
       0       8       1       1       0       8       1       1       0       8
       1       1       0       8       1       1       0       8       1       1
       0       8       1       1       0       8       1       1       0       8
       1       1       0       8       1       1       0       8       1       1
       0       8       1       1       0       8       1       1       0       8
       1       1       0       8       1       1       0       8       1       1
       0       8       1       1       0       8       1       1       0       8
       1       1       0       8       1       1       0       8       1       1
       0       8       1       1       0       8       1       1       0       8
       1       1       0       8       1       1       0       8       1       1
       0       8       1       1       0       8       1       1       0       8
       1       1       0       8       1       1       0       8       1       1
       0       8       1       1       0       8       1       1       0       8
       1       1       0       8       1       1       0       8       1       1
       0       8       1       1       0       8       1       1       0       8
       1       1       0       8       1       1       0       8       1       1
       0       8       1       1       0       8       1       1       0       8
       1       1       0       8       1       1       0       8       1       1
       0       8       1       1       0       8       1       1       0       8
       1       1       0       8       1       1       0       8       1       1
       0       8       1       1       0       8       1       1       0       8
       1       1       0       8       1       1       0       8       1       1
       0       8       1       1       0       8       1       1       0       8
       1       1       0       8       1       1       0       8       1       1
       0       8       1       1       0       8       1       1       0       8
       1       1       0       8       1       1       0       8       1       1
       0       8       1       1       0       8       1       1       0       8
       1       1       0       8       1       1       0       8       1       1
       0       8       1       1       0       8       1       1       0       8
       1       1       0       8       1       1       0       8       1       1
       0       8       1       1       0       8       1       1       0       8
       1       1       0       8       1       1       0       8       1       1
       0       8       1       1       0       8       1       1       0       8
       1       1       0       8       1       1       0       8       1       1
       0       8       1       1       0       8       1       1       0       8
       1       1       0       8       1       1       0       8       1       1
       0       8       1       1       0       8       1       1       0       8
       1       1       0       8       1       1       0       8       1       1
       0       8       1       1       0       8       1       1       0       8
       1       1       0       8       1       1       0       8       1       1
       0       8       1       1       0       8       1       1       0       8
       1       1       0       8       1       1       0       8       1       1
       0       8       1       1       0       8       1       1       0       8
       1       1       0       8       1       1       0       8       1       1
       0       8       1       1       0       8       1       1       0       8
       1       1       0       8       1       1       0       8       1       1
       0       8       1       1       0       8       1       1       0       8
       1       1       0       8       1       1       0       8       1       1
       0       8       1       1       0       8       1       1       0       8
       1       1       0       8       1       1       0       8       1       1
       0       8       1       1       0       8       1       1       0       8
       1       1       0       8       1       1       0       8       1       1
       0       8       1       1       0       8       1       1       0       8
       1       1       0       8       1       1       0       8       1       1
       0       8       1       1       0       8       1       1       0       8
       1       1       0       8       1       1       0       8       1       1
       0       8       1       1       0       8       1       1       0       8
       1       1       0       8       1       1       0       8       1       1
       0       8       1       1       0       8       1       1       0       8
       1       1       0       8       1       1       0       8       1       1
       0       8       1       1       0       8       1       1       0       8
       1       1       0       8       1       1       0       8       1       1
       0       8       1       1       0       8       1       1       0       8
       1       1       0       8       1       1       0       8       1       1
       0       8       1       1       0       8       1       1       0       8
       1       1       0       8       1       1       0       8       1       1
       0       8       1       1       0       8       1       1       0       8
       1       1       0       8       1       1       0       8       1       1
       0       8       1       1       0       8       1       1       0       8
       1       1       0       8       1       1       0       8       1       1
       0       8       1       1       0       8       1       1       0       8
       1       1       0       8       1       1       0       8       1       1
       0       8       1       1       0       8       1       1       0       8
       1       1       0       8       1       1       0       8       1       1
       0       8       1       1       0       8       1       1       0       8
       1       1       0       8       1       1       0       8       1       1
       0       8       1       1       0       8       1       1       0       8
       1       1       0       8       1       1       0       8       1       1
       0       8       1       1       0       8       1       1       0       8
       1       1       0       8       1       1       0       8       1       1
       0       8       1       1       0       8       1       1       0       8
       1       1       0       8       1       1       0       8       1       1
       0       8       1       1       0       8       1       1       0       8
       1       1       0       8       1       1       0       8       1       1
       0       8       1       1       0       8       1       1       0       8
       1       1       0       8       1       1       0       8       1       1
       0       8       1       1       0       8       1       1       0       8
       1       1       0       8       1       1       0       8       1       1
       0       8       1       1       0       8       1       1       0       8
       1       1       0       8       1       1       0       8       1       1
       0       8       1       1       0       8       1       1       0       8
       1       1       0       8       1       1       0       8       1       1
       0       8       1       1       0       8       1       1       0       8
       1       1       0       8       1       1       0       8       1       1
       0       8       1       1       0       8       1       1       0       8
       1       1       0       8       1       1       0       8       1       1
       0       8       1       1       0       8       1       1       0       8
       1       1       0       8       1       1       0       8       1       1
       0       8       1       1       0       8       1       1       0       8
       1       1       0       8       1       1       0       8       1       1
       0       8       1       1       0       8       1       1       0       8
       1       1       0       8       1       1       0       8       1       1
       0       8       1       1       0       8       1       1       0       8
       1       1       0       8       1       1       0       8       1       1
       0       8       1       1       0       8       1       1       0       8
       1       1       0       8       1       1       0       8       1       1
       0       8       1       1       0       8       1       1       0       8
       1       1       0       8       1       1       0       8       1       1
       0       8       1       1       0       8       1       1       0       8
       1       1       0       8       1       1       0       8       1       1
       0       8       1       1       0       8       1       1       0       8
       1       1       0       8       1       1       0       8       1       1
       0       8       1       1       0       8       1       1       0       8
       1       1       0       8       1       1       0       8       1       1
       0       8       1       1       0       8       1       1       0       8
       1       1       0       8       1       1       0       8       1       1
       0       8       1       1       0       8       1       1       0       8
       1       1       0       8       1       1       0       8       1       1
       0       8       1       1       0       8       1       1       0       8
       1       1       0       8       1       1       0       8       1       1
       0       8       1       1       0       8       1       1       0       8
       1       1       0       8       1       1       0       8       1       1
       0       8       1       1       0       8       1       1       0       8
       1       1       0       8       1       1       0       8       1       1
       0       8       1       1       0       8       1       1       0       8
       1       1       0       8       1       1       0       8       1       1
       0       8       1       1       0       8       1       1       0       8
       1       1       0       8       1       1       0       8       1       1
       0       8       1       1       0       8       1       1       0       8
       1       1       0       8       1       1       0       8       1       1
       0       8       1       1       0       8       1       1       0       8
       1       1       0       8       1       1       0       8       1       1
       0       8       1       1       0       8       1       1       0       8
       1       1       0       8       1       1       0       8       1       1
       0       8       1       1       0       8       1       1       0       8
       1       1       0       8       1       1       0       8       1       1
       0       8       1       1       0       8       1       1       0       8
       1       1       0       8       1       1       0       8       1       1
       0       8       1       1       0       8       1       1       0       8
       1       1       0       8       1       1       0       8       1       1
       0       8       1       1       0       8       1       1       0       8
       1       1       0       8       1       1       0       8       1       1
       0       8       1       1       0       8       1       1       0       8
       1       1       0       8       1       1       0       8       1       1
       0       8       1       1       0       8       1       1       0       8
       1       1       0       8       1       1       0       8       1       1
       0       8       1       1       0       8       1       1       0       8
       1       1       0       8       1       1       0       8       1       1
       0       8       1       1       0       8       1       1       0       8
       1       1       0       8       1       1       0       8       1       1
       0       8       1       1       0       8       1       1       0       8
       1       1       0       8       1       1       0       8       1       1
       0       8       1       1       0       8       1       1       0       8
       1       1       0       8       1       1       0       8       1       1
       0       8       1       1       0       8       1       1       0       8
       1       1       0       8       1       1       0       8       1       1
       0       8       1       1       0       8       1       1       0       8
       1       1       0       8       1       1       0       8       1       1
       0       8       1       1       0       8       1       1       0       8
       1       1       0       8       1       1       0       8       1       1
       0       8       1       1       0       8       1       1       0       8
       1       1       0       8       1       1       0       8       1       1
       0       8       1       1       0       8       1       1       0       8
       1       1       0       8       1       1       0       8       1       1
       0       8       1       1       0       8       1       1       0       8
       1       1       0       8       1       1       0       8       1       1
       0       8       1       1       0       8       1       1       0       8
       1       1       0       8       1       1       0       8       1       1
       0       8       1       1       0       8       1       1       0       8
       1       1       0       8       1       1       0       8       1       1
       0       8       1       1       0       8       1       1       0       8
       1       1       0       8       1       1       0       8       1       1
       0       8       1       1       0       8       1       1       0       8
       1       1       0       8       1       1       0       8       1       1
       0       8       1       1       0       8       1       1       0       8
       1       1       0       8       1       1       0       8       1       1
       0       8       1       1       0       8       1       1       0       8
       1       1       0       8       1       1       0       8       1       1
       0       8       1       1       0       8       1       1       0       8
       1       1       0       8       1       1       0       8       1       1
       0       8       1       1       0       8       1       1       0       8
       1       1       0       8       1       1       0       8       1       1
       0       8       1       1       0       8       1       1       0       8
       1       1       0       8       1       1       0       8       1       1
       0       8       1       1       0       8       1       1       0       8
       1       1       0       8       1       1       0       8       1       1
       0       8       1       1       0       8       1       1       0       8
       1       1       0       8       1       1       0       8       1       1
       0       8       1       1       0       8       1       1       0       8
       1       1       0       8       1       1       0       8       1       1
       0       8       1       1       0       8       1       1       0       8
       1       1       0       8       1       1       0       8       1       1
       0       8       1       1       0       8       1       1       0       8
       1       1       0       8       1       1       0       8       1       1
       0       8       1       1       0       8       1       1       0       8
       1       1       0       8       1       1       0       8       1       1
       0       8       1       1       0       8       1       1       0       8
       1       1       0       8       1       1       0       8       1       1
       0       8       1       1       0       8       1       1       0       8
       1       1       0       8       1       1       0       8       1       1
       0       8       1       1       0       8       1       1       0       8
       1       1       0       8       1       1       0       8       1       1
       0       8       1       1       0       8       1       1       0       8
       1       1       0       8       1       1       0       8       1       1
       0       8       1       1       0       8       1       1       0       8
       1       1       0       8       1       1       0       8       1       1
       0       8       1       1       0       8       1       1       0       8
       1       1       0       8       1       1       0       8       1       1
       0       8       1       1       0       8       1       1       0       8
       1       1       0       8       1       1       0       8       1       1
       0       8       1       1       0       8       1       1       0       8
       1       1       0       8       1       1       0       8       1       1
       0       8       1       1       0       8       1       1       0       8
       1       1       0       8       1       1       0       8       1       1
       0       8       1       1       0       8       1       1       0       8
       1       1       0       8       1       1       0       8       1       1
       0       8       1       1       0       8       1       1       0       8
       1       1       0       8       1       1       0       8       1       1
       0       8       1       1       0       8       1       1       0       8
       1       1       0       8       1       1       0       8       1       1
       0       8       1       1       0       8       1       1       0       8
       1       1       0       8       1       1       0       8       1       1
       0       8       1       1       0       8       1       1       0       8
       1       1       0       8       1       1       0       8       1       1
       0       8       1       1       0       8       1       1       0       8
       1       1       0       8       1       1       0       8       1       1
       0       8       1       1       0       8       1       1       0       8
       1       1       0       8       1       1       0       8       1       1
       0       8       1       1       0       8       1       1       0       8
       1       1       0       8       1       1       0       8       1       1
       0       8       1       1       0       8       1       1       0       8
       1       1       0       8       1       1       0       8       1       1
       0       8       1       1       0       8       1       1       0       8
       1       1       0       8       1       1       0       8       1       1
       0       8       1       1       0       8       1       1       0       8
       1       1       0       8       1       1       0       8       1       1
       0       8       1       1       0       8       1       1       0       8
       1       1       0       8       1       1       0       8       1       1
       0       8       1       1       0       8       1       1       0       8
       1       1       0       8       1       1       0       8       1       1
       0       8       1       1       0       8       1       1       0       8
       1       1       0       8       1       1       0       8       1       1
       0       8       1       1       0       8       1       1       0       8
       1       1       0       8       1       1       0       8       1       1
       0       8       1       1       0       8       1       1       0       8
       1       1       0       8       1       1       0       8       1       1
       0       8       1       1       0       8       1       1       0       8
       1       1       0       8       1       1       0       8       1       1
       0       8       1       1       0       8       1       1       0       8
       1       1       0       8       1       1       0       8       1       1
       0       8       1       1       0       8       1       1       0       8
       1       1       0       8       1       1       0       8       1       1
       0       8       1       1       0       8       1       1       0       8
       1       1       0       8       1       1       0       8       1       1
       0       8       1       1       0       8       1       1       0       8
       1       1       0       8       1       1       0       8       1       1
       0       8       1       1       0       8       1       1       0       8
       1       1       0       8       1       1       0       8       1       1
       0       8       1       1       0       8       1       1       0       8
       1       1       0       8       1       1       0       8       1       1
       0       8       1       1       0       8       1       1       0       8
       1       1       0       8       1       1       0       8       1       1
       0       8       1       1       0       8       1       1       0       8
       1       1       0       8       1       1       0       8       1       1
       0       8       1       1       0       8       1       1       0       8
       1       1       0       8       1       1       0       8       1       1
       0       8       1       1       0       8       1       1       0       8
       1       1       0       8       1       1       0       8       1       1
       0       8       1       1       0       8       1       1       0       8
       1       1       0       8       1       1       0       8       1       1
       0       8       1       1       0       8       1       1       0       8
       1       1       0       8       1       1       0       8       1       1
       0       8       1       1       0       8       1       1       0       8
       1       1       0       8       1       1       0       8       1       1
       0       8       1       1       0       8       1       1       0       8
       1       1       0       8       1       1       0       8       1       1
       0       8       1       1       0       8       1       1       0       8
       1       1       0       8       1       1       0       8       1       1
       0       8       1       1       0       8       1       1       0       8
       1       1       0       8       1       1       0       8       1       1
       0       8       1       1       0       8       1       1       0       8
       1       1       0       8       1       1       0       8       1       1
       0       8       1       1       0       8       1       1       0       8
       1       1       0       8       1       1       0       8       1       1
       0       8       1       1       0       8       1       1       0       8
       1       1       0       8       1       1       0       8       1       1
       0       8       1       1       0       8       1       1       0       8
       1       1       0       8       1       1       0       8       1       1
       0       8       1       1       0       8       1       1       0       8
       1       1       0       8       1       1       0       8       1       1
       0       8       1       1       0       8       1       1       0       8
       1       1       0       8       1       1       0       8       1       1
       0       8       1       1       0       8       1       1       0       8
       1       1       0       8       1       1       0       8       1       1
       0       8       1       1       0       8       1       1       0       8
       1       1       0       8       1       1       0       8       1       1
       0       8       1       1       0       8       1       1       0       8
       1       1       0       8       1       1       0       8       1       1
       0       8       1       1       0       8       1       1       0       8
       1       1       0       8       1       1       0       8       1       1
       0       8       1       1       0       8       1       1       0       8
       1       1       0       8       1       1       0       8       1       1
       0       8       1       1       0       8       1       1       0       8
       1       1       0       8       1       1       0       8       1       1
       0       8       1       1       0       8       1       1       0       8
       1       1       0       8       1       1       0       8       1       1
       0       8       1       1       0       8       1       1       0       8
       1       1       0       8       1       1       0       8       1       1
       0       8       1       1       0       8       1       1       0       8
       1       1       0       8       1       1       0       8       1       1
       0       8       1       1       0       8       1       1       0       8
       1       1       0       8       1       1       0       8       1       1
       0       8       1       1       0       8       1       1       0       8
       1       1       0       8       1       1       0       8       1       1
       0       8       1       1       0       8       1       1       0       8
       1       1       0       8       1       1       0       8       1       1
       0       8       1       1       0       8       1       1       0       8
       1       1       0       8       1       1       0       8       1       1
       0       8       1       1       0       8       1       1       0       8
       1       1       0       8       1       1       0       8       1       1
       0       8       1       1       0       8       1       1       0       8
       1       1       0       8       1       1       0       8       1       1
       0       8       1       1       0       8       1       1       0       8
       1       1       0       8       1       1       0       8       1       1
       0       8       1       1       0       8       1       1       0       8
       1       1       0       8       1       1       0       8       1       1
       0       8       1       1       0       8       1       1       0       8
       1       1       0       8       1       1       0       8       1       1
       0       8       1       1       0       8       1       1       0       8
       1       1       0       8       1       1       0       8       1       1
       0       8       1       1       0       8       1       1       0       8
       1       1       0       8       1       1       0       8       1       1
       0       8       1       1       0       8       1       1       0       8
       1       1       0       8       1       1       0       8       1       1
       0       8       1       1       0       8       1       1       0       8
       1       1       0       8       1       1       0       8       1       1
       0       8       1       1       0       8       1       1       0       8
       1       1       0       8       1       1       0       8       1       1
       0       8       1       1       0       8       1       1       0       8
       1       1       0       8       1       1       0       8       1       1
       0       8       1       1       0       8       1       1       0       8
       1       1       0       8       1       1       0       8       1       1
       0       8       1       1       0       8       1       1       0       8
       1       1       0       8       1       1       0       8       1       1
       0       8       1       1       0       8       1       1       0       8
       1       1       0       8       1       1       0       8       1       1
       0       8       1       1       0       8       1       1       0       8
       1       1       0       8       1       1       0       8       1       1
       0       8       1       1       0       8       1       1       0       8
       1       1       0       8       1       1       0       8       1       1
       0       8       1       1       0       8       1       1       0       8
       1       1       0       8       1       1       0       8       1       1
       0       8       1       1       0       8       1       1       0       8
       1       1       0       8       1       1       0       8       1       1
       0       8       1       1       0       8       1       1       0       8
       1       1       0       8       1       1       0       8       1       1
       0       8       1       1       0       8       1       1       0       8
       1       1       0       8       1       1       0       8       1       1
       0       8       1       1       0       8       1       1       0       8
       1       1       0       8       1       1       0       8       1       1
       0       8       1       1       0       8       1       1       0       8
       1       1       0       8       1       1       0       8       1       1
       0       8       1       1       0       8       1       1       0       8
       1       1       0       8       1       1       0       8       1       1
       0       8       1       1       0       8       1       1       0       8
       1       1       0       8       1       1       0       8       1       1
       0       8       1       1       0       8       1       1       0       8
       1       1       0       8       1       1       0       8       1       1
       0       8       1       1       0       8       1       1       0       8
       1       1       0       8       1       1       0       8       1       1
       0       8       1       1       0       8       1       1       0       8
       1       1       0       8       1       1       0       8       1       1
       0       8       1       1       0       8       1       1       0       8
       1       1       0       8       1       1       0       8       1       1
       0       8       1       1       0       8       1       1       0       8
       1       1       0       8       1       1       0       8       1       1
       0       8       1       1       0       8       1       1       0       8
       1       1       0       8       1       1       0       8       1       1
       0       8       1       1       0       8       1       1       0       8
       1       1       0       8       1       1       0       8       1       1
       0       8       1       1       0       8       1       1       0       8
       1       1       0       8       1       1       0       8       1       1
       0       8       1       1       0       8       1       1       0       8
       1       1       0       8       1       1       0       8       1       1
       0       8       1       1       0       8       1       1       0       8
       1       1       0       8       1       1       0       8       1       1
       0       8       1       1       0       8       1       1       0       8
       1       1       0       8       1       1       0       8       1       1
       0       8       1       1       0       8       1       1       0       8
       1       1       0       8       1       1       0       8       1       1
       0       8       1       1       0       8       1       1       0       8
       1       1       0       8       1       1       0       8       1       1
       0       8       1       1       0       8       1       1       0       8
       1       1       0       8       1       1       0       8       1       1
       0       8       1       1       0       8       1       1       0       8
       1       1       0       8       1       1       0       8       1       1
       0       8       1       1       0       8       1       1       0       8
       1       1       0       8       1       1       0       8       1       1
       0       8       1       1       0       8       1       1       0       8
       1       1       0       8       1       1       0       8       1       1
       0       8       1       1       0       8       1       1       0       8
       1       1       0       8       1       1       0       8       1       1
       0       8       1       1       0       8       1       1       0       8
       1       1       0       8       1       1       0       8       1       1
       0       8       1       1       0       8       1       1       0       8
       1       1       0       8       1       1       0       8       1       1
       0       8       1       1       0       8       1       1       0       8
       1       1       0       8       1       1       0       8       1       1
       0       8       1       1       0       8       1       1       0       8
       1       1       0       8       1       1       0       8       1       1
       0       8       1       1       0       8       1       1       0       8
       1       1       0       8       1       1       0       8       1       1
       0       8       1       1       0       8       1       1       0       8
       1       1       0       8       1       1       0       8       1       1
       0       8       1       1       0       8       1       1       0       8
       1       1       0       8       1       1       0       8       1       1
       0       8       1       1       0       8       1       1       0       8
       1       1       0       8       1       1       0       8       1       1
       0       8       1       1       0       8       1       1       0       8
       1       1       0       8       1       1       0       8       1       1
       0       8       1       1       0       8       1       1       0       8
       1       1       0       8       1       1       0       8       1       1
       0       8       1       1       0       8       1       1       0       8
       1       1       0       8       1       1       0       8       1       1
       0       8       1       1       0       8       1       1       0       8
       1       1       0       8       1       1       0       8       1       1
       0       8       1       1       0       8       1       1       0       8
       1       1       0       8       1       1       0       8       1       1
       0       8       1       1       0       8       1       1       0       8
       1       1       0       8       1       1       0       8       1       1
       0       8       1       1       0       8       1       1       0       8
       1       1       0       8       1       1       0       8       1       1
       0       8       1       1       0       8       1       1       0       8
       1       1       0       8       1       1       0       8       1       1
       0       8       1       1       0       8       1       1       0       8
       1       1       0       8       1       1       0       8       1       1
       0       8       1       1       0       8       1       1       0       8
       1       1       0       8       1       1       0       8       1       1
       0       8       1       1       0       8       1       1       0       8
       1       1       0       8       1       1       0       8       1       1
       0       8       1       1       0       8       1       1       0       8
       1       1       0       8       1       1       0       8       1       1
       0       8       1       1       0       8       1       1       0       8
       1       1       0       8       1       1       0       8       1       1
       0       8       1       1       0       8       1       1       0       8
       1       1       0       8       1       1       0       8       1       1
       0       8       1       1       0       8       1       1       0       8
       1       1       0       8       1       1       0       8       1       1
       0       8       1       1       0       8       1       1       0       8
       1       1       0       8       1       1       0       8       1       1
       0       8       1       1       0       8       1       1       0       8
       1       1       0       8       1       1       0       8       1       1
       0       8       1       1       0       8       1       1       0       8
       1       1       0       8       1       1       0       8       1       1
       0       8       1       1       0       8       1       1       0       8
       1       1       0       8       1       1       0       8       1       1
       0       8       1       1       0       8       1       1       0       8
       1       1       0       8       1       1       0       8       1       1
       0       8       1       1       0       8       1       1       0       8
       1       1       0       8       1       1       0       8       1       1
       0       8       1       1       0       8       1       1       0       8
       1       1       0       8       1       1       0       8       1       1
       0       8       1       1       0       8       1       1       0       8
       1       1       0       8       1       1       0       8       1       1
       0       8       1       1       0       8       1       1       0       8
       1       1       0       8       1       1       0       8       1       1
       0       8       1       1       0       8       1       1       0       8
       1       1       0       8       1       1       0       8       1       1
       0       8       1       1       0       8       1       1       0       8
       1       1       0       8       1       1       0       8       1       1
       0       8       1       1       0       8       1       1       0       8
       1       1       0       8       1       1       0       8       1       1
       0       8       1       1       0       8       1       1       0       8
       1       1       0       8       1       1       0       8       1       1
       0       8       1       1       0       8       1       1       0       8
       1       1       0       8       1       1       0       8       1       1
       0       8       1       1       0       8       1       1       0       8
       1       1       0       8       1       1       0       8       1       1
       0       8       1       1       0       8       1       1       0       8
       1       1       0       8       1       1       0       8       1       1
       0       8       1       1       0       8       1       1       0       8
       1       1       0       8       1       1       0       8       1       1
       0       8       1       1       0       8       1       1       0       8
       1       1       0       8       1       1       0       8       1       1
       0       8       1       1       0       8       1       1       0       8
       1       1       0       8       1       1       0       8       1       1
       0       8       1       1       0       8       1       1       0       8
       1       1       0       8       1       1       0       8       1       1
       0       8       1       1       0       8       1       1       0       8
       1       1       0       8       1       1       0       8       1       1
       0       8       1       1       0       8       1       1       0       8
       1       1       0       8       1       1       0       8       1       1
       0       8       1       1       0       8       1       1       0       8
       1       1       0       8       1       1       0       8       1       1
       0       8       1       1       0       8       1       1       0       8
       1       1       0       8       1       1       0       8       1       1
       0       8       1       1       0       8       1       1       0       8
       1       1       0       8       1       1       0       8       1       1
       0       8       1       1       0       8       1       1       0       8
       1       1       0       8       1       1       0       8       1       1
       0       8       1       1       0       8       1       1       0       8
       1       1       0       8       1       1       0       8       1       1
       0       8       1       1       0       8       1       1       0       8
       1       1       0       8       1       1       0       8       1       1
       0       8       1       1       0       8       1       1       0       8
       1       1       0       8       1       1       0       8       1       1
       0       8       1       1       0       8       1       1       0       8
       1       1       0       8       1       1       0       8       1       1
       0       8       1       1       0       8       1       1       0       8
       1       1       0       8       1       1       0       8       1       1
       0       8       1       1       0       8       1       1       0       8
       1       1       0       8       1       1       0       8       1       1
       0       8       1       1       0       8       1       1       0       8
       1       1       0       8       1       1       0       8       1       1
       0       8       1       1       0       8       1       1       0       8
       1       1       0       8       1       1       0       8       1       1
       0       8       1       1       0       8       1       1       0       8
       1       1       0       8       1       1       0       8       1       1
       0       8       1       1       0       8       1       1       0       8
       1       1       0       8       1       1       0       8       1       1
       0       8       1       1       0       8       1       1       0       8
       1       1       0       8       1       1       0       8       1       1
       0       8       1       1       0       8       1       1       0       8
       1       1       0       8       1       1       0       8       1       1
       0       8       1       1       0       8       1       1       0       8
       1       1       0       8       1       1       0       8       1       1
       0       8       1       1       0       8       1       1       0       8
       1       1       0       8       1       1       0       8       1       1
       0       8       1       1       0       8       1       1       0       8
       1       1       0       8       1       1       0       8       1       1
       0       8       1       1       0       8       1       1       0       8
       1       1       0       8       1       1       0       8       1       1
       0       8       1       1       0       8       1       1       0       8
       1       1       0       8       1       1       0       8       1       1
       0       8       1       1       0       8       1       1       0       8
       1       1       0       8       1       1       0       8       1       1
       0       8       1       1       0       8       1       1       0       8
       1       1       0       8       1       1       0       8       1       1
       0       8       1       1       0       8       1       1       0       8
       1       1       0       8       1       1       0       8       1       1
       0       8       1       1       0       8       1       1       0       8
       1       1       0       8       1       1       0       8       1       1
       0       8       1       1       0       8       1       1       0       8
       1       1       0       8       1       1       0       8       1       1
       0       8       1       1       0       8       1       1       0       8
       1       1       0       8       1       1       0       8       1       1
       0       8       1       1       0       8       1       1       0       8
       1       1       0       8       1       1       0       8       1       1
       0       8       1       1       0       8       1       1       0       8
       1       1       0       8       1       1       0       8       1       1
       0       8       1       1       0       8       1       1       0       8
       1       1       0       8       1       1       0       8       1       1
       0       8       1       1       0       8       1       1       0       8
       1       1       0       8       1       1       0       8       1       1
       0       8       1       1       0       8       1       1       0       8
       1       1       0       8       1       1       0       8       1       1
       0       8       1       1       0       8       1       1       0       8
       1       1       0       8       1       1       0       8       1       1
       0       8       1       1       0       8       1       1       0       8
       1       1       0       8       1       1       0       8       1       1
       0       8       1       1       0       8       1       1       0       8
       1       1       0       8       1       1       0       8       1       1
       0       8       1       1       0       8       1       1       0       8
       1       1       0       8       1       1       0       8       1       1
       0       8       1       1       0       8       1       1       0       8
       1       1       0       8       1       1       0       8       1       1
       0       8       1       1       0       8       1       1       0       8
       1       1       0       8       1       1       0       8       1       1
       0       8       1       1       0       8       1       1       0       8
       1       1       0       8       1       1       0       8       1       1
       0       8       1       1       0       8       1       1       0       8
       1       1       0       8       1       1       0       8       1       1
       0       8       1       1       0       8       1       1       0       8
       1       1       0       8       1       1       0       8       1       1
       0       8       1       1       0       8       1       1       0       8
       1       1       0       8       1       1       0       8       1       1
       0       8       1       1       0       8       1       1       0       8
       1       1       0       8       1       1       0       8       1       1
       0       8       1       1       0       8       1       1       0       8
       1       1       0       8       1       1       0       8       1       1
       0       8       1       1       0       8       1       1       0       8
       1       1       0       8       1       1       0       8       1       1
       0       8       1       1       0       8       1       1       0       8
       1       1       0       8       1       1       0       8       1       1
       0       8       1       1       0       8       1       1       0       8
       1       1       0       8       1       1       0       8       1       1
       0       8       1       1       0       8       1       1       0       8
       1       1       0       8       1       1       0       8       1       1
       0       8       1       1       0       8       1       1       0       8
       1       1       0       8       1       1       0       8       1       1
       0       8       1       1       0       8       1       1       0       8
       1       1       0       8       1       1       0       8       1       1
       0       8       1       1       0       8       1       1       0       8
       1       1       0       8       1       1       0       8       1       1
       0       8       1       1       0       8       1       1       0       8
       1       1       0       8       1       1       0       8       1       1
       0       8       1       1       0       8       1       1       0       8
       1       1       0       8       1       1       0       8       1       1
       0       8       1       1       0       8       1       1       0       8
       1       1       0       8       1       1       0       8       1       1
       0       8       1       1       0       8       1       1       0       8
       1       1       0       8       1       1       0       8       1       1
       0       8       1       1       0       8       1       1       0       8
       1       1       0       8       1       1       0       8       1       1
       0       8       1       1       0       8       1       1       0       8
       1       1       0       8       1       1       0       8       1       1
       0       8       1       1       0       8       1       1       0       8
       1       1       0       8       1       1       0       8       1       1
       0       8       1       1       0       8       1       1       0       8
       1       1       0       8       1       1       0       8       1       1
       0       8       1       1       0       8       1       1       0       8
       1       1       0       8       1       1       0       8       1       1
       0       8       1       1       0       8       1       1       0       8
       1       1       0       8       1       1       0       8       1       1
       0       8       1       1       0       8       1       1       0       8
       1       1       0       8       1       1       0       8       1       1
       0       8       1       1       0       8       1       1       0       8
       1       1       0       8       1       1       0       8       1       1
       0       8       1       1       0       8       1       1       0       8
       1       1       0       8       1       1       0       8       1       1
       0       8       1       1       0       8       1       1       0       8
       1       1       0       8       1       1       0       8       1       1
       0       8       1       1       0       8       1       1       0       8
       1       1       0       8       1       1       0       8       1       1
       0       8       1       1       0       8       1       1       0       8
       1       1       0       8       1       1       0       8       1       1
       0       8       1       1       0       8       1       1       0       8
       1       1       0       8       1       1       0       8       1       1
       0       8       1       1       0       8       1       1       0       8
       1       1       0       8       1       1       0       8       1       1
       0       8       1       1       0       8       1       1       0       8
       1       1       0       8       1       1       0       8       1       1
       0       8       1       1       0       8       1       1       0       8
       1       1       0       8       1       1       0       8       1       1
       0       8       1       1       0       8       1       1       0       8
       1       1       0       8       1       1       0       8       1       1
       0       8       1       1       0       8       1       1       0       8
       1       1       0       8       1       1       0       8       1       1
       0       8       1       1       0       8       1       1       0       8
       1       1       0       8       1       1       0       8       1       1
       0       8       1       1       0       8       1       1       0       8
       1       1       0       8       1       1       0       8       1       1
       0       8       1       1       0       8       1       1       0       8
       1       1       0       8       1       1       0       8       1       1
       0       8       1       1       0       8       1       1       0       8
       1       1       0       8       1       1       0       8       1       1
       0       8       1       1       0       8       1       1       0       8
       1       1       0       8       1       1       0       8       1       1
       0       8       1       1       0       8       1       1       0       8
       1       1       0       8       1       1       0       8       1       1
       0       8       1       1       0       8       1       1       0       8
       1       1       0       8       1       1       0       8       1       1
       0       8       1       1       0       8       1       1       0       8
       1       1       0       8       1       1       0       8       1       1
       0       8       1       1       0       8       1       1       0       8
       1       1       0       8       1       1       0       8       1       1
       0       8       1       1       0       8       1       1       0       8
       1       1       0       8       1       1       0       8       1       1
       0       8       1       1       0       8       1       1       0       8
       1       1       0       8       1       1       0       8       1       1
       0       8       1       1       0       8       1       1       0       8
       1       1       0       8       1       1       0       8       1       1
       0       8       1       1       0       8       1       1       0       8
       1       1       0       8       1       1       0       8       1       1
       0       8       1       1       0       8       1       1       0       8
       1       1       0       8       1       1       0       8       1       1
       0       8       1       1       0       8       1       1       0       8
       1       1       0       8       1       1       0       8       1       1
       0       8       1       1       0       8       1       1       0       8
       1       1       0       8       1       1       0       8       1       1
       0       8       1       1       0       8       1       1       0       8
       1       1       0       8       1       1       0       8       1       1
       0       8       1       1       0       8       1       1       0       8
       1       1       0       8       1       1       0       8       1       1
       0       8       1       1       0       8       1       1       0       8
       1       1       0       8       1       1       0       8       1       1
       0       8       1       1       0       8       1       1       0       8
       1       1       0       8       1       1       0       8       1       1
       0       8       1       1       0       8       1       1       0       8
       1       1       0       8       1       1       0       8       1       1
       0       8       1       1       0       8       1       1       0       8
       1       1       0       8       1       1       0       8       1       1
       0       8       1       1       0       8       1       1       0       8
       1       1       0       8       1       1       0       8       1       1
       0       8       1       1       0       8       1       1       0       8
       1       1       0       8       1       1       0       8       1       1
       0       8       1       1       0       8       1       1       0       8
       1       1       0       8       1       1       0       8       1       1
       0       8       1       1       0       8       1       1       0       8
       1       1       0       8       1       1       0       8       1       1
       0       8       1       1       0       8       1       1       0       8
       1       1       0       8       1       1       0       8       1       1
       0       8       1       1       0       8       1       1       0       8
       1       1       0       8       1       1       0       8       1       1
       0       8       1       1       0       8       1       1       0       8
       1       1       0       8       1       1       0       8       1       1
       0       8       1       1       0       8       1       1       0       8
       1       1       0       8       1       1       0       8       1       1
       0       8       1       1       0       8       1       1       0       8
       1       1       0       8       1       1       0       8       1       1
       0       8       1       1       0       8       1       1       0       8
       1       1       0       8       1       1       0       8       1       1
       0       8       1       1       0       8       1       1       0       8
       1       1       0       8       1       1       0       8       1       1
       0       8       1       1       0       8       1       1       0       8
       1       1       0       8       1       1       0       8       1       1
       0       8       1       1       0       8       1       1       0       8
       1       1       0       8       1       1       0       8       1       1
       0       8       1       1       0       8       1       1       0       8
       1       1       0       8       1       1       0       8       1       1
       0       8       1       1       0       8       1       1       0       8
       1       1       0       8       1       1       0       8       1       1
       0       8       1       1       0       8       1       1       0       8
       1       1       0       8       1       1       0       8       1       1
       0       8       1       1       0       8       1       1       0       8
       1       1       0       8       1       1       0       8       1       1
       0       8       1       1       0       8       1       1       0       8
       1       1       0       8       1       1       0       8       1       1
       0       8       1       1       0       8       1       1       0       8
       1       1       0       8       1       1       0       8       1       1
       0       8       1       1       0       8       1       1       0       8
       1       1       0       8       1       1       0       8       1       1
       0       8       1       1       0       8       1       1       0       8
       1       1       0       8       1       1       0       8       1       1
       0       8       1       1       0       8       1       1       0       8
       1       1       0       8       1       1       0       8       1       1
       0       8       1       1       0       8       1       1       0       8
       1       1       0       8       1       1       0       8       1       1
       0       8       1       1       0       8       1       1       0       8
       1       1       0       8       1       1       0       8       1       1
       0       8       1       1       0       8       1       1       0       8
       1       1       0       8       1       1       0       8       1       1
       0       8       1       1       0       8       1       1       0       8
       1       1       0       8       1       1       0       8       1       1
       0       8       1       1       0       8       1       1       0       8
       1       1       0       8       1       1       0       8       1       1
       0       8       1       1       0       8       1       1       0       8
       1       1       0       8       1       1       0       8       1       1
       0       8       1       1       0       8       1       1       0       8
       1       1       0       8       1       1       0       8       1       1
       0       8       1       1       0       8       1       1       0       8
       1       1       0       8       1       1       0       8       1       1
       0       8       1       1       0       8       1       1       0       8
       1       1       0       8       1       1       0       8       1       1
       0       8       1       1       0       8       1       1       0       8
       1       1       0       8       1       1       0       8       1       1
       0       8       1       1       0       8       1       1       0       8
       1       1       0       8       1       1       0       8       1       1
       0       8       1       1       0       8       1       1       0       8
       1       1       0       8       1       1       0       8       1       1
       0       8       1       1       0       8       1       1       0       8
       1       1       0       8       1       1       0       8       1       1
       0       8       1       1       0       8       1       1       0       8
       1       1       0       8       1       1       0       8       1       1
       0       8       1       1       0       8       1       1       0       8
       1       1       0       8       1       1       0       8       1       1
       0       8       1       1       0       8       1       1       0       8
       1       1       0       8       1       1       0       8       1       1
       0       8       1       1       0       8       1       1       0       8
       1       1       0       8       1       1       0       8       1       1
       0       8       1       1       0       8       1       1       0       8
       1       1       0       8       1       1       0       8       1       1
       0       8       1       1       0       8       1       1       0       8
       1       1       0       8       1       1       0       8       1       1
       0       8       1       1       0       8       1       1       0       8
       1       1       0       8       1       1       0       8       1       1
       0       8       1       1       0       8       1       1       0       8
       1       1       0       8       1       1       0       8       1       1
       0       8       1       1       0       8       1       1       0       8
       1       1       0       8       1       1       0       8       1       1
       0       8       1       1       0       8       1       1       0       8
       1       1       0       8       1       1       0       8       1       1
       0       8       1       1       0       8       1       1       0       8
       1       1       0       8       1       1       0       8       1       1
       0       8       1       1       0       8       1       1       0       8
       1       1       0       8       1       1       0       8       1       1
       0       8       1       1       0       8       1       1       0       8
       1       1       0       8       1       1       0       8       1       1
       0       8       1       1       0       8       1       1       0       8
       1       1       0       8       1       1       0       8       1       1
       0       8       1       1       0       8       1       1       0       8
       1       1       0       8       1       1       0       8       1       1
       0       8       1       1       0       8       1       1       0       8
       1       1       0       8       1       1       0       8       1       1
       0       8       1       1       0       8       1       1       0       8
       1       1       0       8       1       1       0       8       1       1
       0       8       1       1       0       8       1       1       0       8
       1       1       0       8       1       1       0       8       1       1
       0       8       1       1       0       8       1       1       0       8
       1       1       0       8       1       1       0       8       1       1
       0       8       1       1       0       8       1       1       0       8
       1       1       0       8       1       1       0       8       1       1
       0       8       1       1       0       8       1       1       0       8
       1       1       0       8       1       1       0       8       1       1
       0       8       1       1       0       8       1       1       0       8
       1       1       0       8       1       1       0       8       1       1
       0       8       1       1       0       8       1       1       0       8
       1       1       0       8       1       1       0       8       1       1
       0       8       1       1       0       8       1       1       0       8
       1       1       0       8       1       1       0       8       1       1
       0       8       1       1       0       8       1       1       0       8
       1       1       0       8       1       1       0       8       1       1
       0       8       1       1       0       8       1       1       0       8
       1       1       0       8       1       1       0       8       1       1
       0       8       1       1       0       8       1       1       0       8
       1       1       0       8       1       1       0       8       1       1
       0       8       1       1       0       8       1       1       0       8
       1       1       0       8       1       1       0       8       1       1
       0       8       1       1       0       8       1       1       0       8
       1       1       0       8       1       1       0       8       1       1
       0       8       1       1       0       8       1       1       0       8
       1       1       0       8       1       1       0       8       1       1
       0       8       1       1       0       8       1       1       0       8
       1       1       0       8       1       1       0       8       1       1
       0       8       1       1       0       8       1       1       0       8
       1       1       0       8       1       1       0       8       1       1
       0       8       1       1       0       8       1       1       0       8
       1       1       0       8       1       1       0       8       1       1
       0       8       1       1       0       8       1       1       0       8
       1       1       0       8       1       1       0       8       1       1
       0       8       1       1       0       8       1       1       0       8
       1       1       0       8       1       1       0       8       1       1
       0       8       1       1       0       8       1       1       0       8
       1       1       0       8       1       1       0       8       1       1
       0       8       1       1       0       8       1       1       0       8
       1       1       0       8       1       1       0       8       1       1
       0       8       1       1       0       8       1       1       0       8
       1       1       0       8       1       1       0       8       1       1
       0       8       1       1       0       8       1       1       0       8
       1       1       0       8       1       1       0       8       1       1
       0       8       1       1       0       8       1       1       0       8
       1       1       0       8       1       1       0       8       1       1
       0       8       1       1       0       8       1       1       0       8
       1       1       0       8       1       1       0       8       1       1
       0       8       1       1       0       8       1       1       0       8
       1       1       0       8       1       1       0       8       1       1
       0       8       1       1       0       8       1       1       0       8
       1       1       0       8       1       1       0       8       1       1
       0       8       1       1       0       8       1       1       0       8
       1       1       0       8       1       1       0       8       1       1
       0       8       1       1       0       8       1       1       0       8
       1       1       0       8       1       1       0       8       1       1
       0       8       1       1       0       8       1       1       0       8
       1       1       0       8       1       1       0       8       1       1
       0       8       1       1       0       8       1       1       0       8
       1       1       0       8       1       1       0       8       1       1
       0       8       1       1       0       8       1       1       0       8
       1       1       0       8       1       1       0       8       1       1
       0       8       1       1       0       8       1       1       0       8
       1       1       0       8       1       1       0       8       1       1
       0       8       1       1       0       8       1       1       0       8
       1       1       0       8       1       1       0       8       1       1
       0       8       1       1       0       8       1       1       0       8
       1       1       0       8       1       1       0       8       1       1
       0       8       1       1       0       8       1       1       0       8
       1       1       0       8       1       1       0       8       1       1
       0       8       1       1       0       8       1       1       0       8
       1       1       0       8       1       1       0       8       1       1
       0       8       1       1       0       8       1       1       0       8
       1       1       0       8       1       1       0       8       1       1
       0       8       1       1       0       8       1       1       0       8
       1       1       0       8       1       1       0       8       1       1
       0       8       1       1       0       8       1       1       0       8
       1       1       0       8       1       1       0       8       1       1
       0       8       1       1       0       8       1       1       0       8
       1       1       0       8       1       1       0       8       1       1
       0       8       1       1       0       8       1       1       0       8
       1       1       0       8       1       1       0       8       1       1
       0       8       1       1       0       8       1       1       0       8
       1       1       0       8       1       1       0       8       1       1
       0       8       1       1       0       8       1       1       0       8
       1       1       0       8       1       1       0       8       1       1
       0       8       1       1       0       8       1       1       0       8
       1       1       0       8       1       1       0       8       1       1
       0       8       1       1       0       8       1       1       0       8
       1       1       0       8       1       1       0       8       1       1
       0       8       1       1       0       8       1       1       0       8
       1       1       0       8       1       1       0       8       1       1
       0       8       1       1       0       8       1       1       0       8
       1       1       0       8       1       1       0       8       1       1
       0       8       1       1       0       8       1       1       0       8
       1       1       0       8       1       1       0       8       1       1
       0       8       1       1       0       8       1       1       0       8
       1       1       0       8       1       1       0       8       1       1
       0       8       1       1       0       8       1       1       0       8
       1       1       0       8       1       1       0       8       1       1
       0       8       1       1       0       8       1       1       0       8
       1       1       0       8       1       1       0       8       1       1
       0       8       1       1       0       8       1       1       0       8
       1       1       0       8       1       1       0       8       1       1
       0       8       1       1       0       8       1       1       0       8
       1       1       0       8       1       1       0       8       1       1
       0       8       1       1       0       8       1       1       0       8
       1       1       0       8       1       1       0       8       1       1
       0       8       1       1       0       8       1       1       0       8
       1       1       0       8       1       1       0       8       1       1
       0       8       1       1       0       8       1       1       0       8
       1       1       0       8       1       1       0       8       1       1
       0       8       1       1       0       8       1       1       0       8
       1       1       0       8       1       1       0       8       1       1
       0       8       1       1       0       8       1       1       0       8
       1       1       0       8       1       1       0       8       1       1
       0       8       1       1       0       8       1       1       0       8
       1       1       0       8       1       1       0       8       1       1
       0       8       1       1       0       8       1       1       0       8
       1       1       0       8       1       1       0       8       1       1
       0       8       1       1       0       8       1       1       0       8
       1       1       0       8       1       1       0       8       1       1
       0       8       1       1       0       8       1       1       0       8
       1       1       0       8       1       1       0       8       1       1
       0       8       1       1       0       8       1       1       0       8
       1       1       0       8       1       1       0       8       1       1
       0       8       1       1       0       8       1       1       0       8
       1       1       0       8       1       1       0       8       1       1
       0       8       1       1       0       8       1       1       0       8
       1       1       0       8       1       1       0       8       1       1
       0       8       1       1       0       8       1       1       0       8
       1       1       0       8       1       1       0       8       1       1
       0       8       1       1       0       8       1       1       0       8
       1       1       0       8       1       1       0       8       1       1
       0       8       1       1       0       8       1       1       0       8
       1       1       0       8       1       1       0       8       1       1
       0       8       1       1       0       8       1       1       0       8
       1       1       0       8       1       1       0       8       1       1
       0       8       1       1       0       8       1       1       0       8
       1       1       0       8       1       1       0       8       1       1
       0       8       1       1       0       8       1       1       0       8
       1       1       0       8       1       1       0       8       1       1
       0       8       1       1       0       8       1       1       0       8
       1       1       0       8       1       1       0       8       1       1
       0       8       1       1       0       8       1       1       0       8
       1       1       0       8       1       1       0       8       1       1
       0       8       1       1       0       8       1       1       0       8
       1       1       0       8       1       1       0       8       1       1
       0       8       1       1       0       8       1       1       0       8
       1       1       0       8       1       1       0       8       1       1
       0       8       1       1       0       8       1       1       0       8
       1       1       0       8       1       1       0       8       1       1
       0       8       1       1       0       8       1       1       0       8
       1       1       0       8       1       1       0       8       1       1
       0       8       1       1       0       8       1       1       0       8
       1       1       0       8       1       1       0       8       1       1
       0       8       1       1       0       8       1       1       0       8
       1       1       0       8       1       1       0       8       1       1
       0       8       1       1       0       8       1       1       0       8
       1       1       0       8       1       1       0       8       1       1
       0       8       1       1       0       8       1       1       0       8
       1       1       0       8       1       1       0       8       1       1
       0       8       1       1       0       8       1       1       0       8
       1       1       0       8       1       1       0       8       1       1
       0       8       1       1       0       8       1       1       0       8
       1       1       0       8       1       1       0       8       1       1
       0       8       1       1       0       8       1       1       0       8
       1       1       0       8       1       1       0       8       1       1
       0       8       1       1       0       8       1       1       0       8
       1       1       0       8       1       1       0       8       1       1
       0       8       1       1       0       8       1       1       0       8
       1       1       0       8       1       1       0       8       1       1
       0       8       1       1       0       8       1       1       0       8
       1       1       0       8       1       1       0       8       1       1
       0       8       1       1       0       8       1       1       0       8
       1       1       0       8       1       1       0       8       1       1
       0       8       1       1       0       8       1       1       0       8
       1       1       0       8       1       1       0       8       1       1
       0       8       1       1       0       8       1       1       0       8
       1       1       0       8       1       1       0       8       1       1
       0       8       1       1       0       8       1       1       0       8
       1       1       0       8       1       1       0       8       1       1
       0       8       1       1       0       8       1       1       0       8
       1       1       0       8       1       1       0       8       1       1
       0       8       1       1       0       8       1       1       0       8
       1       1       0       8       1       1       0       8       1       1
       0       8       1       1       0       8       1       1       0       8
       1       1       0       8       1       1       0       8       1       1
       0       8       1       1       0       8       1       1       0       8
       1       1       0       8       1       1       0       8       1       1
       0       8       1       1       0       8       1       1       0       8
       1       1       0       8       1       1       0       8       1       1
       0       8       1       1       0       8       1       1       0       8
       1       1       0       8       1       1       0       8       1       1
       0       8       1       1       0       8       1       1       0       8
       1       1       0       8       1       1       0       8       1       1
       0       8       1       1       0       8       1       1       0       8
       1       1       0       8       1       1       0       8       1       1
       0       8       1       1       0       8       1       1       0       8
       1       1       0       8       1       1       0       8       1       1
       0       8       1       1       0       8       1       1       0       8
       1       1       0       8       1       1       0       8       1       1
       0       8       1       1       0       8       1       1       0       8
       1       1       0       8       1       1       0       8       1       1
       0       8       1       1       0       8       1       1       0       8
       1       1       0       8       1       1       0       8       1       1
       0       8       1       1       0       8       1       1       0       8
       1       1       0       8       1       1       0       8       1       1
       0       8       1       1       0       8       1       1       0       8
       1       1       0       8       1       1       0       8       1       1
       0       8       1       1       0       8       1       1       0       8
       1       1       0       8       1       1       0       8       1       1
       0       8       1       1       0       8       1       1       0       8
       1       1       0       8       1       1       0       8       1       1
       0       8       1       1       0       8       1       1       0       8
       1       1       0       8       1       1       0       8       1       1
       0       8       1       1       0       8       1       1       0       8
       1       1       0       8       1       1       0       8       1       1
       0       8       1       1       0       8       1       1       0       8
       1       1       0       8       1       1       0       8       1       1
       0       8       1       1       0       8       1       1       0       8
       1       1       0       8       1       1       0       8       1       1
       0       8       1       1       0       8       1       1       0       8
       1       1       0       8       1       1       0       8       1       1
       0       8       1       1       0       8       1       1       0       8
       1       1       0       8       1       1       0       8       1       1
       0       8       1       1       0       8       1       1       0       8
       1       1       0       8       1       1       0       8       1       1
       0       8       1       1       0       8       1       1       0       8
       1       1       0       8       1       1       0       8       1       1
       0       8       1       1       0       8       1       1       0       8
       1       1       0       8       1       1       0       8       1       1
       0       8       1       1       0       8       1       1       0       8
       1       1       0       8       1       1       0       8       1       1
       0       8       1       1       0       8       1       1       0       8
       1       1       0       8       1       1       0       8       1       1
       0       8       1       1       0       8       1       1       0       8
       1       1       0       8       1       1       0       8       1       1
       0       8       1       1       0       8       1       1       0       8
       1       1       0       8       1       1       0       8       1       1
       0       8       1       1       0       8       1       1       0       8
       1       1       0       8       1       1       0       8       1       1
       0       8       1       1       0       8       1       1       0       8
       1       1       0       8       1       1       0       8       1       1
       0       8       1       1       0       8       1       1       0       8
       1       1       0       8       1       1       0       8       1       1
       0       8       1       1       0       8       1       1       0       8
       1       1       0       8       1       1       0       8       1       1
       0       8       1       1       0       8       1       1       0       8
       1       1       0       8       1       1       0       8       1       1
       0       8       1       1       0       8       1       1       0       8
       1       1       0       8       1       1       0       8       1       1
       0       8       1       1       0       8       1       1       0       8
       1       1       0       8       1       1       0       8       1       1
       0       8       1       1       0       8       1       1       0       8
       1       1       0       8       1       1       0       8       1       1
       0       8       1       1       0       8       1       1       0       8
       1       1       0       8       1       1       0       8       1       1
       0       8       1       1       0       8       1       1       0       8
       1       1       0       8       1       1       0       8       1       1
       0       8       1       1       0       8       1       1       0       8
       1       1       0       8       1       1       0       8       1       1
       0       8       1       1       0       8       1       1       0       8
       1       1       0       8       1       1       0       8       1       1
       0       8       1       1       0       8       1       1       0       8
       1       1       0       8       1       1       0       8       1       1
       0       8       1       1       0       8       1       1       0       8
       1       1       0       8       1       1       0       8       1       1
       0       8       1       1       0       8       1       1       0       8
       1       1       0       8       1       1       0       8       1       1
       0       8       1       1       0       8       1       1       0       8
       1       1       0       8       1       1       0       8       1       1
       0       8       1       1       0       8       1       1       0       8
       1       1       0       8       1       1       0       8       1       1
       0       8       1       1       0       8       1       1       0       8
       1       1       0       8       1       1       0       8       1       1
       0       8       1       1       0       8       1       1       0       8
       1       1       0       8       1       1       0       8       1       1
       0       8       1       1       0       8       1       1       0       8
       1       1       0       8       1       1       0       8       1       1
       0       8       1       1       0       8       1       1       0       8
       1       1       0       8       1       1       0       8       1       1
       0       8       1       1       0       8       1       1       0       8
       1       1       0       8       1       1       0       8       1       1
       0       8       1       1       0       8       1       1       0       8
       1       1       0       8       1       1       0       8       1       1
       0       8       1       1       0       8       1       1       0       8
       1       1       0       8       1       1       0       8       1       1
       0       8       1       1       0       8       1       1       0       8
       1       1       0       8       1       1       0       8       1       1
       0       8       1       1       0       8       1       1       0       8
       1       1       0       8       1       1       0       8       1       1
       0       8       1       1       0       8       1       1       0       8
       1       1       0       8       1       1       0       8       1       1
       0       8       1       1       0       8       1       1       0       8
       1       1       0       8       1       1       0       8       1       1
       0       8       1       1       0       8       1       1       0       8
       1       1       0       8       1       1       0       8       1       1
       0       8       1       1       0       8       1       1       0       8
       1       1       0       8       1       1       0       8       1       1
       0       8       1       1       0       8       1       1       0       8
       1       1       0       8       1       1       0       8       1       1
       0       8       1       1       0       8       1       1       0       8
       1       1       0       8       1       1       0       8       1       1
       0       8       1       1       0       8       1       1       0       8
       1       1       0       8       1       1       0       8       1       1
       0       8       1       1       0       8       1       1       0       8
       1       1       0       8       1       1       0       8       1       1
       0       8       1       1       0       8       1       1       0       8
       1       1       0       8       1       1       0       8       1       1
       0       8       1       1       0       8       1       1       0       8
       1       1       0       8       1       1       0       8       1       1
       0       8       1       1       0       8       1       1       0       8
       1       1       0       8       1       1       0       8       1       1
       0       8       1       1       0       8       1       1       0       8
       1       1       0       8       1       1       0       8       1       1
       0       8       1       1       0       8       1       1       0       8
       1       1       0       8       1       1       0       8       1       1
       0       8       1       1       0       8       1       1       0       8
       1       1       0       8       1       1       0       8       1       1
       0       8       1       1       0       8       1       1       0       8
       1       1       0       8       1       1       0       8       1       1
       0       8       1       1       0       8       1       1       0       8
       1       1       0       8       1       1       0       8       1       1
       0       8       1       1       0       8       1       1       0       8
       1       1       0       8       1       1       0       8       1       1
       0       8       1       1       0       8       1       1       0       8
       1       1       0       8       1       1       0       8       1       1
       0       8       1       1       0       8       1       1       0       8
       1       1       0       8       1       1       0       8       1       1
       0       8       1       1       0       8       1       1       0       8
       1       1       0       8       1       1       0       8       1       1
       0       8       1       1       0       8       1       1       0       8
       1       1       0       8       1       1       0       8       1       1
       0       8       1       1       0       8       1       1       0       8
       1       1       0       8       1       1       0       8       1       1
       0       8       1       1       0       8       1       1       0       8
       1       1       0       8       1       1       0       8       1       1
       0       8       1       1       0       8       1       1       0       8
       1       1       0       8       1       1       0       8       1       1
       0       8       1       1       0       8       1       1       0       8
       1       1       0       8       1       1       0       8       1       1
       0       8       1       1       0       8       1       1       0       8
       1       1       0       8       1       1       0       8       1       1
       0       8       1       1       0       8       1       1       0       8
       1       1       0       8       1       1       0       8       1       1
       0       8       1       1       0       8       1       1       0       8
       1       1       0       8       1       1       0       8       1       1
       0       8       1       1       0       8       1       1       0       8
       1       1       0       8       1       1       0       8       1       1
       0       8       1       1       0       8       1       1       0       8
       1       1       0       8       1       1       0       8       1       1
       0       8       1       1       0       8       1       1       0       8
       1       1       0       8       1       1       0       8       1       1
       0       8       1       1       0       8       1       1       0       8
       1       1       0       8       1       1       0       8       1       1
       0       8       1       1       0       8       1       1       0       8
       1       1       0       8       1       1       0       8       1       1
       0       8       1       1       0       8       1       1       0       8
       1       1       0       8       1       1       0       8       1       1
       0       8       1       1       0       8       1       1       0       8
       1       1       0       8       1       1       0       8       1       1
       0       8       1       1       0       8       1       1       0       8
       1       1       0       8       1       1       0       8       1       1
       0       8       1       1       0       8       1       1       0       8
       1       1       0       8       1       1       0       8       1       1
       0       8       1       1       0       8       1       1       0       8
       1       1       0       8       1       1       0       8       1       1
       0       8       1       1       0       8       1       1       0       8
       1       1       0       8       1       1       0       8       1       1
       0       8       1       1       0       8       1       1       0       8
       1       1       0       8       1       1       0       8       1       1
       0       8       1       1       0       8       1       1       0       8
       1       1       0       8       1       1       0       8       1       1
       0       8       1       1       0       8       1       1       0       8
       1       1       0       8       1       1       0       8       1       1
       0       8       1       1       0       8       1       1       0       8
       1       1       0       8       1       1       0       8       1       1
       0       8       1       1       0       8       1       1       0       8
       1       1       0       8       1       1       0       8       1       1
       0       8       1       1       0       8       1       1       0       8
       1       1       0       8       1       1       0       8       1       1
       0       8       1       1       0       8       1       1       0       8
       1       1       0       8       1       1       0       8       1       1
       0       8       1       1       0       8       1       1       0       8
       1       1       0       8       1       1       0       8       1       1
       0       8       1       1       0       8       1       1       0       8
       1       1       0       8       1       1       0       8       1       1
       0       8       1       1       0       8       1       1       0       8
       1       1       0       8       1       1       0       8       1       1
       0       8       1       1       0       8       1       1       0       8
       1       1       0       8       1       1       0       8       1       1
       0       8       1       1       0       8       1       1       0       8
       1       1       0       8       1       1       0       8       1       1
       0       8       1       1       0       8       1       1       0       8
       1       1       0       8       1       1       0       8       1       1
       0       8       1       1       0       8       1       1       0       8
       1       1       0       8       1       1       0       8       1       1
       0       8       1       1       0       8       1       1       0       8
       1       1       0       8       1       1       0       8       1       1
       0       8       1       1       0       8       1       1       0       8
       1       1       0       8       1       1       0       8       1       1
       0       8       1       1       0       8       1       1       0       8
       1       1       0       8       1       1       0       8       1       1
       0       8       1       1       0       8       1       1       0       8
       1       1       0       8       1       1       0       8       1       1
       0       8       1       1       0       8       1       1       0       8
       1       1       0       8       1       1       0       8       1       1
       0       8       1       1       0       8       1       1       0       8
       1       1       0       8       1       1       0       8       1       1
       0       8       1       1       0       8       1       1       0       8
       1       1       0       8       1       1       0       8       1       1
       0       8       1       1       0       8       1       1       0       8
       1       1       0       8       1       1       0       8       1       1
       0       8       1       1       0       8       1       1       0       8
       1       1       0       8       1       1       0       8       1       1
       0       8       1       1       0       8       1       1       0       8
       1       1       0       8       1       1       0       8       1       1
       0       8       1       1       0       8       1       1       0       8
       1       1       0       8       1       1       0       8       1       1
       0       8       1       1       0       8       1       1       0       8
       1       1       0       8       1       1       0       8       1       1
       0       8       1       1       0       8       1       1       0       8
       1       1       0       8       1       1       0       8       1       1
       0       8       1       1       0       8       1       1       0       8
       1       1       0       8       1       1       0       8       1       1
       0       8       1       1       0       8       1       1       0       8
       1       1       0       8       1       1       0       8       1       1
       0       8       1       1       0       8       1       1       0       8
       1       1       0       8       1       1       0       8       1       1
       0       8       1       1       0       8       1       1       0       8
       1       1       0       8       1       1       0       8       1       1
       0       8       1       1       0       8       1       1       0       8
       1       1       0       8       1       1       0       8       1       1
       0       8       1       1       0       8       1       1       0       8
       1       1       0       8       1       1       0       8       1       1
       0       8       1       1       0       8       1       1       0       8
       1       1       0       8       1       1       0       8       1       1
       0       8       1       1       0       8       1       1       0       8
       1       1       0       8       1       1       0       8       1       1
       0       8       1       1       0       8       1       1       0       8
       1       1       0       8       1       1       0       8       1       1
       0       8       1       1       0       8       1       1       0       8
       1       1       0       8       1       1       0       8       1       1
       0       8       1       1       0       8       1       1       0       8
       1       1       0       8       1       1       0       8       1       1
       0       8       1       1       0       8       1       1       0       8
       1       1       0       8       1       1       0       8       1       1
       0       8       1       1       0       8       1       1       0       8
       1       1       0       8       1       1       0       8       1       1
       0       8       1       1       0       8       1       1       0       8
       1       1       0       8       1       1       0       8       1       1
       0       8       1       1       0       8       1       1       0       8
       1       1       0       8       1       1       0       8       1       1
       0       8       1       1       0       8       1       1       0       8
       1       1       0       8       1       1       0       8       1       1
       0       8       1       1       0       8       1       1       0       8
       1       1       0       8       1       1       0       8       1       1
       0       8       1       1       0       8       1       1       0       8
       1       1       0       8       1       1       0       8       1       1
       0       8       1       1       0       8       1       1       0       8
       1       1       0       8       1       1       0       8       1       1
       0       8       1       1       0       8       1       1       0       8
       1       1       0       8       1       1       0       8       1       1
       0       8       1       1       0       8       1       1       0       8
       1       1       0       8       1       1       0       8       1       1
       0       8       1       1       0       8       1       1       0       8
       1       1       0       8       1       1       0       8       1       1
       0       8       1       1       0       8       1       1       0       8
       1       1       0       8       1       1       0       8       1       1
       0       8       1       1       0       8       1       1       0       8
       1       1       0       8       1       1       0       8       1       1
       0       8       1       1       0       8       1       1       0       8
       1       1       0       8       1       1       0       8       1       1
       0       8       1       1       0       8       1       1       0       8
       1       1       0       8       1       1       0       8       1       1
       0       8       1       1       0       8       1       1       0       8
       1       1       0       8       1       1       0       8       1       1
       0       8       1       1       0       8       1       1       0       8
       1       1       0       8       1       1       0       8       1       1
       0       8       1       1       0       8       1       1       0       8
       1       1       0       8       1       1       0       8       1       1
       0       8       1       1       0       8       1       1       0       8
       1       1       0       8       1       1       0       8       1       1
       0       8       1       1       0       8       1       1       0       8
       1       1       0       8       1       1       0       8       1       1
       0       8       1       1       0       8       1       1       0       8
       1       1       0       8       1       1       0       8       1       1
       0       8       1       1       0       8       1       1       0       8
       1       1       0       8       1       1       0       8       1       1
       0       8       1       1       0       8       1       1       0       8
       1       1       0       8       1       1       0       8       1       1
       0       8       1       1       0       8       1       1       0       8
       1       1       0       8       1       1       0       8       1       1
       0       8       1       1       0       8       1       1       0       8
       1       1       0       8       1       1       0       8       1       1
       0       8       1       1       0       8       1       1       0       8
       1       1       0       8       1       1       0       8       1       1
       0       8       1       1       0       8       1       1       0       8
       1       1       0       8       1       1       0       8       1       1
       0       8       1       1       0       8       1       1       0       8
       1       1       0       8       1       1       0       8       1       1
       0       8       1       1       0       8       1       1       0       8
       1       1       0       8       1       1       0       8       1       1
       0       8       1       1       0       8       1       1       0       8
       1       1       0       8       1       1       0       8       1       1
       0       8       1       1       0       8       1       1       0       8
       1       1       0       8       1       1       0       8       1       1
       0       8       1       1       0       8       1       1       0       8
       1       1       0       8       1       1       0       8       1       1
       0       8       1       1       0       8       1       1       0       8
       1       1       0       8       1       1       0       8       1       1
       0       8       1       1       0       8       1       1       0       8
       1       1       0       8       1       1       0       8       1       1
       0       8       1       1       0       8       1       1       0       8
       1       1       0       8       1       1       0       8       1       1
       0       8       1       1       0       8       1       1       0       8
       1       1       0       8       1       1       0       8       1       1
       0       8       1       1       0       8       1       1       0       8
       1       1       0       8       1       1       0       8       1       1
       0       8       1       1       0       8       1       1       0       8
       1       1       0       8       1       1       0       8       1       1
       0       8       1       1       0       8       1       1       0       8
       1       1       0       8       1       1       0       8       1       1
       0       8       1       1       0       8       1       1       0       8
       1       1       0       8       1       1       0       8       1       1
       0       8       1       1       0       8       1       1       0       8
       1       1       0       8       1       1       0       8       1       1
       0       8       1       1       0       8       1       1       0       8
       1       1       0       8       1       1       0       8       1       1
       0       8       1       1       0       8       1       1       0       8
       1       1       0       8       1       1       0       8       1       1
       0       8       1       1       0       8       1       1       0       8
       1       1       0       8       1       1       0       8       1       1
       0       8       1       1       0       8       1       1       0       8
       1       1       0       8       1       1       0       8       1       1
       0       8       1       1       0       8       1       1       0       8
       1       1       0       8       1       1       0       8       1       1
       0       8       1       1       0       8       1       1       0       8
       1       1       0       8       1       1       0       8       1       1
       0       8       1       1       0       8       1       1       0       8
       1       1       0       8       1       1       0       8       1       1
       0       8       1       1       0       8       1       1       0       8
       1       1       0       8       1       1       0       8       1       1
       0       8       1       1       0       8       1       1       0       8
       1       1       0       8       1       1       0       8       1       1
       0       8       1       1       0       8       1       1       0       8
       1       1       0       8       1       1       0       8       1       1
       0       8       1       1       0       8       1       1       0       8
       1       1       0       8       1       1       0       8       1       1
       0       8       1       1       0       8       1       1       0       8
       1       1       0       8       1       1       0       8       1       1
       0       8       1       1       0       8       1       1       0       8
       1       1       0       8       1       1       0       8       1       1
       0       8       1       1       0       8       1       1       0       8
       1       1       0       8       1       1       0       8       1       1
       0       8       1       1       0       8       1       1       0       8
       1       1       0       8       1       1       0       8       1       1
       0       8       1       1       0       8       1       1       0       8
       1       1       0       8       1       1       0       8       1       1
       0       8       1       1       0       8       1       1       0       8
       1       1       0       8       1       1       0       8       1       1
       0       8       1       1       0       8       1       1       0       8
       1       1       0       8       1       1       0       8       1       1
       0       8       1       1       0       8       1       1       0       8
       1       1       0       8       1       1       0       8       1       1
       0       8       1       1       0       8       1       1       0       8
       1       1       0       8       1       1       0       8       1       1
       0       8       1       1       0       8       1       1       0       8
       1       1       0       8       1       1       0       8       1       1
       0       8       1       1       0       8       1       1       0       8
       1       1       0       8       1       1       0       8       1       1
       0       8       1       1       0       8       1       1       0       8
       1       1       0       8       1       1       0       8       1       1
       0       8       1       1       0       8       1       1       0       8
       1       1       0       8       1       1       0       8       1       1
       0       8       1       1       0       8       1       1       0       8
       1       1       0       8       1       1       0       8       1       1
       0       8       1       1       0       8       1       1       0       8
       1       1       0       8       1       1       0       8       1       1
       0       8       1       1       0       8       1       1       0       8
       1       1       0       8       1       1       0       8       1       1
       0       8       1       1       0       8       1       1       0       8
       1       1       0       8       1       1       0       8       1       1
       0       8       1       1       0       8       1       1       0       8
       1       1       0       8       1       1       0       8       1       1
       0       8       1       1       0       8       1       1       0       8
       1       1       0       8       1       1       0       8       1       1
       0       8       1       1       0       8       1       1       0       8
       1       1       0       8       1       1       0       8       1       1
       0       8       1       1       0       8       1       1       0       8
       1       1       0       8       1       1       0       8       1       1
       0       8       1       1       0       8       1       1       0       8
       1       1       0       8       1       1       0       8       1       1
       0       8       1       1       0       8       1       1       0       8
       1       1       0       8       1       1       0       8       1       1
       0       8       1       1       0       8       1       1       0       8
       1       1       0       8       1       1       0       8       1       1
       0       8       1       1       0       8       1       1       0       8
       1       1       0       8       1       1       0       8       1       1
       0       8       1       1       0       8       1       1       0       8
       1       1       0       8       1       1       0       8       1       1
       0       8       1       1       0       8       1       1       0       8
       1       1       0       8       1       1       0       8       1       1
       0       8       1       1       0       8       1       1       0       8
       1       1       0       8       1       1       0       8       1       1
       0       8       1       1       0       8       1       1       0       8
       1       1       0       8       1       1       0       8       1       1
       0       8       1       1       0       8       1       1       0       8
       1       1       0       8       1       1       0       8       1       1
       0       8       1       1       0       8       1       1       0       8
       1       1       0       8       1       1       0       8       1       1
       0       8       1       1       0       8       1       1       0       8
       1       1       0       8       1       1       0       8       1       1
       0       8       1       1       0       8       1       1       0       8
       1       1       0       8       1       1       0       8       1       1
       0       8       1       1       0       8       1       1       0       8
       1       1       0       8       1       1       0       8       1       1
       0       8       1       1       0       8       1       1       0       8
       1       1       0       8       1       1       0       8       1       1
       0       8       1       1       0       8       1       1       0       8
       1       1       0       8       1       1       0       8       1       1
       0       8       1       1       0       8       1       1       0       8
       1       1       0       8       1       1       0       8       1       1
       0       8       1       1       0       8       1       1       0       8
       1       1       0       8       1       1       0       8       1       1
       0       8       1       1       0       8       1       1       0       8
       1       1       0       8       1       1       0       8       1       1
       0       8       1       1       0       8       1       1       0       8
       1       1       0       8       1       1       0       8       1       1
       0       8       1       1       0       8       1       1       0       8
       1       1       0       8       1       1       0       8       1       1
       0       8       1       1       0       8       1       1       0       8
       1       1       0       8       1       1       0       8       1       1
       0       8       1       1       0       8       1       1       0       8
       1       1       0       8       1       1       0       8       1       1
       0       8       1       1       0       8       1       1       0       8
       1       1       0       8       1       1       0       8       1       1
       0       8       1       1       0       8       1       1       0       8
       1       1       0       8       1       1       0       8       1       1
       0       8       1       1       0       8       1       1       0       8
       1       1       0       8       1       1       0       8       1       1
       0       8       1       1       0       8       1       1       0       8
       1       1       0       8       1       1       0       8       1       1
       0       8       1       1       0       8       1       1       0       8
       1       1       0       8       1       1       0       8       1       1
       0       8       1       1       0       8       1       1       0       8
       1       1       0       8       1       1       0       8       1       1
       0       8       1       1       0       8       1       1       0       8
       1       1       0       8       1       1       0       8       1       1
       0       8       1       1       0       8       1       1       0       8
       1       1       0       8       1       1       0       8       1       1
       0       8       1       1       0       8       1       1       0       8
       1       1       0       8       1       1       0       8       1       1
       0       8       1       1       0       8       1       1       0       8
       1       1       0       8       1       1       0       8       1       1
       0       8       1       1       0       8       1       1       0       8
       1       1       0       8       1       1       0       8       1       1
       0       8       1       1       0       8       1       1       0       8
       1       1       0       8       1       1       0       8       1       1
       0       8       1       1       0       8       1       1       0       8
       1       1       0       8       1       1       0       8       1       1
       0       8       1       1       0       8       1       1       0       8
       1       1       0       8       1       1       0       8       1       1
       0       8       1       1       0       8       1       1       0       8
       1       1       0       8       1       1       0       8       1       1
       0       8       1       1       0       8       1       1       0       8
       1       1       0       8       1       1       0       8       1       1
       0       8       1       1       0       8       1       1       0       8
       1       1       0       8       1       1       0       8       1       1
       0       8       1       1       0       8       1       1       0       8
       1       1       0       8       1       1       0       8       1       1
       0       8       1       1       0       8       1       1       0       8
       1       1       0       8       1       1       0       8       1       1
       0       8       1       1       0       8       1       1       0       8
       1       1       0       8       1       1       0       8       1       1
       0       8       1       1       0       8       1       1       0       8
       1       1       0       8       1       1       0       8       1       1
       0       8       1       1       0       8       1       1       0       8
       1       1       0       8       1       1       0       8       1       1
       0       8       1       1       0       8       1       1       0       8
       1       1       0       8       1       1       0       8       1       1
       0       8       1       1       0       8       1       1       0       8
       1       1       0       8       1       1       0       8       1       1
       0       8       1       1       0       8       1       1       0       8
       1       1       0       8       1       1       0       8       1       1
       0       8       1       1       0       8       1       1       0       8
       1       1       0       8       1       1       0       8       1       1
       0       8       1       1       0       8       1       1       0       8
       1       1       0       8       1       1       0       8       1       1
       0       8       1       1       0       8       1       1       0       8
       1       1       0       8       1       1       0       8       1       1
       0       8       1       1       0       8       1       1       0       8
       1       1       0       8       1       1       0       8       1       1
       0       8       1       1       0       8       1       1       0       8
       1       1       0       8       1       1       0       8       1       1
       0       8       1       1       0       8       1       1       0       8
       1       1       0       8       1       1       0       8       1       1
       0       8       1       1       0       8       1       1       0       8
       1       1       0       8       1       1       0       8       1       1
       0       8       1       1       0       8       1       1       0       8
       1       1       0       8       1       1       0       8       1       1
       0       8       1       1       0       8       1       1       0       8
       1       1       0       8       1       1       0       8       1       1
       0       8       1       1       0       8       1       1       0       8
       1       1       0       8       1       1       0       8       1       1
       0       8       1       1       0       8       1       1       0       8
       1       1       0       8       1       1       0       8       1       1
       0       8       1       1       0       8       1       1       0       8
       1       1       0       8       1       1       0       8       1       1
       0       8       1       1       0       8       1       1       0       8
       1       1       0       8       1       1       0       8       1       1
       0       8       1       1       0       8       1       1       0       8
       1       1       0       8       1       1       0       8       1       1
       0       8       1       1       0       8       1       1       0       8
       1       1       0       8       1       1       0       8       1       1
       0       8       1       1       0       8       1       1       0       8
       1       1       0       8       1       1       0       8       1       1
       0       8       1       1       0       8       1       1       0       8
       1       1       0       8       1       1       0       8       1       1
       0       8       1       1       0       8       1       1       0       8
       1       1       0       8       1       1       0       8       1       1
       0       8       1       1       0       8       1       1       0       8
       1       1       0       8       1       1       0       8       1       1
       0       8       1       1       0       8       1       1       0       8
       1       1       0       8       1       1       0       8       1       1
       0       8       1       1       0       8       1       1       0       8
       1       1       0       8       1       1       0       8       1       1
       0       8       1       1       0       8       1       1       0       8
       1       1       0       8       1       1       0       8       1       1
       0       8       1       1       0       8       1       1       0       8
       1       1       0       8       1       1       0       8       1       1
       0       8       1       1       0       8       1       1       0       8
       1       1       0       8       1       1       0       8       1       1
       0       8       1       1       0       8       1       1       0       8
       1       1       0       8       1       1       0       8       1       1
       0       8       1       1       0       8       1       1       0       8
       1       1       0       8       1       1       0       8       1       1
       0       8       1       1       0       8       1       1       0       8
       1       1       0       8       1       1       0       8       1       1
       0       8       1       1       0       8       1       1       0       8
       1       1       0       8       1       1       0       8       1       1
       0       8       1       1       0       8       1       1       0       8
       1       1       0       8       1       1       0       8       1       1
       0       8       1       1       0       8       1       1       0       8
       1       1       0       8       1       1       0       8       1       1
       0       8       1       1       0       8       1       1       0       8
       1       1       0       8       1       1       0       8       1       1
       0       8       1       1       0       8       1       1       0       8
       1       1       0       8       1       1       0       8       1       1
       0       8       1       1       0       8       1       1       0       8
       1       1       0       8       1       1       0       8       1       1
       0       8       1       1       0       8       1       1       0       8
       1       1       0       8       1       1       0       8       1       1
       0       8       1       1       0       8       1       1       0       8
       1       1       0       8       1       1       0       8       1       1
       0       8       1       1       0       8       1       1       0       8
       1       1       0       8       1       1       0       8       1       1
       0       8       1       1       0       8       1       1       0       8
       1       1       0       8       1       1       0       8       1       1
       0       8       1       1       0       8       1       1       0       8
       1       1       0       8       1       1       0       8       1       1
       0       8       1       1       0       8       1       1       0       8
       1       1       0       8       1       1       0       8       1       1
       0       8       1       1       0       8       1       1       0       8
       1       1       0       8       1       1       0       8       1       1
       0       8       1       1       0       8       1       1       0       8
       1       1       0       8       1       1       0       8       1       1
       0       8       1       1       0       8       1       1       0       8
       1       1       0       8       1       1       0       8       1       1
       0       8       1       1       0       8       1       1       0       8
       1       1       0       8       1       1       0       8       1       1
       0       8       1       1       0       8       1       1       0       8
       1       1       0       8       1       1       0       8       1       1
       0       8       1       1       0       8       1       1       0       8
       1       1       0       8       1       1       0       8       1       1
       0       8       1       1       0       8       1       1       0       8
       1       1       0       8       1       1       0       8       1       1
       0       8       1       1       0       8       1       1       0       8
       1       1       0       8       1       1       0       8       1       1
       0       8       1       1       0       8       1       1       0       8
       1       1       0       8       1       1       0       8       1       1
       0       8       1       1       0       8       1       1       0       8
       1       1       0       8       1       1       0       8       1       1
       0       8       1       1       0       8       1       1       0       8
       1       1       0       8       1       1       0       8       1       1
       0       8       1       1       0       8       1       1       0       8
       1       1       0       8       1       1       0       8       1       1
       0       8       1       1       0       8       1       1       0       8
       1       1       0       8       1       1       0       8       1       1
       0       8       1       1       0       8       1       1       0       8
       1       1       0       8       1       1       0       8       1       1
       0       8       1       1       0       8       1       1       0       8
       1       1       0       8       1       1       0       8       1       1
       0       8       1       1       0       8       1       1       0       8
       1       1       0       8       1       1       0       8       1       1
       0       8       1       1       0       8       1       1       0       8
       1       1       0       8       1       1       0       8       1       1
       0       8       1       1       0       8       1       1       0       8
       1       1       0       8       1       1       0       8       1       1
       0       8       1       1       0       8       1       1       0       8
       1       1       0       8       1       1       0       8       1       1
       0       8       1       1       0       8       1       1       0       8
       1       1       0       8       1       1       0       8       1       1
       0       8       1       1       0       8       1       1       0       8
       1       1       0       8       1       1       0       8       1       1
       0       8       1       1       0       8       1       1       0       8
       1       1       0       8       1       1       0       8       1       1
       0       8       1       1       0       8       1       1       0       8
       1       1       0       8       1       1       0       8       1       1
       0       8       1       1       0       8       1       1       0       8
       1       1       0       8       1       1       0       8       1       1
       0       8       1       1       0       8       1       1       0       8
       1       1       0       8       1       1       0       8       1       1
       0       8       1       1       0       8       1       1       0       8
       1       1       0       8       1       1       0       8       1       1
       0       8       1       1       0       8       1       1       0       8
       1       1       0       8       1       1       0       8       1       1
       0       8       1       1       0       8       1       1       0       8
       1       1       0       8       1       1       0       8       1       1
       0       8       1       1       0       8       1       1       0       8
       1       1       0       8       1       1       0       8       1       1
       0       8       1       1       0       8       1       1       0       8
       1       1       0       8       1       1       0       8       1       1
       0       8       1       1       0       8       1       1       0       8
       1       1       0       8       1       1       0       8       1       1
       0       8       1       1       0       8       1       1       0       8
       1       1       0       8       1       1       0       8       1       1
       0       8       1       1       0       8       1       1       0       8
       1       1       0       8       1       1       0       8       1       1
       0       8       1       1       0       8       1       1       0       8
       1       1       0       8       1       1       0       8       1       1
       0       8       1       1       0       8       1       1       0       8
       1       1       0       8       1       1       0       8       1       1
       0       8       1       1       0       8       1       1       0       8
       1       1       0       8       1       1       0       8       1       1
       0       8       1       1       0       8       1       1       0       8
       1       1       0       8       1       1       0       8       1       1
       0       8       1       1       0       8       1       1       0       8
       1       1       0       8       1       1       0       8       1       1
       0       8       1       1       0       8       1       1       0       8
       1       1       0       8       1       1       0       8       1       1
       0       8       1       1       0       8       1       1       0       8
       1       1       0       8       1       1       0       8       1       1
       0       8       1       1       0       8       1       1       0       8
       1       1       0       8       1       1       0       8       1       1
       0       8       1       1       0       8       1       1       0       8
       1       1       0       8       1       1       0       8       1       1
       0       8       1       1       0       8       1       1       0       8
       1       1       0       8       1       1       0       8       1       1
       0       8       1       1       0       8       1       1       0       8
       1       1       0       8       1       1       0       8       1       1
       0       8       1       1       0       8       1       1       0       8
       1       1       0       8       1       1       0       8       1       1
       0       8       1       1       0       8       1       1       0       8
       1       1       0       8       1       1       0       8       1       1
       0       8       1       1       0       8       1       1       0       8
       1       1       0       8       1       1       0       8       1       1
       0       8       1       1       0       8       1       1       0       8
       1       1       0       8       1       1       0       8       1       1
       0       8       1       1       0       8       1       1       0       8
       1       1       0       8       1       1       0       8       1       1
       0       8       1       1       0       8       1       1       0       8
       1       1       0       8       1       1       0       8       1       1
       0       8       1       1       0       8       1       1       0       8
       1       1       0       8       1       1       0       8       1       1
       0       8       1       1       0       8       1       1       0       8
       1       1       0       8       1       1       0       8       1       1
       0       8       1       1       0       8       1       1       0       8
       1       1       0       8       1       1       0       8       1       1
       0       8       1       1       0       8       1       1       0       8
       1       1       0       8       1       1       0       8       1       1
       0       8       1       1       0       8       1       1       0       8
       1       1       0       8       1       1       0       8       1       1
       0       8       1       1       0       8       1       1       0       8
       1       1       0       8       1       1       0       8       1       1
       0       8       1       1       0       8       1       1       0       8
       1       1       0       8       1       1       0       8       1       1
       0       8       1       1       0       8       1       1       0       8
       1       1       0       8       1       1       0       8       1       1
       0       8       1       1       0       8       1       1       0       8
       1       1       0       8       1       1       0       8       1       1
       0       8       1       1       0       8       1       1       0       8
       1       1       0       8       1       1       0       8       1       1
       0       8       1       1       0       8       1       1       0       8
       1       1       0       8       1       1       0       8       1       1
       0       8       1       1       0       8       1       1       0       8
       1       1       0       8       1       1       0       8       1       1
       0       8       1       1       0       8       1       1       0       8
       1       1       0       8       1       1       0       8       1       1
       0       8       1       1       0       8       1       1       0       8
       1       1       0       8       1       1       0       8       1       1
       0       8       1       1       0       8       1       1       0       8
       1       1       0       8       1       1       0       8       1       1
       0       8       1       1       0       8       1       1       0       8
       1       1       0       8       1       1       0       8       1       1
       0       8       1       1       0       8       1       1       0       8
       1       1       0       8       1       1       0       8       1       1
       0       8       1       1       0       8       1       1       0       8
       1       1       0       8       1       1       0       8       1       1
       0       8       1       1       0       8       1       1       0       8
       1       1       0       8       1       1       0       8       1       1
       0       8       1       1       0       8       1       1       0       8
       1       1       0       8       1       1       0       8       1       1
       0       8       1       1       0       8       1       1       0       8
       1       1       0       8       1       1       0       8       1       1
       0       8       1       1       0       8       1       1       0       8
       1       1       0       8       1       1       0       8       1       1
       0       8       1       1       0       8       1       1       0       8
       1       1       0       8       1       1       0       8       1       1
       0       8       1       1       0       8       1       1       0       8
       1       1       0       8       1       1       0       8       1       1
       0       8       1       1       0       8       1       1       0       8
       1       1       0       8       1       1       0       8       1       1
       0       8       1       1       0       8       1       1       0       8
       1       1       0       8       1       1       0       8       1       1
       0       8       1       1       0       8       1       1       0       8
       1       1       0       8       1       1       0       8       1       1
       0       8       1       1       0       8       1       1       0       8
       1       1       0       8       1       1       0       8       1       1
       0       8       1       1       0       8       1       1       0       8
       1       1       0       8       1       1       0       8       1       1
       0       8       1       1       0       8       1       1       0       8
       1       1       0       8       1       1       0       8       1       1
       0       8       1       1       0       8       1       1       0       8
       1       1       0       8       1       1       0       8       1       1
       0       8       1       1       0       8       1       1       0       8
       1       1       0       8       1       1       0       8       1       1
       0       8       1       1       0       8       1       1       0       8
       1       1       0       8       1       1       0       8       1       1
       0       8       1       1       0       8       1       1       0       8
       1       1       0       8       1       1       0       8       1       1
       0       8       1       1       0       8       1       1       0       8
       1       1       0       8       1       1       0       8       1       1
       0       8       1       1       0       8       1       1       0       8
       1       1       0       8       1       1       0       8       1       1
       0       8       1       1       0       8       1       1       0       8
       1       1       0       8       1       1       0       8       1       1
       0       8       1       1       0       8       1       1       0       8
       1       1       0       8       1       1       0       8       1       1
       0       8       1       1       0       8       1       1       0       8
       1       1       0       8       1       1       0       8       1       1
       0       8       1       1       0       8       1       1       0       8
       1       1       0       8       1       1       0       8       1       1
       0       8       1       1       0       8       1       1       0       8
       1       1       0       8       1       1       0       8       1       1
       0       8       1       1       0       8       1       1       0       8
       1       1       0       8       1       1       0       8       1       1
       0       8       1       1       0       8       1       1       0       8
       1       1       0       8       1       1       0       8       1       1
       0       8       1       1       0       8       1       1       0       8
       1       1       0       8       1       1       0       8       1       1
       0       8       1       1       0       8       1       1       0       8
       1       1       0       8       1       1       0       8       1       1
       0       8       1       1       0       8       1       1       0       8
       1       1       0       8       1       1       0       8       1       1
       0       8       1       1       0       8       1       1       0       8
       1       1       0       8       1       1       0       8       1       1
       0       8       1       1       0       8       1       1       0       8
       1       1       0       8       1       1       0       8       1       1
       0       8       1       1       0       8       1       1       0       8
       1       1       0       8       1       1       0       8       1       1
       0       8       1       1       0       8       1       1       0       8
       1       1       0       8       1       1       0       8       1       1
       0       8       1       1       0       8       1       1       0       8
       1       1       0       8       1       1       0       8       1       1
       0       8       1       1       0       8       1       1       0       8
       1       1       0       8       1       1       0       8       1       1
       0       8       1       1       0       8       1       1       0       8
       1       1       0       8       1       1       0       8       1       1
       0       8       1       1       0       8       1       1       0       8
       1       1       0       8       1       1       0       8       1       1
       0       8       1       1       0       8       1       1       0       8
       1       1       0       8       1       1       0       8       1       1
       0       8       1       1       0       8       1       1       0       8
       1       1       0       8       1       1       0       8       1       1
       0       8       1       1       0       8       1       1       0       8
       1       1       0       8       1       1       0       8       1       1
       0       8       1       1       0       8       1       1       0       8
       1       1       0       8       1       1       0       8       1       1
       0       8       1       1       0       8       1       1       0       8
       1       1       0       8       1       1       0       8       1       1
       0       8       1       1       0       8       1       1       0       8
       1       1       0       8       1       1       0       8       1       1
       0       8       1       1       0       8       1       1       0       8
       1       1       0       8       1       1       0       8       1       1
       0       8       1       1       0       8       1       1       0       8
       1       1       0       8       1       1       0       8       1       1
       0       8       1       1       0       8       1       1       0       8
       1       1       0       8       1       1       0       8       1       1
       0       8       1       1       0       8       1       1       0       8
       1       1       0       8       1       1       0       8       1       1
       0       8       1       1       0       8       1       1       0       8
       1       1       0       8       1       1       0       8       1       1
       0       8       1       1       0       8       1       1       0       8
       1       1       0       8       1       1       0       8       1       1
       0       8       1       1       0       8       1       1       0       8
       1       1       0       8       1       1       0       8       1       1
       0       8       1       1       0       8       1       1       0       8
       1       1       0       8       1       1       0       8       1       1
       0       8       1       1       0       8       1       1       0       8
       1       1       0       8       1       1       0       8       1       1
       0       8       1       1       0       8       1       1       0       8
       1       1       0       8       1       1       0       8       1       1
       0       8       1       1       0       8       1       1       0       8
       1       1       0       8       1       1       0       8       1       1
       0       8       1       1       0       8       1       1       0       8
       1       1       0       8       1       1       0       8       1       1
       0       8       1       1       0       8       1       1       0       8
       1       1       0       8       1       1       0       8       1       1
       0       8       1       1       0       8       1       1       0       8
       1       1       0       8       1       1       0       8       1       1
       0       8       1       1       0       8       1       1       0       8
       1       1       0       8       1       1       0       8       1       1
       0       8       1       1       0       8       1       1       0       8
       1       1       0       8       1       1       0       8       1       1
       0       8       1       1       0       8       1       1       0       8
       1       1       0       8       1       1       0       8       1       1
       0       8       1       1       0       8       1       1       0       8
       1       1       0       8       1       1       0       8       1       1
       0       8       1       1       0       8       1       1       0       8
       1       1       0       8       1       1       0       8       1       1
       0       8       1       1       0       8       1       1       0       8
       1       1       0       8       1       1       0       8       1       1
       0       8       1       1       0       8       1       1       0       8
       1       1       0       8       1       1       0       8       1       1
       0       8       1       1       0       8       1       1       0       8
       1       1       0       8       1       1       0       8       1       1
       0       8       1       1       0       8       1       1       0       8
       1       1       0       8       1       1       0       8       1       1
       0       8       1       1       0       8       1       1       0       8
       1       1       0       8       1       1       0       8       1       1
       0       8       1       1       0       8       1       1       0       8
       1       1       0       8       1       1       0       8       1       1
       0       8       1       1       0       8       1       1       0       8
       1       1       0       8       1       1       0       8       1       1
       0       8       1       1       0       8       1       1       0       8
       1       1       0       8       1       1       0       8       1       1
       0       8       1       1       0       8       1       1       0       8
       1       1       0       8       1       1       0       8       1       1
       0       8       1       1       0       8       1       1       0       8
       1       1       0       8       1       1       0       8       1       1
       0       8       1       1       0       8       1       1       0       8
       1       1       0       8       1       1       0       8       1       1
       0       8       1       1       0       8       1       1       0       8
       1       1       0       8       1       1       0       8       1       1
       0       8       1       1       0       8       1       1       0       8
       1       1       0       8       1       1       0       8       1       1
       0       8       1       1       0       8       1       1       0       8
       1       1       0       8       1       1       0       8       1       1
       0       8       1       1       0       8       1       1       0       8
       1       1       0       8       1       1       0       8       1       1
       0       8       1       1       0       8       1       1       0       8
       1       1       0       8       1       1       0       8       1       1
       0       8       1       1       0       8       1       1       0       8
       1       1       0       8       1       1       0       8       1       1
       0       8       1       1       0       8       1       1       0       8
       1       1       0       8       1       1       0       8       1       1
       0       8       1       1       0       8       1       1       0       8
       1       1       0       8       1       1       0       8       1       1
       0       8       1       1       0       8       1       1       0       8
       1       1       0       8       1       1       0       8       1       1
       0       8       1       1       0       8       1       1       0       8
       1       1       0       8       1       1       0       8       1       1
       0       8       1       1       0       8       1       1       0       8
       1       1       0       8       1       1       0       8       1       1
       0       8       1       1       0       8       1       1       0       8
       1       1       0       8       1       1       0       8       1       1
       0       8       1       1       0       8       1       1       0       8
       1       1       0       8       1       1       0       8       1       1
       0       8       1       1       0       8       1       1       0       8
       1       1       0       8       1       1       0       8       1       1
       0       8       1       1       0       8       1       1       0       8
       1       1       0       8       1       1       0       8       1       1
       0       8       1       1       0       8       1       1       0       8
       1       1       0       8       1       1       0       8       1       1
       0       8       1       1       0       8       1       1       0       8
       1       1       0       8       1       1       0       8       1       1
       0       8       1       1       0       8       1       1       0       8
       1       1       0       8       1       1       0       8       1       1
       0       8       1       1       0       8       1       1       0       8
       1       1       0       8       1       1       0       8       1       1
       0       8       1       1       0       8       1       1       0       8
       1       1       0       8       1       1       0       8       1       1
       0       8       1       1       0       8       1       1       0       8
       1       1       0       8       1       1       0       8       1       1
       0       8       1       1       0       8       1       1       0       8
       1       1       0       8       1       1       0       8       1       1
       0       8       1       1       0       8       1       1       0       8
       1       1       0       8       1       1       0       8       1       1
       0       8       1       1       0       8       1       1       0       8
       1       1       0       8       1       1       0       8       1       1
       0       8       1       1       0       8       1       1       0       8
       1       1       0       8       1       1       0       8       1       1
       0       8       1       1       0       8       1       1       0       8
       1       1       0       8       1       1       0       8       1       1
       0       8       1       1       0       8       1       1       0       8
       1       1       0       8       1       1       0       8       1       1
       0       8       1       1       0       8       1       1       0       8
       1       1       0       8       1       1       0       8       1       1
       0       8       1       1       0       8       1       1       0       8
       1       1       0       8       1       1       0       8       1       1
       0       8       1       1       0       8       1       1       0       8
       1       1       0       8       1       1       0       8       1       1
       0       8       1       1       0       8       1       1       0       8
       1       1       0       8       1       1       0       8       1       1
       0       8       1       1       0       8       1       1       0       8
       1       1       0       8       1       1       0       8       1       1
       0       8       1       1       0       8       1       1       0       8
       1       1       0       8       1       1       0       8       1       1
       0       8       1       1       0       8       1       1       0       8
       1       1       0       8       1       1       0       8       1       1
       0       8       1       1       0       8       1       1       0       8
       1       1       0       8       1       1       0       8       1       1
       0       8       1       1       0       8       1       1       0       8
       1       1       0       8       1       1       0       8       1       1
       0       8       1       1       0       8       1       1       0       8
       1       1       0       8       1       1       0       8       1       1
       0       8       1       1       0       8       1       1       0       8
       1       1       0       8       1       1       0       8       1       1
       0       8       1       1       0       8       1       1       0       8
       1       1       0       8       1       1       0       8       1       1
       0       8       1       1       0       8       1       1       0       8
       1       1       0       8       1       1       0       8       1       1
       0       8       1       1       0       8       1       1       0       8
       1       1       0       8       1       1       0       8       1       1
       0       8       1       1       0       8       1       1       0       8
       1       1       0       8       1       1       0       8       1       1
       0       8       1       1       0       8       1       1       0       8
       1       1       0       8       1       1       0       8       1       1
       0       8       1       1       0       8       1       1       0       8
       1       1       0       8       1       1       0       8       1       1
       0       8       1       1       0       8       1       1       0       8
       1       1       0       8       1       1       0       8       1       1
       0       8       1       1       0       8       1       1       0       8
       1       1       0       8       1       1       0       8       1       1
       0       8       1       1       0       8       1       1       0       8
       1       1       0       8       1       1       0       8       1       1
       0       8       1       1       0       8       1       1       0       8
       1       1       0       8       1       1       0       8       1       1
       0       8       1       1       0       8       1       1       0       8
       1       1       0       8       1       1       0       8       1       1
       0       8       1       1       0       8       1       1       0       8
       1       1       0       8       1       1       0       8       1       1
       0       8       1       1       0       8       1       1       0       8
       1       1       0       8       1       1       0       8       1       1
       0       8       1       1       0       8       1       1       0       8
       1       1       0       8       1       1       0       8       1       1
       0       8       1       1       0       8       1       1       0       8
       1       1       0       8       1       1       0       8       1       1
       0       8       1       1       0       8       1       1       0       8
       1       1       0       8       1       1       0       8       1       1
       0       8       1       1       0       8       1       1       0       8
       1       1       0       8       1       1       0       8       1       1
       0       8       1       1       0       8       1       1       0       8
       1       1       0       8       1       1       0       8       1       1
       0       8       1       1       0       8       1       1       0       8
       1       1       0       8       1       1       0       8       1       1
       0       8       1       1       0       8       1       1       0       8
       1       1       0       8       1       1       0       8       1       1
       0       8       1       1       0       8       1       1       0       8
       1       1       0       8       1       1       0       8       1       1
       0       8       1       1       0       8       1       1       0       8
       1       1       0       8       1       1       0       8       1       1
       0       8       1       1       0       8       1       1       0       8
       1       1       0       8       1       1       0       8       1       1
       0       8       1       1       0       8       1       1       0       8
       1       1       0       8       1       1       0       8       1       1
       0       8       1       1       0       8       1       1       0       8
       1       1       0       8       1       1       0       8       1       1
       0
%FLAG MASS                                                                      
%FORMAT(5E16.8)                                                                 
  1.00800000E+00  1.20100000E+01  1.00800000E+00  1.00800000E+00  1.20100000E+01
  1.60000000E+01  1.40100000E+01  1.00800000E+00  1.20100000E+01  1.00800000E+00
  1.20100000E+01  1.00800000E+00  1.00800000E+00  1.20100000E+01  1.20100000E+01
  1.00800000E+00  1.40100000E+01  1.00800000E+00  1.20100000E+01  1.20100000E+01
  1.00800000E+00  1.20100000E+01  1.00800000E+00  1.20100000E+01  1.00800000E+00
  1.20100000E+01  1.00800000E+00  1.20100000E+01  1.20100000E+01  1.60000000E+01
  1.40100000E+01  1.00800000E+00  1.20100000E+01  1.00800000E+00  1.20100000E+01
  1.00800000E+00  1.20100000E+01  1.00800000E+00  1.00800000E+00  1.00800000E+00
  1.20100000E+01  1.00800000E+00  1.00800000E+00  1.00800000E+00  1.20100000E+01
  1.60000000E+01  1.40100000E+01  1.00800000E+00  1.20100000E+01  1.00800000E+00
  1.20100000E+01  1.00800000E+00  1.20100000E+01  1.00800000E+00  1.00800000E+00
  1.00800000E+00  1.60000000E+01  1.00800000E+00  1.20100000E+01  1.60000000E+01
  1.40100000E+01  1.00800000E+00  1.20100000E+01  1.00800000E+00  1.20100000E+01
  1.00800000E+00  1.00800000E+00  1.20100000E+01  1.40100000E+01  1.00800000E+00
  1.20100000E+01  1.00800000E+00  1.40100000E+01  1.20100000E+01  1.00800000E+00
  1.20100000E+01  1.60000000E+01  1.40100000E+01  1.00800000E+00  1.20100000E+01
  1.00800000E+00  1.20100000E+01  1.00800000E+00  1.00800000E+00  1.20100000E+01
  1.00800000E+00  1.00800000E+00  1.20100000E+01  1.00800000E+00  1.00800000E+00
  1.40100000E+01  1.00800000E+00  1.20100000E+01  1.40100000E+01  1.00800000E+00
  1.00800000E+00  1.40100000E+01  1.00800000E+00  1.00800000E+00  1.20100000E+01
  1.60000000E+01  1.20100000E+01  1.60000000E+01  1.20100000E+01  1.20100000E+01
  1.20100000E+01  1.20100000E+01  1.20100000E+01  1.20100000E+01  1.20100000E+01
  1.20100000E+01  1.40100000E+01  1.00800000E+00  1.00800000E+00  1.00800000E+00
  1.00800000E+00  1.00800000E+00  1.00800000E+00  1.00800000E+00  1.00800000E+00
  1.00800000E+00  1.00800000E+00  1.00800000E+00  1.00800000E+00  1.00800000E+00
  1.00800000E+00  1.40100000E+01  1.00800000E+00  1.20100000E+01  1.00800000E+00
  1.20100000E+01  1.00800000E+00  1.00800000E+00  1.00800000E+00  1.20100000E+01
  1.60000000E+01  1.40100000E+01  1.00800000E+00  1.20100000E+01  1.00800000E+00
  1.00800000E+00  1.20100000E+01  1.60000000E+01  1.40100000E+01  1.00800000E+00
  1.20100000E+01  1.00800000E+00  1.20100000E+01  1.00800000E+00  1.00800000E+00
  1.20100000E+01  1.00800000E+00  1.20100000E+01  1.00800000E+00  1.00800000E+00
  1.00800000E+00  1.20100000E+01  1.00800000E+00  1.00800000E+00  1.00800000E+00
  1.20100000E+01  1.60000000E+01  1.20100000E+01  1.60000000E+01  1.20100000E+01
  1.20100000E+01  1.20100000E+01  1.20100000E+01  1.40100000E+01  1.00800000E+00
  1.00800000E+00  1.00800000E+00  1.00800000E+00  1.00800000E+00  1.00800000E+00
  1.00800000E+00  1.00800000E+00  1.40100000E+01  1.00800000E+00  1.20100000E+01
  1.00800000E+00  1.20100000E+01  1.00800000E+00  1.00800000E+00  1.60000000E+01
  1.00800000E+00  1.20100000E+01  1.60000000E+01  1.40100000E+01  1.00800000E+00
  1.20100000E+01  1.00800000E+00  1.20100000E+01  1.00800000E+00  1.00800000E+00
  1.20100000E+01  1.00800000E+00  1.00800000E+00  1.20100000E+01  1.00800000E+00
  1.00800000E+00  1.40100000E+01  1.00800000E+00  1.20100000E+01  1.40100000E+01
  1.00800000E+00  1.00800000E+00  1.40100000E+01  1.00800000E+00  1.00800000E+00
  1.20100000E+01  1.60000000E+01  1.40100000E+01  1.00800000E+00  1.20100000E+01
  1.00800000E+00  1.20100000E+01  1.00800000E+00  1.00800000E+00  1.60000000E+01
  1.00800000E+00  1.20100000E+01  1.60000000E+01  1.40100000E+01  1.00800000E+00
  1.20100000E+01  1.00800000E+00  1.00800000E+00  1.20100000E+01  1.60000000E+01
  1.40100000E+01  1.00800000E+00  1.20100000E+01  1.00800000E+00  1.00800000E+00
  1.20100000E+01  1.60000000E+01  1.40100000E+01  1.00800000E+00  1.20100000E+01
  1.00800000E+00  1.20100000E+01  1.00800000E+00  1.20100000E+01  1.00800000E+00
  1.00800000E+00  1.00800000E+00  1.20100000E+01  1.00800000E+00  1.00800000E+00
  1.00800000E+00  1.20100000E+01  1.60000000E+01  1.40100000E+01  1.00800000E+00
  1.20100000E+01  1.00800000E+00  1.20100000E+01  1.00800000E+00  1.20100000E+01
  1.00800000E+00  1.00800000E+00  1.00800000E+00  1.20100000E+01  1.00800000E+00
  1.00800000E+00  1.00800000E+00  1.20100000E+01  1.60000000E+01  1.40100000E+01
  1.00800000E+00  1.20100000E+01  1.00800000E+00  1.20100000E+01  1.00800000E+00
  1.00800000E+00  1.20100000E+01  1.00800000E+00  1.00800000E+00  1.20100000E+01
  1.00800000E+00  1.00800000E+00  1.20100000E+01  1.00800000E+00  1.00800000E+00
  1.40100000E+01  1.00800000E+00  1.00800000E+00  1.00800000E+00  1.20100000E+01
  1.60000000E+01  1.40100000E+01  1.00800000E+00  1.20100000E+01  1.00800000E+00
  1.20100000E+01  1.00800000E+00  1.00800000E+00  1.20100000E+01  1.60000000E+01
  1.40100000E+01  1.00800000E+00  1.00800000E+00  1.20100000E+01  1.60000000E+01
  1.40100000E+01  1.00800000E+00  1.20100000E+01  1.00800000E+00  1.20100000E+01
  1.00800000E+00  1.00800000E+00  1.20100000E+01  1.60000000E+01  1.40100000E+01
  1.00800000E+00  1.00800000E+00  1.20100000E+01  1.60000000E+01  1.40100000E+01
  1.00800000E+00  1.20100000E+01  1.00800000E+00  1.20100000E+01  1.00800000E+00
  1.00800000E+00  1.20100000E+01  1.20100000E+01  1.00800000E+00  1.20100000E+01
  1.00800000E+00  1.20100000E+01  1.00800000E+00  1.20100000E+01  1.00800000E+00
  1.20100000E+01  1.00800000E+00  1.20100000E+01  1.60000000E+01  1.40100000E+01
  1.00800000E+00  1.20100000E+01  1.00800000E+00  1.20100000E+01  1.00800000E+00
  1.20100000E+01  1.00800000E+00  1.00800000E+00  1.00800000E+00  1.20100000E+01
  1.00800000E+00  1.00800000E+00  1.00800000E+00  1.20100000E+01  1.60000000E+01
  1.40100000E+01  1.20100000E+01  1.00800000E+00  1.00800000E+00  1.20100000E+01
  1.00800000E+00  1.00800000E+00  1.20100000E+01  1.00800000E+00  1.00800000E+00
  1.20100000E+01  1.00800000E+00  1.20100000E+01  1.60000000E+01  1.40100000E+01
  1.00800000E+00  1.20100000E+01  1.00800000E+00  1.20100000E+01  1.00800000E+00
  1.20100000E+01  1.00800000E+00  1.00800000E+00  1.00800000E+00  1.60000000E+01
  1.00800000E+00  1.20100000E+01  1.60000000E+01  1.40100000E+01  1.00800000E+00
  1.20100000E+01  1.00800000E+00  1.20100000E+01  1.00800000E+00  1.00800000E+00
  1.20100000E+01  1.60000000E+01  1.60000000E+01  1.20100000E+01  1.60000000E+01
  1.40100000E+01  1.00800000E+00  1.20100000E+01  1.00800000E+00  1.20100000E+01
  1.00800000E+00  1.20100000E+01  1.00800000E+00  1.00800000E+00  1.00800000E+00
  1.20100000E+01  1.00800000E+00  1.00800000E+00  1.00800000E+00  1.20100000E+01
  1.60000000E+01  1.40100000E+01  1.00800000E+00  1.20100000E+01  1.00800000E+00
  1.00800000E+00  1.20100000E+01  1.60000000E+01  1.40100000E+01  1.20100000E+01
  1.00800000E+00  1.00800000E+00  1.20100000E+01  1.00800000E+00  1.00800000E+00
  1.20100000E+01  1.00800000E+00  1.00800000E+00  1.20100000E+01  1.00800000E+00
  1.20100000E+01  1.60000000E+01  1.40100000E+01  1.00800000E+00  1.20100000E+01
  1.00800000E+00  1.20100000E+01  1.00800000E+00  1.00800000E+00  1.20100000E+01
  1.20100000E+01  1.00800000E+00  1.20100000E+01  1.00800000E+00  1.20100000E+01
  1.00800000E+00  1.20100000E+01  1.00800000E+00  1.20100000E+01  1.00800000E+00
  1.20100000E+01  1.60000000E+01  1.40100000E+01  1.00800000E+00  1.20100000E+01
  1.00800000E+00  1.20100000E+01  1.00800000E+00  1.00800000E+00  1.00800000E+00
  1.20100000E+01  1.60000000E+01  1.40100000E+01  1.00800000E+00  1.20100000E+01
  1.00800000E+00  1.20100000E+01  1.00800000E+00  1.00800000E+00  1.20100000E+01
  1.20100000E+01  1.00800000E+00  1.20100000E+01  1.00800000E+00  1.20100000E+01
  1.00800000E+00  1.20100000E+01  1.00800000E+00  1.20100000E+01  1.00800000E+00
  1.20100000E+01  1.60000000E+01  1.40100000E+01  1.00800000E+00  1.00800000E+00
  2.29900000E+01  2.29900000E+01  2.29900000E+01  2.29900000E+01  2.29900000E+01
  2.29900000E+01  2.29900000E+01  2.29900000E+01  2.29900000E+01  2.29900000E+01
  2.29900000E+01  2.29900000E+01  2.29900000E+01  2.29900000E+01  2.29900000E+01
  2.29900000E+01  2.29900000E+01  2.29900000E+01  2.29900000E+01  2.29900000E+01
  3.54500000E+01  3.54500000E+01  3.54500000E+01  3.54500000E+01  3.54500000E+01
  3.54500000E+01  3.54500000E+01  3.54500000E+01  3.54500000E+01  3.54500000E+01
  3.54500000E+01  3.54500000E+01  3.54500000E+01  3.54500000E+01  3.54500000E+01
  3.54500000E+01  3.54500000E+01  3.54500000E+01  3.54500000E+01  3.54500000E+01
  3.54500000E+01  3.54500000E+01  1.60000000E+01  1.00800000E+00  1.00800000E+00
  0.00000000E+00  1.60000000E+01  1.00800000E+00  1.00800000E+00  0.00000000E+00
  1.60000000E+01  1.00800000E+00  1.00800000E+00  0.00000000E+00  1.60000000E+01
  1.00800000E+00  1.00800000E+00  0.00000000E+00  1.60000000E+01  1.00800000E+00
  1.00800000E+00  0.00000000E+00  1.60000000E+01  1.00800000E+00  1.00800000E+00
  0.00000000E+00  1.60000000E+01  1.00800000E+00  1.00800000E+00  0.00000000E+00
  1.60000000E+01  1.00800000E+00  1.00800000E+00  0.00000000E+00  1.60000000E+01
  1.00800000E+00  1.00800000E+00  0.00000000E+00  1.60000000E+01  1.00800000E+00
  1.00800000E+00  0.00000000E+00  1.60000000E+01  1.00800000E+00  1.00800000E+00
  0.00000000E+00  1.60000000E+01  1.00800000E+00  1.00800000E+00  0.00000000E+00
  1.60000000E+01  1.00800000E+00  1.00800000E+00  0.00000000E+00  1.60000000E+01
  1.00800000E+00  1.00800000E+00  0.00000000E+00  1.60000000E+01  1.00800000E+00
  1.00800000E+00  0.00000000E+00  1.60000000E+01  1.00800000E+00  1.00800000E+00
  0.00000000E+00  1.60000000E+01  1.00800000E+00  1.00800000E+00  0.00000000E+00
  1.60000000E+01  1.00800000E+00  1.00800000E+00  0.00000000E+00  1.60000000E+01
  1.00800000E+00  1.00800000E+00  0.00000000E+00  1.60000000E+01  1.00800000E+00
  1.00800000E+00  0.00000000E+00  1.60000000E+01  1.00800000E+00  1.00800000E+00
  0.00000000E+00  1.60000000E+01  1.00800000E+00  1.00800000E+00  0.00000000E+00
  1.60000000E+01  1.00800000E+00  1.00800000E+00  0.00000000E+00  1.60000000E+01
  1.00800000E+00  1.00800000E+00  0.00000000E+00  1.60000000E+01  1.00800000E+00
  1.00800000E+00  0.00000000E+00  1.60000000E+01  1.00800000E+00  1.00800000E+00
  0.00000000E+00  1.60000000E+01  1.00800000E+00  1.00800000E+00  0.00000000E+00
  1.60000000E+01  1.00800000E+00  1.00800000E+00  0.00000000E+00  1.60000000E+01
  1.00800000E+00  1.00800000E+00  0.00000000E+00  1.60000000E+01  1.00800000E+00
  1.00800000E+00  0.00000000E+00  1.60000000E+01  1.00800000E+00  1.00800000E+00
  0.00000000E+00  1.60000000E+01  1.00800000E+00  1.00800000E+00  0.00000000E+00
  1.60000000E+01  1.00800000E+00  1.00800000E+00  0.00000000E+00  1.60000000E+01
  1.00800000E+00  1.00800000E+00  0.00000000E+00  1.60000000E+01  1.00800000E+00
  1.00800000E+00  0.00000000E+00  1.60000000E+01  1.00800000E+00  1.00800000E+00
  0.00000000E+00  1.60000000E+01  1.00800000E+00  1.00800000E+00  0.00000000E+00
  1.60000000E+01  1.00800000E+00  1.00800000E+00  0.00000000E+00  1.60000000E+01
  1.00800000E+00  1.00800000E+00  0.00000000E+00  1.60000000E+01  1.00800000E+00
  1.00800000E+00  0.00000000E+00  1.60000000E+01  1.00800000E+00  1.00800000E+00
  0.00000000E+00  1.60000000E+01  1.00800000E+00  1.00800000E+00  0.00000000E+00
  1.60000000E+01  1.00800000E+00  1.00800000E+00  0.00000000E+00  1.60000000E+01
  1.00800000E+00  1.00800000E+00  0.00000000E+00  1.60000000E+01  1.00800000E+00
  1.00800000E+00  0.00000000E+00  1.60000000E+01  1.00800000E+00  1.00800000E+00
  0.00000000E+00  1.60000000E+01  1.00800000E+00  1.00800000E+00  0.00000000E+00
  1.60000000E+01  1.00800000E+00  1.00800000E+00  0.00000000E+00  1.60000000E+01
  1.00800000E+00  1.00800000E+00  0.00000000E+00  1.60000000E+01  1.00800000E+00
  1.00800000E+00  0.00000000E+00  1.60000000E+01  1.00800000E+00  1.00800000E+00
  0.00000000E+00  1.60000000E+01  1.00800000E+00  1.00800000E+00  0.00000000E+00
  1.60000000E+01  1.00800000E+00  1.00800000E+00  0.00000000E+00  1.60000000E+01
  1.00800000E+00  1.00800000E+00  0.00000000E+00  1.60000000E+01  1.00800000E+00
  1.00800000E+00  0.00000000E+00  1.60000000E+01  1.00800000E+00  1.00800000E+00
  0.00000000E+00  1.60000000E+01  1.00800000E+00  1.00800000E+00  0.00000000E+00
  1.60000000E+01  1.00800000E+00  1.00800000E+00  0.00000000E+00  1.60000000E+01
  1.00800000E+00  1.00800000E+00  0.00000000E+00  1.60000000E+01  1.00800000E+00
  1.00800000E+00  0.00000000E+00  1.60000000E+01  1.00800000E+00  1.00800000E+00
  0.00000000E+00  1.60000000E+01  1.00800000E+00  1.00800000E+00  0.00000000E+00
  1.60000000E+01  1.00800000E+00  1.00800000E+00  0.00000000E+00  1.60000000E+01
  1.00800000E+00  1.00800000E+00  0.00000000E+00  1.60000000E+01  1.00800000E+00
  1.00800000E+00  0.00000000E+00  1.60000000E+01  1.00800000E+00  1.00800000E+00
  0.00000000E+00  1.60000000E+01  1.00800000E+00  1.00800000E+00  0.00000000E+00
  1.60000000E+01  1.00800000E+00  1.00800000E+00  0.00000000E+00  1.60000000E+01
  1.00800000E+00  1.00800000E+00  0.00000000E+00  1.60000000E+01  1.00800000E+00
  1.00800000E+00  0.00000000E+00  1.60000000E+01  1.00800000E+00  1.00800000E+00
  0.00000000E+00  1.60000000E+01  1.00800000E+00  1.00800000E+00  0.00000000E+00
  1.60000000E+01  1.00800000E+00  1.00800000E+00  0.00000000E+00  1.60000000E+01
  1.00800000E+00  1.00800000E+00  0.00000000E+00  1.60000000E+01  1.00800000E+00
  1.00800000E+00  0.00000000E+00  1.60000000E+01  1.00800000E+00  1.00800000E+00
  0.00000000E+00  1.60000000E+01  1.00800000E+00  1.00800000E+00  0.00000000E+00
  1.60000000E+01  1.00800000E+00  1.00800000E+00  0.00000000E+00  1.60000000E+01
  1.00800000E+00  1.00800000E+00  0.00000000E+00  1.60000000E+01  1.00800000E+00
  1.00800000E+00  0.00000000E+00  1.60000000E+01  1.00800000E+00  1.00800000E+00
  0.00000000E+00  1.60000000E+01  1.00800000E+00  1.00800000E+00  0.00000000E+00
  1.60000000E+01  1.00800000E+00  1.00800000E+00  0.00000000E+00  1.60000000E+01
  1.00800000E+00  1.00800000E+00  0.00000000E+00  1.60000000E+01  1.00800000E+00
  1.00800000E+00  0.00000000E+00  1.60000000E+01  1.00800000E+00  1.00800000E+00
  0.00000000E+00  1.60000000E+01  1.00800000E+00  1.00800000E+00  0.00000000E+00
  1.60000000E+01  1.00800000E+00  1.00800000E+00  0.00000000E+00  1.60000000E+01
  1.00800000E+00  1.00800000E+00  0.00000000E+00  1.60000000E+01  1.00800000E+00
  1.00800000E+00  0.00000000E+00  1.60000000E+01  1.00800000E+00  1.00800000E+00
  0.00000000E+00  1.60000000E+01  1.00800000E+00  1.00800000E+00  0.00000000E+00
  1.60000000E+01  1.00800000E+00  1.00800000E+00  0.00000000E+00  1.60000000E+01
  1.00800000E+00  1.00800000E+00  0.00000000E+00  1.60000000E+01  1.00800000E+00
  1.00800000E+00  0.00000000E+00  1.60000000E+01  1.00800000E+00  1.00800000E+00
  0.00000000E+00  1.60000000E+01  1.00800000E+00  1.00800000E+00  0.00000000E+00
  1.60000000E+01  1.00800000E+00  1.00800000E+00  0.00000000E+00  1.60000000E+01
  1.00800000E+00  1.00800000E+00  0.00000000E+00  1.60000000E+01  1.00800000E+00
  1.00800000E+00  0.00000000E+00  1.60000000E+01  1.00800000E+00  1.00800000E+00
  0.00000000E+00  1.60000000E+01  1.00800000E+00  1.00800000E+00  0.00000000E+00
  1.60000000E+01  1.00800000E+00  1.00800000E+00  0.00000000E+00  1.60000000E+01
  1.00800000E+00  1.00800000E+00  0.00000000E+00  1.60000000E+01  1.00800000E+00
  1.00800000E+00  0.00000000E+00  1.60000000E+01  1.00800000E+00  1.00800000E+00
  0.00000000E+00  1.60000000E+01  1.00800000E+00  1.00800000E+00  0.00000000E+00
  1.60000000E+01  1.00800000E+00  1.00800000E+00  0.00000000E+00  1.60000000E+01
  1.00800000E+00  1.00800000E+00  0.00000000E+00  1.60000000E+01  1.00800000E+00
  1.00800000E+00  0.00000000E+00  1.60000000E+01  1.00800000E+00  1.00800000E+00
  0.00000000E+00  1.60000000E+01  1.00800000E+00  1.00800000E+00  0.00000000E+00
  1.60000000E+01  1.00800000E+00  1.00800000E+00  0.00000000E+00  1.60000000E+01
  1.00800000E+00  1.00800000E+00  0.00000000E+00  1.60000000E+01  1.00800000E+00
  1.00800000E+00  0.00000000E+00  1.60000000E+01  1.00800000E+00  1.00800000E+00
  0.00000000E+00  1.60000000E+01  1.00800000E+00  1.00800000E+00  0.00000000E+00
  1.60000000E+01  1.00800000E+00  1.00800000E+00  0.00000000E+00  1.60000000E+01
  1.00800000E+00  1.00800000E+00  0.00000000E+00  1.60000000E+01  1.00800000E+00
  1.00800000E+00  0.00000000E+00  1.60000000E+01  1.00800000E+00  1.00800000E+00
  0.00000000E+00  1.60000000E+01  1.00800000E+00  1.00800000E+00  0.00000000E+00
  1.60000000E+01  1.00800000E+00  1.00800000E+00  0.00000000E+00  1.60000000E+01
  1.00800000E+00  1.00800000E+00  0.00000000E+00  1.60000000E+01  1.00800000E+00
  1.00800000E+00  0.00000000E+00  1.60000000E+01  1.00800000E+00  1.00800000E+00
  0.00000000E+00  1.60000000E+01  1.00800000E+00  1.00800000E+00  0.00000000E+00
  1.60000000E+01  1.00800000E+00  1.00800000E+00  0.00000000E+00  1.60000000E+01
  1.00800000E+00  1.00800000E+00  0.00000000E+00  1.60000000E+01  1.00800000E+00
  1.00800000E+00  0.00000000E+00  1.60000000E+01  1.00800000E+00  1.00800000E+00
  0.00000000E+00  1.60000000E+01  1.00800000E+00  1.00800000E+00  0.00000000E+00
  1.60000000E+01  1.00800000E+00  1.00800000E+00  0.00000000E+00  1.60000000E+01
  1.00800000E+00  1.00800000E+00  0.00000000E+00  1.60000000E+01  1.00800000E+00
  1.00800000E+00  0.00000000E+00  1.60000000E+01  1.00800000E+00  1.00800000E+00
  0.00000000E+00  1.60000000E+01  1.00800000E+00  1.00800000E+00  0.00000000E+00
  1.60000000E+01  1.00800000E+00  1.00800000E+00  0.00000000E+00  1.60000000E+01
  1.00800000E+00  1.00800000E+00  0.00000000E+00  1.60000000E+01  1.00800000E+00
  1.00800000E+00  0.00000000E+00  1.60000000E+01  1.00800000E+00  1.00800000E+00
  0.00000000E+00  1.60000000E+01  1.00800000E+00  1.00800000E+00  0.00000000E+00
  1.60000000E+01  1.00800000E+00  1.00800000E+00  0.00000000E+00  1.60000000E+01
  1.00800000E+00  1.00800000E+00  0.00000000E+00  1.60000000E+01  1.00800000E+00
  1.00800000E+00  0.00000000E+00  1.60000000E+01  1.00800000E+00  1.00800000E+00
  0.00000000E+00  1.60000000E+01  1.00800000E+00  1.00800000E+00  0.00000000E+00
  1.60000000E+01  1.00800000E+00  1.00800000E+00  0.00000000E+00  1.60000000E+01
  1.00800000E+00  1.00800000E+00  0.00000000E+00  1.60000000E+01  1.00800000E+00
  1.00800000E+00  0.00000000E+00  1.60000000E+01  1.00800000E+00  1.00800000E+00
  0.00000000E+00  1.60000000E+01  1.00800000E+00  1.00800000E+00  0.00000000E+00
  1.60000000E+01  1.00800000E+00  1.00800000E+00  0.00000000E+00  1.60000000E+01
  1.00800000E+00  1.00800000E+00  0.00000000E+00  1.60000000E+01  1.00800000E+00
  1.00800000E+00  0.00000000E+00  1.60000000E+01  1.00800000E+00  1.00800000E+00
  0.00000000E+00  1.60000000E+01  1.00800000E+00  1.00800000E+00  0.00000000E+00
  1.60000000E+01  1.00800000E+00  1.00800000E+00  0.00000000E+00  1.60000000E+01
  1.00800000E+00  1.00800000E+00  0.00000000E+00  1.60000000E+01  1.00800000E+00
  1.00800000E+00  0.00000000E+00  1.60000000E+01  1.00800000E+00  1.00800000E+00
  0.00000000E+00  1.60000000E+01  1.00800000E+00  1.00800000E+00  0.00000000E+00
  1.60000000E+01  1.00800000E+00  1.00800000E+00  0.00000000E+00  1.60000000E+01
  1.00800000E+00  1.00800000E+00  0.00000000E+00  1.60000000E+01  1.00800000E+00
  1.00800000E+00  0.00000000E+00  1.60000000E+01  1.00800000E+00  1.00800000E+00
  0.00000000E+00  1.60000000E+01  1.00800000E+00  1.00800000E+00  0.00000000E+00
  1.60000000E+01  1.00800000E+00  1.00800000E+00  0.00000000E+00  1.60000000E+01
  1.00800000E+00  1.00800000E+00  0.00000000E+00  1.60000000E+01  1.00800000E+00
  1.00800000E+00  0.00000000E+00  1.60000000E+01  1.00800000E+00  1.00800000E+00
  0.00000000E+00  1.60000000E+01  1.00800000E+00  1.00800000E+00  0.00000000E+00
  1.60000000E+01  1.00800000E+00  1.00800000E+00  0.00000000E+00  1.60000000E+01
  1.00800000E+00  1.00800000E+00  0.00000000E+00  1.60000000E+01  1.00800000E+00
  1.00800000E+00  0.00000000E+00  1.60000000E+01  1.00800000E+00  1.00800000E+00
  0.00000000E+00  1.60000000E+01  1.00800000E+00  1.00800000E+00  0.00000000E+00
  1.60000000E+01  1.00800000E+00  1.00800000E+00  0.00000000E+00  1.60000000E+01
  1.00800000E+00  1.00800000E+00  0.00000000E+00  1.60000000E+01  1.00800000E+00
  1.00800000E+00  0.00000000E+00  1.60000000E+01  1.00800000E+00  1.00800000E+00
  0.00000000E+00  1.60000000E+01  1.00800000E+00  1.00800000E+00  0.00000000E+00
  1.60000000E+01  1.00800000E+00  1.00800000E+00  0.00000000E+00  1.60000000E+01
  1.00800000E+00  1.00800000E+00  0.00000000E+00  1.60000000E+01  1.00800000E+00
  1.00800000E+00  0.00000000E+00  1.60000000E+01  1.00800000E+00  1.00800000E+00
  0.00000000E+00  1.60000000E+01  1.00800000E+00  1.00800000E+00  0.00000000E+00
  1.60000000E+01  1.00800000E+00  1.00800000E+00  0.00000000E+00  1.60000000E+01
  1.00800000E+00  1.00800000E+00  0.00000000E+00  1.60000000E+01  1.00800000E+00
  1.00800000E+00  0.00000000E+00  1.60000000E+01  1.00800000E+00  1.00800000E+00
  0.00000000E+00  1.60000000E+01  1.00800000E+00  1.00800000E+00  0.00000000E+00
  1.60000000E+01  1.00800000E+00  1.00800000E+00  0.00000000E+00  1.60000000E+01
  1.00800000E+00  1.00800000E+00  0.00000000E+00  1.60000000E+01  1.00800000E+00
  1.00800000E+00  0.00000000E+00  1.60000000E+01  1.00800000E+00  1.00800000E+00
  0.00000000E+00  1.60000000E+01  1.00800000E+00  1.00800000E+00  0.00000000E+00
  1.60000000E+01  1.00800000E+00  1.00800000E+00  0.00000000E+00  1.60000000E+01
  1.00800000E+00  1.00800000E+00  0.00000000E+00  1.60000000E+01  1.00800000E+00
  1.00800000E+00  0.00000000E+00  1.60000000E+01  1.00800000E+00  1.00800000E+00
  0.00000000E+00  1.60000000E+01  1.00800000E+00  1.00800000E+00  0.00000000E+00
  1.60000000E+01  1.00800000E+00  1.00800000E+00  0.00000000E+00  1.60000000E+01
  1.00800000E+00  1.00800000E+00  0.00000000E+00  1.60000000E+01  1.00800000E+00
  1.00800000E+00  0.00000000E+00  1.60000000E+01  1.00800000E+00  1.00800000E+00
  0.00000000E+00  1.60000000E+01  1.00800000E+00  1.00800000E+00  0.00000000E+00
  1.60000000E+01  1.00800000E+00  1.00800000E+00  0.00000000E+00  1.60000000E+01
  1.00800000E+00  1.00800000E+00  0.00000000E+00  1.60000000E+01  1.00800000E+00
  1.00800000E+00  0.00000000E+00  1.60000000E+01  1.00800000E+00  1.00800000E+00
  0.00000000E+00  1.60000000E+01  1.00800000E+00  1.00800000E+00  0.00000000E+00
  1.60000000E+01  1.00800000E+00  1.00800000E+00  0.00000000E+00  1.60000000E+01
  1.00800000E+00  1.00800000E+00  0.00000000E+00  1.60000000E+01  1.00800000E+00
  1.00800000E+00  0.00000000E+00  1.60000000E+01  1.00800000E+00  1.00800000E+00
  0.00000000E+00  1.60000000E+01  1.00800000E+00  1.00800000E+00  0.00000000E+00
  1.60000000E+01  1.00800000E+00  1.00800000E+00  0.00000000E+00  1.60000000E+01
  1.00800000E+00  1.00800000E+00  0.00000000E+00  1.60000000E+01  1.00800000E+00
  1.00800000E+00  0.00000000E+00  1.60000000E+01  1.00800000E+00  1.00800000E+00
  0.00000000E+00  1.60000000E+01  1.00800000E+00  1.00800000E+00  0.00000000E+00
  1.60000000E+01  1.00800000E+00  1.00800000E+00  0.00000000E+00  1.60000000E+01
  1.00800000E+00  1.00800000E+00  0.00000000E+00  1.60000000E+01  1.00800000E+00
  1.00800000E+00  0.00000000E+00  1.60000000E+01  1.00800000E+00  1.00800000E+00
  0.00000000E+00  1.60000000E+01  1.00800000E+00  1.00800000E+00  0.00000000E+00
  1.60000000E+01  1.00800000E+00  1.00800000E+00  0.00000000E+00  1.60000000E+01
  1.00800000E+00  1.00800000E+00  0.00000000E+00  1.60000000E+01  1.00800000E+00
  1.00800000E+00  0.00000000E+00  1.60000000E+01  1.00800000E+00  1.00800000E+00
  0.00000000E+00  1.60000000E+01  1.00800000E+00  1.00800000E+00  0.00000000E+00
  1.60000000E+01  1.00800000E+00  1.00800000E+00  0.00000000E+00  1.60000000E+01
  1.00800000E+00  1.00800000E+00  0.00000000E+00  1.60000000E+01  1.00800000E+00
  1.00800000E+00  0.00000000E+00  1.60000000E+01  1.00800000E+00  1.00800000E+00
  0.00000000E+00  1.60000000E+01  1.00800000E+00  1.00800000E+00  0.00000000E+00
  1.60000000E+01  1.00800000E+00  1.00800000E+00  0.00000000E+00  1.60000000E+01
  1.00800000E+00  1.00800000E+00  0.00000000E+00  1.60000000E+01  1.00800000E+00
  1.00800000E+00  0.00000000E+00  1.60000000E+01  1.00800000E+00  1.00800000E+00
  0.00000000E+00  1.60000000E+01  1.00800000E+00  1.00800000E+00  0.00000000E+00
  1.60000000E+01  1.00800000E+00  1.00800000E+00  0.00000000E+00  1.60000000E+01
  1.00800000E+00  1.00800000E+00  0.00000000E+00  1.60000000E+01  1.00800000E+00
  1.00800000E+00  0.00000000E+00  1.60000000E+01  1.00800000E+00  1.00800000E+00
  0.00000000E+00  1.60000000E+01  1.00800000E+00  1.00800000E+00  0.00000000E+00
  1.60000000E+01  1.00800000E+00  1.00800000E+00  0.00000000E+00  1.60000000E+01
  1.00800000E+00  1.00800000E+00  0.00000000E+00  1.60000000E+01  1.00800000E+00
  1.00800000E+00  0.00000000E+00  1.60000000E+01  1.00800000E+00  1.00800000E+00
  0.00000000E+00  1.60000000E+01  1.00800000E+00  1.00800000E+00  0.00000000E+00
  1.60000000E+01  1.00800000E+00  1.00800000E+00  0.00000000E+00  1.60000000E+01
  1.00800000E+00  1.00800000E+00  0.00000000E+00  1.60000000E+01  1.00800000E+00
  1.00800000E+00  0.00000000E+00  1.60000000E+01  1.00800000E+00  1.00800000E+00
  0.00000000E+00  1.60000000E+01  1.00800000E+00  1.00800000E+00  0.00000000E+00
  1.60000000E+01  1.00800000E+00  1.00800000E+00  0.00000000E+00  1.60000000E+01
  1.00800000E+00  1.00800000E+00  0.00000000E+00  1.60000000E+01  1.00800000E+00
  1.00800000E+00  0.00000000E+00  1.60000000E+01  1.00800000E+00  1.00800000E+00
  0.00000000E+00  1.60000000E+01  1.00800000E+00  1.00800000E+00  0.00000000E+00
  1.60000000E+01  1.00800000E+00  1.00800000E+00  0.00000000E+00  1.60000000E+01
  1.00800000E+00  1.00800000E+00  0.00000000E+00  1.60000000E+01  1.00800000E+00
  1.00800000E+00  0.00000000E+00  1.60000000E+01  1.00800000E+00  1.00800000E+00
  0.00000000E+00  1.60000000E+01  1.00800000E+00  1.00800000E+00  0.00000000E+00
  1.60000000E+01  1.00800000E+00  1.00800000E+00  0.00000000E+00  1.60000000E+01
  1.00800000E+00  1.00800000E+00  0.00000000E+00  1.60000000E+01  1.00800000E+00
  1.00800000E+00  0.00000000E+00  1.60000000E+01  1.00800000E+00  1.00800000E+00
  0.00000000E+00  1.60000000E+01  1.00800000E+00  1.00800000E+00  0.00000000E+00
  1.60000000E+01  1.00800000E+00  1.00800000E+00  0.00000000E+00  1.60000000E+01
  1.00800000E+00  1.00800000E+00  0.00000000E+00  1.60000000E+01  1.00800000E+00
  1.00800000E+00  0.00000000E+00  1.60000000E+01  1.00800000E+00  1.00800000E+00
  0.00000000E+00  1.60000000E+01  1.00800000E+00  1.00800000E+00  0.00000000E+00
  1.60000000E+01  1.00800000E+00  1.00800000E+00  0.00000000E+00  1.60000000E+01
  1.00800000E+00  1.00800000E+00  0.00000000E+00  1.60000000E+01  1.00800000E+00
  1.00800000E+00  0.00000000E+00  1.60000000E+01  1.00800000E+00  1.00800000E+00
  0.00000000E+00  1.60000000E+01  1.00800000E+00  1.00800000E+00  0.00000000E+00
  1.60000000E+01  1.00800000E+00  1.00800000E+00  0.00000000E+00  1.60000000E+01
  1.00800000E+00  1.00800000E+00  0.00000000E+00  1.60000000E+01  1.00800000E+00
  1.00800000E+00  0.00000000E+00  1.60000000E+01  1.00800000E+00  1.00800000E+00
  0.00000000E+00  1.60000000E+01  1.00800000E+00  1.00800000E+00  0.00000000E+00
  1.60000000E+01  1.00800000E+00  1.00800000E+00  0.00000000E+00  1.60000000E+01
  1.00800000E+00  1.00800000E+00  0.00000000E+00  1.60000000E+01  1.00800000E+00
  1.00800000E+00  0.00000000E+00  1.60000000E+01  1.00800000E+00  1.00800000E+00
  0.00000000E+00  1.60000000E+01  1.00800000E+00  1.00800000E+00  0.00000000E+00
  1.60000000E+01  1.00800000E+00  1.00800000E+00  0.00000000E+00  1.60000000E+01
  1.00800000E+00  1.00800000E+00  0.00000000E+00  1.60000000E+01  1.00800000E+00
  1.00800000E+00  0.00000000E+00  1.60000000E+01  1.00800000E+00  1.00800000E+00
  0.00000000E+00  1.60000000E+01  1.00800000E+00  1.00800000E+00  0.00000000E+00
  1.60000000E+01  1.00800000E+00  1.00800000E+00  0.00000000E+00  1.60000000E+01
  1.00800000E+00  1.00800000E+00  0.00000000E+00  1.60000000E+01  1.00800000E+00
  1.00800000E+00  0.00000000E+00  1.60000000E+01  1.00800000E+00  1.00800000E+00
  0.00000000E+00  1.60000000E+01  1.00800000E+00  1.00800000E+00  0.00000000E+00
  1.60000000E+01  1.00800000E+00  1.00800000E+00  0.00000000E+00  1.60000000E+01
  1.00800000E+00  1.00800000E+00  0.00000000E+00  1.60000000E+01  1.00800000E+00
  1.00800000E+00  0.00000000E+00  1.60000000E+01  1.00800000E+00  1.00800000E+00
  0.00000000E+00  1.60000000E+01  1.00800000E+00  1.00800000E+00  0.00000000E+00
  1.60000000E+01  1.00800000E+00  1.00800000E+00  0.00000000E+00  1.60000000E+01
  1.00800000E+00  1.00800000E+00  0.00000000E+00  1.60000000E+01  1.00800000E+00
  1.00800000E+00  0.00000000E+00  1.60000000E+01  1.00800000E+00  1.00800000E+00
  0.00000000E+00  1.60000000E+01  1.00800000E+00  1.00800000E+00  0.00000000E+00
  1.60000000E+01  1.00800000E+00  1.00800000E+00  0.00000000E+00  1.60000000E+01
  1.00800000E+00  1.00800000E+00  0.00000000E+00  1.60000000E+01  1.00800000E+00
  1.00800000E+00  0.00000000E+00  1.60000000E+01  1.00800000E+00  1.00800000E+00
  0.00000000E+00  1.60000000E+01  1.00800000E+00  1.00800000E+00  0.00000000E+00
  1.60000000E+01  1.00800000E+00  1.00800000E+00  0.00000000E+00  1.60000000E+01
  1.00800000E+00  1.00800000E+00  0.00000000E+00  1.60000000E+01  1.00800000E+00
  1.00800000E+00  0.00000000E+00  1.60000000E+01  1.00800000E+00  1.00800000E+00
  0.00000000E+00  1.60000000E+01  1.00800000E+00  1.00800000E+00  0.00000000E+00
  1.60000000E+01  1.00800000E+00  1.00800000E+00  0.00000000E+00  1.60000000E+01
  1.00800000E+00  1.00800000E+00  0.00000000E+00  1.60000000E+01  1.00800000E+00
  1.00800000E+00  0.00000000E+00  1.60000000E+01  1.00800000E+00  1.00800000E+00
  0.00000000E+00  1.60000000E+01  1.00800000E+00  1.00800000E+00  0.00000000E+00
  1.60000000E+01  1.00800000E+00  1.00800000E+00  0.00000000E+00  1.60000000E+01
  1.00800000E+00  1.00800000E+00  0.00000000E+00  1.60000000E+01  1.00800000E+00
  1.00800000E+00  0.00000000E+00  1.60000000E+01  1.00800000E+00  1.00800000E+00
  0.00000000E+00  1.60000000E+01  1.00800000E+00  1.00800000E+00  0.00000000E+00
  1.60000000E+01  1.00800000E+00  1.00800000E+00  0.00000000E+00  1.60000000E+01
  1.00800000E+00  1.00800000E+00  0.00000000E+00  1.60000000E+01  1.00800000E+00
  1.00800000E+00  0.00000000E+00  1.60000000E+01  1.00800000E+00  1.00800000E+00
  0.00000000E+00  1.60000000E+01  1.00800000E+00  1.00800000E+00  0.00000000E+00
  1.60000000E+01  1.00800000E+00  1.00800000E+00  0.00000000E+00  1.60000000E+01
  1.00800000E+00  1.00800000E+00  0.00000000E+00  1.60000000E+01  1.00800000E+00
  1.00800000E+00  0.00000000E+00  1.60000000E+01  1.00800000E+00  1.00800000E+00
  0.00000000E+00  1.60000000E+01  1.00800000E+00  1.00800000E+00  0.00000000E+00
  1.60000000E+01  1.00800000E+00  1.00800000E+00  0.00000000E+00  1.60000000E+01
  1.00800000E+00  1.00800000E+00  0.00000000E+00  1.60000000E+01  1.00800000E+00
  1.00800000E+00  0.00000000E+00  1.60000000E+01  1.00800000E+00  1.00800000E+00
  0.00000000E+00  1.60000000E+01  1.00800000E+00  1.00800000E+00  0.00000000E+00
  1.60000000E+01  1.00800000E+00  1.00800000E+00  0.00000000E+00  1.60000000E+01
  1.00800000E+00  1.00800000E+00  0.00000000E+00  1.60000000E+01  1.00800000E+00
  1.00800000E+00  0.00000000E+00  1.60000000E+01  1.00800000E+00  1.00800000E+00
  0.00000000E+00  1.60000000E+01  1.00800000E+00  1.00800000E+00  0.00000000E+00
  1.60000000E+01  1.00800000E+00  1.00800000E+00  0.00000000E+00  1.60000000E+01
  1.00800000E+00  1.00800000E+00  0.00000000E+00  1.60000000E+01  1.00800000E+00
  1.00800000E+00  0.00000000E+00  1.60000000E+01  1.00800000E+00  1.00800000E+00
  0.00000000E+00  1.60000000E+01  1.00800000E+00  1.00800000E+00  0.00000000E+00
  1.60000000E+01  1.00800000E+00  1.00800000E+00  0.00000000E+00  1.60000000E+01
  1.00800000E+00  1.00800000E+00  0.00000000E+00  1.60000000E+01  1.00800000E+00
  1.00800000E+00  0.00000000E+00  1.60000000E+01  1.00800000E+00  1.00800000E+00
  0.00000000E+00  1.60000000E+01  1.00800000E+00  1.00800000E+00  0.00000000E+00
  1.60000000E+01  1.00800000E+00  1.00800000E+00  0.00000000E+00  1.60000000E+01
  1.00800000E+00  1.00800000E+00  0.00000000E+00  1.60000000E+01  1.00800000E+00
  1.00800000E+00  0.00000000E+00  1.60000000E+01  1.00800000E+00  1.00800000E+00
  0.00000000E+00  1.60000000E+01  1.00800000E+00  1.00800000E+00  0.00000000E+00
  1.60000000E+01  1.00800000E+00  1.00800000E+00  0.00000000E+00  1.60000000E+01
  1.00800000E+00  1.00800000E+00  0.00000000E+00  1.60000000E+01  1.00800000E+00
  1.00800000E+00  0.00000000E+00  1.60000000E+01  1.00800000E+00  1.00800000E+00
  0.00000000E+00  1.60000000E+01  1.00800000E+00  1.00800000E+00  0.00000000E+00
  1.60000000E+01  1.00800000E+00  1.00800000E+00  0.00000000E+00  1.60000000E+01
  1.00800000E+00  1.00800000E+00  0.00000000E+00  1.60000000E+01  1.00800000E+00
  1.00800000E+00  0.00000000E+00  1.60000000E+01  1.00800000E+00  1.00800000E+00
  0.00000000E+00  1.60000000E+01  1.00800000E+00  1.00800000E+00  0.00000000E+00
  1.60000000E+01  1.00800000E+00  1.00800000E+00  0.00000000E+00  1.60000000E+01
  1.00800000E+00  1.00800000E+00  0.00000000E+00  1.60000000E+01  1.00800000E+00
  1.00800000E+00  0.00000000E+00  1.60000000E+01  1.00800000E+00  1.00800000E+00
  0.00000000E+00  1.60000000E+01  1.00800000E+00  1.00800000E+00  0.00000000E+00
  1.60000000E+01  1.00800000E+00  1.00800000E+00  0.00000000E+00  1.60000000E+01
  1.00800000E+00  1.00800000E+00  0.00000000E+00  1.60000000E+01  1.00800000E+00
  1.00800000E+00  0.00000000E+00  1.60000000E+01  1.00800000E+00  1.00800000E+00
  0.00000000E+00  1.60000000E+01  1.00800000E+00  1.00800000E+00  0.00000000E+00
  1.60000000E+01  1.00800000E+00  1.00800000E+00  0.00000000E+00  1.60000000E+01
  1.00800000E+00  1.00800000E+00  0.00000000E+00  1.60000000E+01  1.00800000E+00
  1.00800000E+00  0.00000000E+00  1.60000000E+01  1.00800000E+00  1.00800000E+00
  0.00000000E+00  1.60000000E+01  1.00800000E+00  1.00800000E+00  0.00000000E+00
  1.60000000E+01  1.00800000E+00  1.00800000E+00  0.00000000E+00  1.60000000E+01
  1.00800000E+00  1.00800000E+00  0.00000000E+00  1.60000000E+01  1.00800000E+00
  1.00800000E+00  0.00000000E+00  1.60000000E+01  1.00800000E+00  1.00800000E+00
  0.00000000E+00  1.60000000E+01  1.00800000E+00  1.00800000E+00  0.00000000E+00
  1.60000000E+01  1.00800000E+00  1.00800000E+00  0.00000000E+00  1.60000000E+01
  1.00800000E+00  1.00800000E+00  0.00000000E+00  1.60000000E+01  1.00800000E+00
  1.00800000E+00  0.00000000E+00  1.60000000E+01  1.00800000E+00  1.00800000E+00
  0.00000000E+00  1.60000000E+01  1.00800000E+00  1.00800000E+00  0.00000000E+00
  1.60000000E+01  1.00800000E+00  1.00800000E+00  0.00000000E+00  1.60000000E+01
  1.00800000E+00  1.00800000E+00  0.00000000E+00  1.60000000E+01  1.00800000E+00
  1.00800000E+00  0.00000000E+00  1.60000000E+01  1.00800000E+00  1.00800000E+00
  0.00000000E+00  1.60000000E+01  1.00800000E+00  1.00800000E+00  0.00000000E+00
  1.60000000E+01  1.00800000E+00  1.00800000E+00  0.00000000E+00  1.60000000E+01
  1.00800000E+00  1.00800000E+00  0.00000000E+00  1.60000000E+01  1.00800000E+00
  1.00800000E+00  0.00000000E+00  1.60000000E+01  1.00800000E+00  1.00800000E+00
  0.00000000E+00  1.60000000E+01  1.00800000E+00  1.00800000E+00  0.00000000E+00
  1.60000000E+01  1.00800000E+00  1.00800000E+00  0.00000000E+00  1.60000000E+01
  1.00800000E+00  1.00800000E+00  0.00000000E+00  1.60000000E+01  1.00800000E+00
  1.00800000E+00  0.00000000E+00  1.60000000E+01  1.00800000E+00  1.00800000E+00
  0.00000000E+00  1.60000000E+01  1.00800000E+00  1.00800000E+00  0.00000000E+00
  1.60000000E+01  1.00800000E+00  1.00800000E+00  0.00000000E+00  1.60000000E+01
  1.00800000E+00  1.00800000E+00  0.00000000E+00  1.60000000E+01  1.00800000E+00
  1.00800000E+00  0.00000000E+00  1.60000000E+01  1.00800000E+00  1.00800000E+00
  0.00000000E+00  1.60000000E+01  1.00800000E+00  1.00800000E+00  0.00000000E+00
  1.60000000E+01  1.00800000E+00  1.00800000E+00  0.00000000E+00  1.60000000E+01
  1.00800000E+00  1.00800000E+00  0.00000000E+00  1.60000000E+01  1.00800000E+00
  1.00800000E+00  0.00000000E+00  1.60000000E+01  1.00800000E+00  1.00800000E+00
  0.00000000E+00  1.60000000E+01  1.00800000E+00  1.00800000E+00  0.00000000E+00
  1.60000000E+01  1.00800000E+00  1.00800000E+00  0.00000000E+00  1.60000000E+01
  1.00800000E+00  1.00800000E+00  0.00000000E+00  1.60000000E+01  1.00800000E+00
  1.00800000E+00  0.00000000E+00  1.60000000E+01  1.00800000E+00  1.00800000E+00
  0.00000000E+00  1.60000000E+01  1.00800000E+00  1.00800000E+00  0.00000000E+00
  1.60000000E+01  1.00800000E+00  1.00800000E+00  0.00000000E+00  1.60000000E+01
  1.00800000E+00  1.00800000E+00  0.00000000E+00  1.60000000E+01  1.00800000E+00
  1.00800000E+00  0.00000000E+00  1.60000000E+01  1.00800000E+00  1.00800000E+00
  0.00000000E+00  1.60000000E+01  1.00800000E+00  1.00800000E+00  0.00000000E+00
  1.60000000E+01  1.00800000E+00  1.00800000E+00  0.00000000E+00  1.60000000E+01
  1.00800000E+00  1.00800000E+00  0.00000000E+00  1.60000000E+01  1.00800000E+00
  1.00800000E+00  0.00000000E+00  1.60000000E+01  1.00800000E+00  1.00800000E+00
  0.00000000E+00  1.60000000E+01  1.00800000E+00  1.00800000E+00  0.00000000E+00
  1.60000000E+01  1.00800000E+00  1.00800000E+00  0.00000000E+00  1.60000000E+01
  1.00800000E+00  1.00800000E+00  0.00000000E+00  1.60000000E+01  1.00800000E+00
  1.00800000E+00  0.00000000E+00  1.60000000E+01  1.00800000E+00  1.00800000E+00
  0.00000000E+00  1.60000000E+01  1.00800000E+00  1.00800000E+00  0.00000000E+00
  1.60000000E+01  1.00800000E+00  1.00800000E+00  0.00000000E+00  1.60000000E+01
  1.00800000E+00  1.00800000E+00  0.00000000E+00  1.60000000E+01  1.00800000E+00
  1.00800000E+00  0.00000000E+00  1.60000000E+01  1.00800000E+00  1.00800000E+00
  0.00000000E+00  1.60000000E+01  1.00800000E+00  1.00800000E+00  0.00000000E+00
  1.60000000E+01  1.00800000E+00  1.00800000E+00  0.00000000E+00  1.60000000E+01
  1.00800000E+00  1.00800000E+00  0.00000000E+00  1.60000000E+01  1.00800000E+00
  1.00800000E+00  0.00000000E+00  1.60000000E+01  1.00800000E+00  1.00800000E+00
  0.00000000E+00  1.60000000E+01  1.00800000E+00  1.00800000E+00  0.00000000E+00
  1.60000000E+01  1.00800000E+00  1.00800000E+00  0.00000000E+00  1.60000000E+01
  1.00800000E+00  1.00800000E+00  0.00000000E+00  1.60000000E+01  1.00800000E+00
  1.00800000E+00  0.00000000E+00  1.60000000E+01  1.00800000E+00  1.00800000E+00
  0.00000000E+00  1.60000000E+01  1.00800000E+00  1.00800000E+00  0.00000000E+00
  1.60000000E+01  1.00800000E+00  1.00800000E+00  0.00000000E+00  1.60000000E+01
  1.00800000E+00  1.00800000E+00  0.00000000E+00  1.60000000E+01  1.00800000E+00
  1.00800000E+00  0.00000000E+00  1.60000000E+01  1.00800000E+00  1.00800000E+00
  0.00000000E+00  1.60000000E+01  1.00800000E+00  1.00800000E+00  0.00000000E+00
  1.60000000E+01  1.00800000E+00  1.00800000E+00  0.00000000E+00  1.60000000E+01
  1.00800000E+00  1.00800000E+00  0.00000000E+00  1.60000000E+01  1.00800000E+00
  1.00800000E+00  0.00000000E+00  1.60000000E+01  1.00800000E+00  1.00800000E+00
  0.00000000E+00  1.60000000E+01  1.00800000E+00  1.00800000E+00  0.00000000E+00
  1.60000000E+01  1.00800000E+00  1.00800000E+00  0.00000000E+00  1.60000000E+01
  1.00800000E+00  1.00800000E+00  0.00000000E+00  1.60000000E+01  1.00800000E+00
  1.00800000E+00  0.00000000E+00  1.60000000E+01  1.00800000E+00  1.00800000E+00
  0.00000000E+00  1.60000000E+01  1.00800000E+00  1.00800000E+00  0.00000000E+00
  1.60000000E+01  1.00800000E+00  1.00800000E+00  0.00000000E+00  1.60000000E+01
  1.00800000E+00  1.00800000E+00  0.00000000E+00  1.60000000E+01  1.00800000E+00
  1.00800000E+00  0.00000000E+00  1.60000000E+01  1.00800000E+00  1.00800000E+00
  0.00000000E+00  1.60000000E+01  1.00800000E+00  1.00800000E+00  0.00000000E+00
  1.60000000E+01  1.00800000E+00  1.00800000E+00  0.00000000E+00  1.60000000E+01
  1.00800000E+00  1.00800000E+00  0.00000000E+00  1.60000000E+01  1.00800000E+00
  1.00800000E+00  0.00000000E+00  1.60000000E+01  1.00800000E+00  1.00800000E+00
  0.00000000E+00  1.60000000E+01  1.00800000E+00  1.00800000E+00  0.00000000E+00
  1.60000000E+01  1.00800000E+00  1.00800000E+00  0.00000000E+00  1.60000000E+01
  1.00800000E+00  1.00800000E+00  0.00000000E+00  1.60000000E+01  1.00800000E+00
  1.00800000E+00  0.00000000E+00  1.60000000E+01  1.00800000E+00  1.00800000E+00
  0.00000000E+00  1.60000000E+01  1.00800000E+00  1.00800000E+00  0.00000000E+00
  1.60000000E+01  1.00800000E+00  1.00800000E+00  0.00000000E+00  1.60000000E+01
  1.00800000E+00  1.00800000E+00  0.00000000E+00  1.60000000E+01  1.00800000E+00
  1.00800000E+00  0.00000000E+00  1.60000000E+01  1.00800000E+00  1.00800000E+00
  0.00000000E+00  1.60000000E+01  1.00800000E+00  1.00800000E+00  0.00000000E+00
  1.60000000E+01  1.00800000E+00  1.00800000E+00  0.00000000E+00  1.60000000E+01
  1.00800000E+00  1.00800000E+00  0.00000000E+00  1.60000000E+01  1.00800000E+00
  1.00800000E+00  0.00000000E+00  1.60000000E+01  1.00800000E+00  1.00800000E+00
  0.00000000E+00  1.60000000E+01  1.00800000E+00  1.00800000E+00  0.00000000E+00
  1.60000000E+01  1.00800000E+00  1.00800000E+00  0.00000000E+00  1.60000000E+01
  1.00800000E+00  1.00800000E+00  0.00000000E+00  1.60000000E+01  1.00800000E+00
  1.00800000E+00  0.00000000E+00  1.60000000E+01  1.00800000E+00  1.00800000E+00
  0.00000000E+00  1.60000000E+01  1.00800000E+00  1.00800000E+00  0.00000000E+00
  1.60000000E+01  1.00800000E+00  1.00800000E+00  0.00000000E+00  1.60000000E+01
  1.00800000E+00  1.00800000E+00  0.00000000E+00  1.60000000E+01  1.00800000E+00
  1.00800000E+00  0.00000000E+00  1.60000000E+01  1.00800000E+00  1.00800000E+00
  0.00000000E+00  1.60000000E+01  1.00800000E+00  1.00800000E+00  0.00000000E+00
  1.60000000E+01  1.00800000E+00  1.00800000E+00  0.00000000E+00  1.60000000E+01
  1.00800000E+00  1.00800000E+00  0.00000000E+00  1.60000000E+01  1.00800000E+00
  1.00800000E+00  0.00000000E+00  1.60000000E+01  1.00800000E+00  1.00800000E+00
  0.00000000E+00  1.60000000E+01  1.00800000E+00  1.00800000E+00  0.00000000E+00
  1.60000000E+01  1.00800000E+00  1.00800000E+00  0.00000000E+00  1.60000000E+01
  1.00800000E+00  1.00800000E+00  0.00000000E+00  1.60000000E+01  1.00800000E+00
  1.00800000E+00  0.00000000E+00  1.60000000E+01  1.00800000E+00  1.00800000E+00
  0.00000000E+00  1.60000000E+01  1.00800000E+00  1.00800000E+00  0.00000000E+00
  1.60000000E+01  1.00800000E+00  1.00800000E+00  0.00000000E+00  1.60000000E+01
  1.00800000E+00  1.00800000E+00  0.00000000E+00  1.60000000E+01  1.00800000E+00
  1.00800000E+00  0.00000000E+00  1.60000000E+01  1.00800000E+00  1.00800000E+00
  0.00000000E+00  1.60000000E+01  1.00800000E+00  1.00800000E+00  0.00000000E+00
  1.60000000E+01  1.00800000E+00  1.00800000E+00  0.00000000E+00  1.60000000E+01
  1.00800000E+00  1.00800000E+00  0.00000000E+00  1.60000000E+01  1.00800000E+00
  1.00800000E+00  0.00000000E+00  1.60000000E+01  1.00800000E+00  1.00800000E+00
  0.00000000E+00  1.60000000E+01  1.00800000E+00  1.00800000E+00  0.00000000E+00
  1.60000000E+01  1.00800000E+00  1.00800000E+00  0.00000000E+00  1.60000000E+01
  1.00800000E+00  1.00800000E+00  0.00000000E+00  1.60000000E+01  1.00800000E+00
  1.00800000E+00  0.00000000E+00  1.60000000E+01  1.00800000E+00  1.00800000E+00
  0.00000000E+00  1.60000000E+01  1.00800000E+00  1.00800000E+00  0.00000000E+00
  1.60000000E+01  1.00800000E+00  1.00800000E+00  0.00000000E+00  1.60000000E+01
  1.00800000E+00  1.00800000E+00  0.00000000E+00  1.60000000E+01  1.00800000E+00
  1.00800000E+00  0.00000000E+00  1.60000000E+01  1.00800000E+00  1.00800000E+00
  0.00000000E+00  1.60000000E+01  1.00800000E+00  1.00800000E+00  0.00000000E+00
  1.60000000E+01  1.00800000E+00  1.00800000E+00  0.00000000E+00  1.60000000E+01
  1.00800000E+00  1.00800000E+00  0.00000000E+00  1.60000000E+01  1.00800000E+00
  1.00800000E+00  0.00000000E+00  1.60000000E+01  1.00800000E+00  1.00800000E+00
  0.00000000E+00  1.60000000E+01  1.00800000E+00  1.00800000E+00  0.00000000E+00
  1.60000000E+01  1.00800000E+00  1.00800000E+00  0.00000000E+00  1.60000000E+01
  1.00800000E+00  1.00800000E+00  0.00000000E+00  1.60000000E+01  1.00800000E+00
  1.00800000E+00  0.00000000E+00  1.60000000E+01  1.00800000E+00  1.00800000E+00
  0.00000000E+00  1.60000000E+01  1.00800000E+00  1.00800000E+00  0.00000000E+00
  1.60000000E+01  1.00800000E+00  1.00800000E+00  0.00000000E+00  1.60000000E+01
  1.00800000E+00  1.00800000E+00  0.00000000E+00  1.60000000E+01  1.00800000E+00
  1.00800000E+00  0.00000000E+00  1.60000000E+01  1.00800000E+00  1.00800000E+00
  0.00000000E+00  1.60000000E+01  1.00800000E+00  1.00800000E+00  0.00000000E+00
  1.60000000E+01  1.00800000E+00  1.00800000E+00  0.00000000E+00  1.60000000E+01
  1.00800000E+00  1.00800000E+00  0.00000000E+00  1.60000000E+01  1.00800000E+00
  1.00800000E+00  0.00000000E+00  1.60000000E+01  1.00800000E+00  1.00800000E+00
  0.00000000E+00  1.60000000E+01  1.00800000E+00  1.00800000E+00  0.00000000E+00
  1.60000000E+01  1.00800000E+00  1.00800000E+00  0.00000000E+00  1.60000000E+01
  1.00800000E+00  1.00800000E+00  0.00000000E+00  1.60000000E+01  1.00800000E+00
  1.00800000E+00  0.00000000E+00  1.60000000E+01  1.00800000E+00  1.00800000E+00
  0.00000000E+00  1.60000000E+01  1.00800000E+00  1.00800000E+00  0.00000000E+00
  1.60000000E+01  1.00800000E+00  1.00800000E+00  0.00000000E+00  1.60000000E+01
  1.00800000E+00  1.00800000E+00  0.00000000E+00  1.60000000E+01  1.00800000E+00
  1.00800000E+00  0.00000000E+00  1.60000000E+01  1.00800000E+00  1.00800000E+00
  0.00000000E+00  1.60000000E+01  1.00800000E+00  1.00800000E+00  0.00000000E+00
  1.60000000E+01  1.00800000E+00  1.00800000E+00  0.00000000E+00  1.60000000E+01
  1.00800000E+00  1.00800000E+00  0.00000000E+00  1.60000000E+01  1.00800000E+00
  1.00800000E+00  0.00000000E+00  1.60000000E+01  1.00800000E+00  1.00800000E+00
  0.00000000E+00  1.60000000E+01  1.00800000E+00  1.00800000E+00  0.00000000E+00
  1.60000000E+01  1.00800000E+00  1.00800000E+00  0.00000000E+00  1.60000000E+01
  1.00800000E+00  1.00800000E+00  0.00000000E+00  1.60000000E+01  1.00800000E+00
  1.00800000E+00  0.00000000E+00  1.60000000E+01  1.00800000E+00  1.00800000E+00
  0.00000000E+00  1.60000000E+01  1.00800000E+00  1.00800000E+00  0.00000000E+00
  1.60000000E+01  1.00800000E+00  1.00800000E+00  0.00000000E+00  1.60000000E+01
  1.00800000E+00  1.00800000E+00  0.00000000E+00  1.60000000E+01  1.00800000E+00
  1.00800000E+00  0.00000000E+00  1.60000000E+01  1.00800000E+00  1.00800000E+00
  0.00000000E+00  1.60000000E+01  1.00800000E+00  1.00800000E+00  0.00000000E+00
  1.60000000E+01  1.00800000E+00  1.00800000E+00  0.00000000E+00  1.60000000E+01
  1.00800000E+00  1.00800000E+00  0.00000000E+00  1.60000000E+01  1.00800000E+00
  1.00800000E+00  0.00000000E+00  1.60000000E+01  1.00800000E+00  1.00800000E+00
  0.00000000E+00  1.60000000E+01  1.00800000E+00  1.00800000E+00  0.00000000E+00
  1.60000000E+01  1.00800000E+00  1.00800000E+00  0.00000000E+00  1.60000000E+01
  1.00800000E+00  1.00800000E+00  0.00000000E+00  1.60000000E+01  1.00800000E+00
  1.00800000E+00  0.00000000E+00  1.60000000E+01  1.00800000E+00  1.00800000E+00
  0.00000000E+00  1.60000000E+01  1.00800000E+00  1.00800000E+00  0.00000000E+00
  1.60000000E+01  1.00800000E+00  1.00800000E+00  0.00000000E+00  1.60000000E+01
  1.00800000E+00  1.00800000E+00  0.00000000E+00  1.60000000E+01  1.00800000E+00
  1.00800000E+00  0.00000000E+00  1.60000000E+01  1.00800000E+00  1.00800000E+00
  0.00000000E+00  1.60000000E+01  1.00800000E+00  1.00800000E+00  0.00000000E+00
  1.60000000E+01  1.00800000E+00  1.00800000E+00  0.00000000E+00  1.60000000E+01
  1.00800000E+00  1.00800000E+00  0.00000000E+00  1.60000000E+01  1.00800000E+00
  1.00800000E+00  0.00000000E+00  1.60000000E+01  1.00800000E+00  1.00800000E+00
  0.00000000E+00  1.60000000E+01  1.00800000E+00  1.00800000E+00  0.00000000E+00
  1.60000000E+01  1.00800000E+00  1.00800000E+00  0.00000000E+00  1.60000000E+01
  1.00800000E+00  1.00800000E+00  0.00000000E+00  1.60000000E+01  1.00800000E+00
  1.00800000E+00  0.00000000E+00  1.60000000E+01  1.00800000E+00  1.00800000E+00
  0.00000000E+00  1.60000000E+01  1.00800000E+00  1.00800000E+00  0.00000000E+00
  1.60000000E+01  1.00800000E+00  1.00800000E+00  0.00000000E+00  1.60000000E+01
  1.00800000E+00  1.00800000E+00  0.00000000E+00  1.60000000E+01  1.00800000E+00
  1.00800000E+00  0.00000000E+00  1.60000000E+01  1.00800000E+00  1.00800000E+00
  0.00000000E+00  1.60000000E+01  1.00800000E+00  1.00800000E+00  0.00000000E+00
  1.60000000E+01  1.00800000E+00  1.00800000E+00  0.00000000E+00  1.60000000E+01
  1.00800000E+00  1.00800000E+00  0.00000000E+00  1.60000000E+01  1.00800000E+00
  1.00800000E+00  0.00000000E+00  1.60000000E+01  1.00800000E+00  1.00800000E+00
  0.00000000E+00  1.60000000E+01  1.00800000E+00  1.00800000E+00  0.00000000E+00
  1.60000000E+01  1.00800000E+00  1.00800000E+00  0.00000000E+00  1.60000000E+01
  1.00800000E+00  1.00800000E+00  0.00000000E+00  1.60000000E+01  1.00800000E+00
  1.00800000E+00  0.00000000E+00  1.60000000E+01  1.00800000E+00  1.00800000E+00
  0.00000000E+00  1.60000000E+01  1.00800000E+00  1.00800000E+00  0.00000000E+00
  1.60000000E+01  1.00800000E+00  1.00800000E+00  0.00000000E+00  1.60000000E+01
  1.00800000E+00  1.00800000E+00  0.00000000E+00  1.60000000E+01  1.00800000E+00
  1.00800000E+00  0.00000000E+00  1.60000000E+01  1.00800000E+00  1.00800000E+00
  0.00000000E+00  1.60000000E+01  1.00800000E+00  1.00800000E+00  0.00000000E+00
  1.60000000E+01  1.00800000E+00  1.00800000E+00  0.00000000E+00  1.60000000E+01
  1.00800000E+00  1.00800000E+00  0.00000000E+00  1.60000000E+01  1.00800000E+00
  1.00800000E+00  0.00000000E+00  1.60000000E+01  1.00800000E+00  1.00800000E+00
  0.00000000E+00  1.60000000E+01  1.00800000E+00  1.00800000E+00  0.00000000E+00
  1.60000000E+01  1.00800000E+00  1.00800000E+00  0.00000000E+00  1.60000000E+01
  1.00800000E+00  1.00800000E+00  0.00000000E+00  1.60000000E+01  1.00800000E+00
  1.00800000E+00  0.00000000E+00  1.60000000E+01  1.00800000E+00  1.00800000E+00
  0.00000000E+00  1.60000000E+01  1.00800000E+00  1.00800000E+00  0.00000000E+00
  1.60000000E+01  1.00800000E+00  1.00800000E+00  0.00000000E+00  1.60000000E+01
  1.00800000E+00  1.00800000E+00  0.00000000E+00  1.60000000E+01  1.00800000E+00
  1.00800000E+00  0.00000000E+00  1.60000000E+01  1.00800000E+00  1.00800000E+00
  0.00000000E+00  1.60000000E+01  1.00800000E+00  1.00800000E+00  0.00000000E+00
  1.60000000E+01  1.00800000E+00  1.00800000E+00  0.00000000E+00  1.60000000E+01
  1.00800000E+00  1.00800000E+00  0.00000000E+00  1.60000000E+01  1.00800000E+00
  1.00800000E+00  0.00000000E+00  1.60000000E+01  1.00800000E+00  1.00800000E+00
  0.00000000E+00  1.60000000E+01  1.00800000E+00  1.00800000E+00  0.00000000E+00
  1.60000000E+01  1.00800000E+00  1.00800000E+00  0.00000000E+00  1.60000000E+01
  1.00800000E+00  1.00800000E+00  0.00000000E+00  1.60000000E+01  1.00800000E+00
  1.00800000E+00  0.00000000E+00  1.60000000E+01  1.00800000E+00  1.00800000E+00
  0.00000000E+00  1.60000000E+01  1.00800000E+00  1.00800000E+00  0.00000000E+00
  1.60000000E+01  1.00800000E+00  1.00800000E+00  0.00000000E+00  1.60000000E+01
  1.00800000E+00  1.00800000E+00  0.00000000E+00  1.60000000E+01  1.00800000E+00
  1.00800000E+00  0.00000000E+00  1.60000000E+01  1.00800000E+00  1.00800000E+00
  0.00000000E+00  1.60000000E+01  1.00800000E+00  1.00800000E+00  0.00000000E+00
  1.60000000E+01  1.00800000E+00  1.00800000E+00  0.00000000E+00  1.60000000E+01
  1.00800000E+00  1.00800000E+00  0.00000000E+00  1.60000000E+01  1.00800000E+00
  1.00800000E+00  0.00000000E+00  1.60000000E+01  1.00800000E+00  1.00800000E+00
  0.00000000E+00  1.60000000E+01  1.00800000E+00  1.00800000E+00  0.00000000E+00
  1.60000000E+01  1.00800000E+00  1.00800000E+00  0.00000000E+00  1.60000000E+01
  1.00800000E+00  1.00800000E+00  0.00000000E+00  1.60000000E+01  1.00800000E+00
  1.00800000E+00  0.00000000E+00  1.60000000E+01  1.00800000E+00  1.00800000E+00
  0.00000000E+00  1.60000000E+01  1.00800000E+00  1.00800000E+00  0.00000000E+00
  1.60000000E+01  1.00800000E+00  1.00800000E+00  0.00000000E+00  1.60000000E+01
  1.00800000E+00  1.00800000E+00  0.00000000E+00  1.60000000E+01  1.00800000E+00
  1.00800000E+00  0.00000000E+00  1.60000000E+01  1.00800000E+00  1.00800000E+00
  0.00000000E+00  1.60000000E+01  1.00800000E+00  1.00800000E+00  0.00000000E+00
  1.60000000E+01  1.00800000E+00  1.00800000E+00  0.00000000E+00  1.60000000E+01
  1.00800000E+00  1.00800000E+00  0.00000000E+00  1.60000000E+01  1.00800000E+00
  1.00800000E+00  0.00000000E+00  1.60000000E+01  1.00800000E+00  1.00800000E+00
  0.00000000E+00  1.60000000E+01  1.00800000E+00  1.00800000E+00  0.00000000E+00
  1.60000000E+01  1.00800000E+00  1.00800000E+00  0.00000000E+00  1.60000000E+01
  1.00800000E+00  1.00800000E+00  0.00000000E+00  1.60000000E+01  1.00800000E+00
  1.00800000E+00  0.00000000E+00  1.60000000E+01  1.00800000E+00  1.00800000E+00
  0.00000000E+00  1.60000000E+01  1.00800000E+00  1.00800000E+00  0.00000000E+00
  1.60000000E+01  1.00800000E+00  1.00800000E+00  0.00000000E+00  1.60000000E+01
  1.00800000E+00  1.00800000E+00  0.00000000E+00  1.60000000E+01  1.00800000E+00
  1.00800000E+00  0.00000000E+00  1.60000000E+01  1.00800000E+00  1.00800000E+00
  0.00000000E+00  1.60000000E+01  1.00800000E+00  1.00800000E+00  0.00000000E+00
  1.60000000E+01  1.00800000E+00  1.00800000E+00  0.00000000E+00  1.60000000E+01
  1.00800000E+00  1.00800000E+00  0.00000000E+00  1.60000000E+01  1.00800000E+00
  1.00800000E+00  0.00000000E+00  1.60000000E+01  1.00800000E+00  1.00800000E+00
  0.00000000E+00  1.60000000E+01  1.00800000E+00  1.00800000E+00  0.00000000E+00
  1.60000000E+01  1.00800000E+00  1.00800000E+00  0.00000000E+00  1.60000000E+01
  1.00800000E+00  1.00800000E+00  0.00000000E+00  1.60000000E+01  1.00800000E+00
  1.00800000E+00  0.00000000E+00  1.60000000E+01  1.00800000E+00  1.00800000E+00
  0.00000000E+00  1.60000000E+01  1.00800000E+00  1.00800000E+00  0.00000000E+00
  1.60000000E+01  1.00800000E+00  1.00800000E+00  0.00000000E+00  1.60000000E+01
  1.00800000E+00  1.00800000E+00  0.00000000E+00  1.60000000E+01  1.00800000E+00
  1.00800000E+00  0.00000000E+00  1.60000000E+01  1.00800000E+00  1.00800000E+00
  0.00000000E+00  1.60000000E+01  1.00800000E+00  1.00800000E+00  0.00000000E+00
  1.60000000E+01  1.00800000E+00  1.00800000E+00  0.00000000E+00  1.60000000E+01
  1.00800000E+00  1.00800000E+00  0.00000000E+00  1.60000000E+01  1.00800000E+00
  1.00800000E+00  0.00000000E+00  1.60000000E+01  1.00800000E+00  1.00800000E+00
  0.00000000E+00  1.60000000E+01  1.00800000E+00  1.00800000E+00  0.00000000E+00
  1.60000000E+01  1.00800000E+00  1.00800000E+00  0.00000000E+00  1.60000000E+01
  1.00800000E+00  1.00800000E+00  0.00000000E+00  1.60000000E+01  1.00800000E+00
  1.00800000E+00  0.00000000E+00  1.60000000E+01  1.00800000E+00  1.00800000E+00
  0.00000000E+00  1.60000000E+01  1.00800000E+00  1.00800000E+00  0.00000000E+00
  1.60000000E+01  1.00800000E+00  1.00800000E+00  0.00000000E+00  1.60000000E+01
  1.00800000E+00  1.00800000E+00  0.00000000E+00  1.60000000E+01  1.00800000E+00
  1.00800000E+00  0.00000000E+00  1.60000000E+01  1.00800000E+00  1.00800000E+00
  0.00000000E+00  1.60000000E+01  1.00800000E+00  1.00800000E+00  0.00000000E+00
  1.60000000E+01  1.00800000E+00  1.00800000E+00  0.00000000E+00  1.60000000E+01
  1.00800000E+00  1.00800000E+00  0.00000000E+00  1.60000000E+01  1.00800000E+00
  1.00800000E+00  0.00000000E+00  1.60000000E+01  1.00800000E+00  1.00800000E+00
  0.00000000E+00  1.60000000E+01  1.00800000E+00  1.00800000E+00  0.00000000E+00
  1.60000000E+01  1.00800000E+00  1.00800000E+00  0.00000000E+00  1.60000000E+01
  1.00800000E+00  1.00800000E+00  0.00000000E+00  1.60000000E+01  1.00800000E+00
  1.00800000E+00  0.00000000E+00  1.60000000E+01  1.00800000E+00  1.00800000E+00
  0.00000000E+00  1.60000000E+01  1.00800000E+00  1.00800000E+00  0.00000000E+00
  1.60000000E+01  1.00800000E+00  1.00800000E+00  0.00000000E+00  1.60000000E+01
  1.00800000E+00  1.00800000E+00  0.00000000E+00  1.60000000E+01  1.00800000E+00
  1.00800000E+00  0.00000000E+00  1.60000000E+01  1.00800000E+00  1.00800000E+00
  0.00000000E+00  1.60000000E+01  1.00800000E+00  1.00800000E+00  0.00000000E+00
  1.60000000E+01  1.00800000E+00  1.00800000E+00  0.00000000E+00  1.60000000E+01
  1.00800000E+00  1.00800000E+00  0.00000000E+00  1.60000000E+01  1.00800000E+00
  1.00800000E+00  0.00000000E+00  1.60000000E+01  1.00800000E+00  1.00800000E+00
  0.00000000E+00  1.60000000E+01  1.00800000E+00  1.00800000E+00  0.00000000E+00
  1.60000000E+01  1.00800000E+00  1.00800000E+00  0.00000000E+00  1.60000000E+01
  1.00800000E+00  1.00800000E+00  0.00000000E+00  1.60000000E+01  1.00800000E+00
  1.00800000E+00  0.00000000E+00  1.60000000E+01  1.00800000E+00  1.00800000E+00
  0.00000000E+00  1.60000000E+01  1.00800000E+00  1.00800000E+00  0.00000000E+00
  1.60000000E+01  1.00800000E+00  1.00800000E+00  0.00000000E+00  1.60000000E+01
  1.00800000E+00  1.00800000E+00  0.00000000E+00  1.60000000E+01  1.00800000E+00
  1.00800000E+00  0.00000000E+00  1.60000000E+01  1.00800000E+00  1.00800000E+00
  0.00000000E+00  1.60000000E+01  1.00800000E+00  1.00800000E+00  0.00000000E+00
  1.60000000E+01  1.00800000E+00  1.00800000E+00  0.00000000E+00  1.60000000E+01
  1.00800000E+00  1.00800000E+00  0.00000000E+00  1.60000000E+01  1.00800000E+00
  1.00800000E+00  0.00000000E+00  1.60000000E+01  1.00800000E+00  1.00800000E+00
  0.00000000E+00  1.60000000E+01  1.00800000E+00  1.00800000E+00  0.00000000E+00
  1.60000000E+01  1.00800000E+00  1.00800000E+00  0.00000000E+00  1.60000000E+01
  1.00800000E+00  1.00800000E+00  0.00000000E+00  1.60000000E+01  1.00800000E+00
  1.00800000E+00  0.00000000E+00  1.60000000E+01  1.00800000E+00  1.00800000E+00
  0.00000000E+00  1.60000000E+01  1.00800000E+00  1.00800000E+00  0.00000000E+00
  1.60000000E+01  1.00800000E+00  1.00800000E+00  0.00000000E+00  1.60000000E+01
  1.00800000E+00  1.00800000E+00  0.00000000E+00  1.60000000E+01  1.00800000E+00
  1.00800000E+00  0.00000000E+00  1.60000000E+01  1.00800000E+00  1.00800000E+00
  0.00000000E+00  1.60000000E+01  1.00800000E+00  1.00800000E+00  0.00000000E+00
  1.60000000E+01  1.00800000E+00  1.00800000E+00  0.00000000E+00  1.60000000E+01
  1.00800000E+00  1.00800000E+00  0.00000000E+00  1.60000000E+01  1.00800000E+00
  1.00800000E+00  0.00000000E+00  1.60000000E+01  1.00800000E+00  1.00800000E+00
  0.00000000E+00  1.60000000E+01  1.00800000E+00  1.00800000E+00  0.00000000E+00
  1.60000000E+01  1.00800000E+00  1.00800000E+00  0.00000000E+00  1.60000000E+01
  1.00800000E+00  1.00800000E+00  0.00000000E+00  1.60000000E+01  1.00800000E+00
  1.00800000E+00  0.00000000E+00  1.60000000E+01  1.00800000E+00  1.00800000E+00
  0.00000000E+00  1.60000000E+01  1.00800000E+00  1.00800000E+00  0.00000000E+00
  1.60000000E+01  1.00800000E+00  1.00800000E+00  0.00000000E+00  1.60000000E+01
  1.00800000E+00  1.00800000E+00  0.00000000E+00  1.60000000E+01  1.00800000E+00
  1.00800000E+00  0.00000000E+00  1.60000000E+01  1.00800000E+00  1.00800000E+00
  0.00000000E+00  1.60000000E+01  1.00800000E+00  1.00800000E+00  0.00000000E+00
  1.60000000E+01  1.00800000E+00  1.00800000E+00  0.00000000E+00  1.60000000E+01
  1.00800000E+00  1.00800000E+00  0.00000000E+00  1.60000000E+01  1.00800000E+00
  1.00800000E+00  0.00000000E+00  1.60000000E+01  1.00800000E+00  1.00800000E+00
  0.00000000E+00  1.60000000E+01  1.00800000E+00  1.00800000E+00  0.00000000E+00
  1.60000000E+01  1.00800000E+00  1.00800000E+00  0.00000000E+00  1.60000000E+01
  1.00800000E+00  1.00800000E+00  0.00000000E+00  1.60000000E+01  1.00800000E+00
  1.00800000E+00  0.00000000E+00  1.60000000E+01  1.00800000E+00  1.00800000E+00
  0.00000000E+00  1.60000000E+01  1.00800000E+00  1.00800000E+00  0.00000000E+00
  1.60000000E+01  1.00800000E+00  1.00800000E+00  0.00000000E+00  1.60000000E+01
  1.00800000E+00  1.00800000E+00  0.00000000E+00  1.60000000E+01  1.00800000E+00
  1.00800000E+00  0.00000000E+00  1.60000000E+01  1.00800000E+00  1.00800000E+00
  0.00000000E+00  1.60000000E+01  1.00800000E+00  1.00800000E+00  0.00000000E+00
  1.60000000E+01  1.00800000E+00  1.00800000E+00  0.00000000E+00  1.60000000E+01
  1.00800000E+00  1.00800000E+00  0.00000000E+00  1.60000000E+01  1.00800000E+00
  1.00800000E+00  0.00000000E+00  1.60000000E+01  1.00800000E+00  1.00800000E+00
  0.00000000E+00  1.60000000E+01  1.00800000E+00  1.00800000E+00  0.00000000E+00
  1.60000000E+01  1.00800000E+00  1.00800000E+00  0.00000000E+00  1.60000000E+01
  1.00800000E+00  1.00800000E+00  0.00000000E+00  1.60000000E+01  1.00800000E+00
  1.00800000E+00  0.00000000E+00  1.60000000E+01  1.00800000E+00  1.00800000E+00
  0.00000000E+00  1.60000000E+01  1.00800000E+00  1.00800000E+00  0.00000000E+00
  1.60000000E+01  1.00800000E+00  1.00800000E+00  0.00000000E+00  1.60000000E+01
  1.00800000E+00  1.00800000E+00  0.00000000E+00  1.60000000E+01  1.00800000E+00
  1.00800000E+00  0.00000000E+00  1.60000000E+01  1.00800000E+00  1.00800000E+00
  0.00000000E+00  1.60000000E+01  1.00800000E+00  1.00800000E+00  0.00000000E+00
  1.60000000E+01  1.00800000E+00  1.00800000E+00  0.00000000E+00  1.60000000E+01
  1.00800000E+00  1.00800000E+00  0.00000000E+00  1.60000000E+01  1.00800000E+00
  1.00800000E+00  0.00000000E+00  1.60000000E+01  1.00800000E+00  1.00800000E+00
  0.00000000E+00  1.60000000E+01  1.00800000E+00  1.00800000E+00  0.00000000E+00
  1.60000000E+01  1.00800000E+00  1.00800000E+00  0.00000000E+00  1.60000000E+01
  1.00800000E+00  1.00800000E+00  0.00000000E+00  1.60000000E+01  1.00800000E+00
  1.00800000E+00  0.00000000E+00  1.60000000E+01  1.00800000E+00  1.00800000E+00
  0.00000000E+00  1.60000000E+01  1.00800000E+00  1.00800000E+00  0.00000000E+00
  1.60000000E+01  1.00800000E+00  1.00800000E+00  0.00000000E+00  1.60000000E+01
  1.00800000E+00  1.00800000E+00  0.00000000E+00  1.60000000E+01  1.00800000E+00
  1.00800000E+00  0.00000000E+00  1.60000000E+01  1.00800000E+00  1.00800000E+00
  0.00000000E+00  1.60000000E+01  1.00800000E+00  1.00800000E+00  0.00000000E+00
  1.60000000E+01  1.00800000E+00  1.00800000E+00  0.00000000E+00  1.60000000E+01
  1.00800000E+00  1.00800000E+00  0.00000000E+00  1.60000000E+01  1.00800000E+00
  1.00800000E+00  0.00000000E+00  1.60000000E+01  1.00800000E+00  1.00800000E+00
  0.00000000E+00  1.60000000E+01  1.00800000E+00  1.00800000E+00  0.00000000E+00
  1.60000000E+01  1.00800000E+00  1.00800000E+00  0.00000000E+00  1.60000000E+01
  1.00800000E+00  1.00800000E+00  0.00000000E+00  1.60000000E+01  1.00800000E+00
  1.00800000E+00  0.00000000E+00  1.60000000E+01  1.00800000E+00  1.00800000E+00
  0.00000000E+00  1.60000000E+01  1.00800000E+00  1.00800000E+00  0.00000000E+00
  1.60000000E+01  1.00800000E+00  1.00800000E+00  0.00000000E+00  1.60000000E+01
  1.00800000E+00  1.00800000E+00  0.00000000E+00  1.60000000E+01  1.00800000E+00
  1.00800000E+00  0.00000000E+00  1.60000000E+01  1.00800000E+00  1.00800000E+00
  0.00000000E+00  1.60000000E+01  1.00800000E+00  1.00800000E+00  0.00000000E+00
  1.60000000E+01  1.00800000E+00  1.00800000E+00  0.00000000E+00  1.60000000E+01
  1.00800000E+00  1.00800000E+00  0.00000000E+00  1.60000000E+01  1.00800000E+00
  1.00800000E+00  0.00000000E+00  1.60000000E+01  1.00800000E+00  1.00800000E+00
  0.00000000E+00  1.60000000E+01  1.00800000E+00  1.00800000E+00  0.00000000E+00
  1.60000000E+01  1.00800000E+00  1.00800000E+00  0.00000000E+00  1.60000000E+01
  1.00800000E+00  1.00800000E+00  0.00000000E+00  1.60000000E+01  1.00800000E+00
  1.00800000E+00  0.00000000E+00  1.60000000E+01  1.00800000E+00  1.00800000E+00
  0.00000000E+00  1.60000000E+01  1.00800000E+00  1.00800000E+00  0.00000000E+00
  1.60000000E+01  1.00800000E+00  1.00800000E+00  0.00000000E+00  1.60000000E+01
  1.00800000E+00  1.00800000E+00  0.00000000E+00  1.60000000E+01  1.00800000E+00
  1.00800000E+00  0.00000000E+00  1.60000000E+01  1.00800000E+00  1.00800000E+00
  0.00000000E+00  1.60000000E+01  1.00800000E+00  1.00800000E+00  0.00000000E+00
  1.60000000E+01  1.00800000E+00  1.00800000E+00  0.00000000E+00  1.60000000E+01
  1.00800000E+00  1.00800000E+00  0.00000000E+00  1.60000000E+01  1.00800000E+00
  1.00800000E+00  0.00000000E+00  1.60000000E+01  1.00800000E+00  1.00800000E+00
  0.00000000E+00  1.60000000E+01  1.00800000E+00  1.00800000E+00  0.00000000E+00
  1.60000000E+01  1.00800000E+00  1.00800000E+00  0.00000000E+00  1.60000000E+01
  1.00800000E+00  1.00800000E+00  0.00000000E+00  1.60000000E+01  1.00800000E+00
  1.00800000E+00  0.00000000E+00  1.60000000E+01  1.00800000E+00  1.00800000E+00
  0.00000000E+00  1.60000000E+01  1.00800000E+00  1.00800000E+00  0.00000000E+00
  1.60000000E+01  1.00800000E+00  1.00800000E+00  0.00000000E+00  1.60000000E+01
  1.00800000E+00  1.00800000E+00  0.00000000E+00  1.60000000E+01  1.00800000E+00
  1.00800000E+00  0.00000000E+00  1.60000000E+01  1.00800000E+00  1.00800000E+00
  0.00000000E+00  1.60000000E+01  1.00800000E+00  1.00800000E+00  0.00000000E+00
  1.60000000E+01  1.00800000E+00  1.00800000E+00  0.00000000E+00  1.60000000E+01
  1.00800000E+00  1.00800000E+00  0.00000000E+00  1.60000000E+01  1.00800000E+00
  1.00800000E+00  0.00000000E+00  1.60000000E+01  1.00800000E+00  1.00800000E+00
  0.00000000E+00  1.60000000E+01  1.00800000E+00  1.00800000E+00  0.00000000E+00
  1.60000000E+01  1.00800000E+00  1.00800000E+00  0.00000000E+00  1.60000000E+01
  1.00800000E+00  1.00800000E+00  0.00000000E+00  1.60000000E+01  1.00800000E+00
  1.00800000E+00  0.00000000E+00  1.60000000E+01  1.00800000E+00  1.00800000E+00
  0.00000000E+00  1.60000000E+01  1.00800000E+00  1.00800000E+00  0.00000000E+00
  1.60000000E+01  1.00800000E+00  1.00800000E+00  0.00000000E+00  1.60000000E+01
  1.00800000E+00  1.00800000E+00  0.00000000E+00  1.60000000E+01  1.00800000E+00
  1.00800000E+00  0.00000000E+00  1.60000000E+01  1.00800000E+00  1.00800000E+00
  0.00000000E+00  1.60000000E+01  1.00800000E+00  1.00800000E+00  0.00000000E+00
  1.60000000E+01  1.00800000E+00  1.00800000E+00  0.00000000E+00  1.60000000E+01
  1.00800000E+00  1.00800000E+00  0.00000000E+00  1.60000000E+01  1.00800000E+00
  1.00800000E+00  0.00000000E+00  1.60000000E+01  1.00800000E+00  1.00800000E+00
  0.00000000E+00  1.60000000E+01  1.00800000E+00  1.00800000E+00  0.00000000E+00
  1.60000000E+01  1.00800000E+00  1.00800000E+00  0.00000000E+00  1.60000000E+01
  1.00800000E+00  1.00800000E+00  0.00000000E+00  1.60000000E+01  1.00800000E+00
  1.00800000E+00  0.00000000E+00  1.60000000E+01  1.00800000E+00  1.00800000E+00
  0.00000000E+00  1.60000000E+01  1.00800000E+00  1.00800000E+00  0.00000000E+00
  1.60000000E+01  1.00800000E+00  1.00800000E+00  0.00000000E+00  1.60000000E+01
  1.00800000E+00  1.00800000E+00  0.00000000E+00  1.60000000E+01  1.00800000E+00
  1.00800000E+00  0.00000000E+00  1.60000000E+01  1.00800000E+00  1.00800000E+00
  0.00000000E+00  1.60000000E+01  1.00800000E+00  1.00800000E+00  0.00000000E+00
  1.60000000E+01  1.00800000E+00  1.00800000E+00  0.00000000E+00  1.60000000E+01
  1.00800000E+00  1.00800000E+00  0.00000000E+00  1.60000000E+01  1.00800000E+00
  1.00800000E+00  0.00000000E+00  1.60000000E+01  1.00800000E+00  1.00800000E+00
  0.00000000E+00  1.60000000E+01  1.00800000E+00  1.00800000E+00  0.00000000E+00
  1.60000000E+01  1.00800000E+00  1.00800000E+00  0.00000000E+00  1.60000000E+01
  1.00800000E+00  1.00800000E+00  0.00000000E+00  1.60000000E+01  1.00800000E+00
  1.00800000E+00  0.00000000E+00  1.60000000E+01  1.00800000E+00  1.00800000E+00
  0.00000000E+00  1.60000000E+01  1.00800000E+00  1.00800000E+00  0.00000000E+00
  1.60000000E+01  1.00800000E+00  1.00800000E+00  0.00000000E+00  1.60000000E+01
  1.00800000E+00  1.00800000E+00  0.00000000E+00  1.60000000E+01  1.00800000E+00
  1.00800000E+00  0.00000000E+00  1.60000000E+01  1.00800000E+00  1.00800000E+00
  0.00000000E+00  1.60000000E+01  1.00800000E+00  1.00800000E+00  0.00000000E+00
  1.60000000E+01  1.00800000E+00  1.00800000E+00  0.00000000E+00  1.60000000E+01
  1.00800000E+00  1.00800000E+00  0.00000000E+00  1.60000000E+01  1.00800000E+00
  1.00800000E+00  0.00000000E+00  1.60000000E+01  1.00800000E+00  1.00800000E+00
  0.00000000E+00  1.60000000E+01  1.00800000E+00  1.00800000E+00  0.00000000E+00
  1.60000000E+01  1.00800000E+00  1.00800000E+00  0.00000000E+00  1.60000000E+01
  1.00800000E+00  1.00800000E+00  0.00000000E+00  1.60000000E+01  1.00800000E+00
  1.00800000E+00  0.00000000E+00  1.60000000E+01  1.00800000E+00  1.00800000E+00
  0.00000000E+00  1.60000000E+01  1.00800000E+00  1.00800000E+00  0.00000000E+00
  1.60000000E+01  1.00800000E+00  1.00800000E+00  0.00000000E+00  1.60000000E+01
  1.00800000E+00  1.00800000E+00  0.00000000E+00  1.60000000E+01  1.00800000E+00
  1.00800000E+00  0.00000000E+00  1.60000000E+01  1.00800000E+00  1.00800000E+00
  0.00000000E+00  1.60000000E+01  1.00800000E+00  1.00800000E+00  0.00000000E+00
  1.60000000E+01  1.00800000E+00  1.00800000E+00  0.00000000E+00  1.60000000E+01
  1.00800000E+00  1.00800000E+00  0.00000000E+00  1.60000000E+01  1.00800000E+00
  1.00800000E+00  0.00000000E+00  1.60000000E+01  1.00800000E+00  1.00800000E+00
  0.00000000E+00  1.60000000E+01  1.00800000E+00  1.00800000E+00  0.00000000E+00
  1.60000000E+01  1.00800000E+00  1.00800000E+00  0.00000000E+00  1.60000000E+01
  1.00800000E+00  1.00800000E+00  0.00000000E+00  1.60000000E+01  1.00800000E+00
  1.00800000E+00  0.00000000E+00  1.60000000E+01  1.00800000E+00  1.00800000E+00
  0.00000000E+00  1.60000000E+01  1.00800000E+00  1.00800000E+00  0.00000000E+00
  1.60000000E+01  1.00800000E+00  1.00800000E+00  0.00000000E+00  1.60000000E+01
  1.00800000E+00  1.00800000E+00  0.00000000E+00  1.60000000E+01  1.00800000E+00
  1.00800000E+00  0.00000000E+00  1.60000000E+01  1.00800000E+00  1.00800000E+00
  0.00000000E+00  1.60000000E+01  1.00800000E+00  1.00800000E+00  0.00000000E+00
  1.60000000E+01  1.00800000E+00  1.00800000E+00  0.00000000E+00  1.60000000E+01
  1.00800000E+00  1.00800000E+00  0.00000000E+00  1.60000000E+01  1.00800000E+00
  1.00800000E+00  0.00000000E+00  1.60000000E+01  1.00800000E+00  1.00800000E+00
  0.00000000E+00  1.60000000E+01  1.00800000E+00  1.00800000E+00  0.00000000E+00
  1.60000000E+01  1.00800000E+00  1.00800000E+00  0.00000000E+00  1.60000000E+01
  1.00800000E+00  1.00800000E+00  0.00000000E+00  1.60000000E+01  1.00800000E+00
  1.00800000E+00  0.00000000E+00  1.60000000E+01  1.00800000E+00  1.00800000E+00
  0.00000000E+00  1.60000000E+01  1.00800000E+00  1.00800000E+00  0.00000000E+00
  1.60000000E+01  1.00800000E+00  1.00800000E+00  0.00000000E+00  1.60000000E+01
  1.00800000E+00  1.00800000E+00  0.00000000E+00  1.60000000E+01  1.00800000E+00
  1.00800000E+00  0.00000000E+00  1.60000000E+01  1.00800000E+00  1.00800000E+00
  0.00000000E+00  1.60000000E+01  1.00800000E+00  1.00800000E+00  0.00000000E+00
  1.60000000E+01  1.00800000E+00  1.00800000E+00  0.00000000E+00  1.60000000E+01
  1.00800000E+00  1.00800000E+00  0.00000000E+00  1.60000000E+01  1.00800000E+00
  1.00800000E+00  0.00000000E+00  1.60000000E+01  1.00800000E+00  1.00800000E+00
  0.00000000E+00  1.60000000E+01  1.00800000E+00  1.00800000E+00  0.00000000E+00
  1.60000000E+01  1.00800000E+00  1.00800000E+00  0.00000000E+00  1.60000000E+01
  1.00800000E+00  1.00800000E+00  0.00000000E+00  1.60000000E+01  1.00800000E+00
  1.00800000E+00  0.00000000E+00  1.60000000E+01  1.00800000E+00  1.00800000E+00
  0.00000000E+00  1.60000000E+01  1.00800000E+00  1.00800000E+00  0.00000000E+00
  1.60000000E+01  1.00800000E+00  1.00800000E+00  0.00000000E+00  1.60000000E+01
  1.00800000E+00  1.00800000E+00  0.00000000E+00  1.60000000E+01  1.00800000E+00
  1.00800000E+00  0.00000000E+00  1.60000000E+01  1.00800000E+00  1.00800000E+00
  0.00000000E+00  1.60000000E+01  1.00800000E+00  1.00800000E+00  0.00000000E+00
  1.60000000E+01  1.00800000E+00  1.00800000E+00  0.00000000E+00  1.60000000E+01
  1.00800000E+00  1.00800000E+00  0.00000000E+00  1.60000000E+01  1.00800000E+00
  1.00800000E+00  0.00000000E+00  1.60000000E+01  1.00800000E+00  1.00800000E+00
  0.00000000E+00  1.60000000E+01  1.00800000E+00  1.00800000E+00  0.00000000E+00
  1.60000000E+01  1.00800000E+00  1.00800000E+00  0.00000000E+00  1.60000000E+01
  1.00800000E+00  1.00800000E+00  0.00000000E+00  1.60000000E+01  1.00800000E+00
  1.00800000E+00  0.00000000E+00  1.60000000E+01  1.00800000E+00  1.00800000E+00
  0.00000000E+00  1.60000000E+01  1.00800000E+00  1.00800000E+00  0.00000000E+00
  1.60000000E+01  1.00800000E+00  1.00800000E+00  0.00000000E+00  1.60000000E+01
  1.00800000E+00  1.00800000E+00  0.00000000E+00  1.60000000E+01  1.00800000E+00
  1.00800000E+00  0.00000000E+00  1.60000000E+01  1.00800000E+00  1.00800000E+00
  0.00000000E+00  1.60000000E+01  1.00800000E+00  1.00800000E+00  0.00000000E+00
  1.60000000E+01  1.00800000E+00  1.00800000E+00  0.00000000E+00  1.60000000E+01
  1.00800000E+00  1.00800000E+00  0.00000000E+00  1.60000000E+01  1.00800000E+00
  1.00800000E+00  0.00000000E+00  1.60000000E+01  1.00800000E+00  1.00800000E+00
  0.00000000E+00  1.60000000E+01  1.00800000E+00  1.00800000E+00  0.00000000E+00
  1.60000000E+01  1.00800000E+00  1.00800000E+00  0.00000000E+00  1.60000000E+01
  1.00800000E+00  1.00800000E+00  0.00000000E+00  1.60000000E+01  1.00800000E+00
  1.00800000E+00  0.00000000E+00  1.60000000E+01  1.00800000E+00  1.00800000E+00
  0.00000000E+00  1.60000000E+01  1.00800000E+00  1.00800000E+00  0.00000000E+00
  1.60000000E+01  1.00800000E+00  1.00800000E+00  0.00000000E+00  1.60000000E+01
  1.00800000E+00  1.00800000E+00  0.00000000E+00  1.60000000E+01  1.00800000E+00
  1.00800000E+00  0.00000000E+00  1.60000000E+01  1.00800000E+00  1.00800000E+00
  0.00000000E+00  1.60000000E+01  1.00800000E+00  1.00800000E+00  0.00000000E+00
  1.60000000E+01  1.00800000E+00  1.00800000E+00  0.00000000E+00  1.60000000E+01
  1.00800000E+00  1.00800000E+00  0.00000000E+00  1.60000000E+01  1.00800000E+00
  1.00800000E+00  0.00000000E+00  1.60000000E+01  1.00800000E+00  1.00800000E+00
  0.00000000E+00  1.60000000E+01  1.00800000E+00  1.00800000E+00  0.00000000E+00
  1.60000000E+01  1.00800000E+00  1.00800000E+00  0.00000000E+00  1.60000000E+01
  1.00800000E+00  1.00800000E+00  0.00000000E+00  1.60000000E+01  1.00800000E+00
  1.00800000E+00  0.00000000E+00  1.60000000E+01  1.00800000E+00  1.00800000E+00
  0.00000000E+00  1.60000000E+01  1.00800000E+00  1.00800000E+00  0.00000000E+00
  1.60000000E+01  1.00800000E+00  1.00800000E+00  0.00000000E+00  1.60000000E+01
  1.00800000E+00  1.00800000E+00  0.00000000E+00  1.60000000E+01  1.00800000E+00
  1.00800000E+00  0.00000000E+00  1.60000000E+01  1.00800000E+00  1.00800000E+00
  0.00000000E+00  1.60000000E+01  1.00800000E+00  1.00800000E+00  0.00000000E+00
  1.60000000E+01  1.00800000E+00  1.00800000E+00  0.00000000E+00  1.60000000E+01
  1.00800000E+00  1.00800000E+00  0.00000000E+00  1.60000000E+01  1.00800000E+00
  1.00800000E+00  0.00000000E+00  1.60000000E+01  1.00800000E+00  1.00800000E+00
  0.00000000E+00  1.60000000E+01  1.00800000E+00  1.00800000E+00  0.00000000E+00
  1.60000000E+01  1.00800000E+00  1.00800000E+00  0.00000000E+00  1.60000000E+01
  1.00800000E+00  1.00800000E+00  0.00000000E+00  1.60000000E+01  1.00800000E+00
  1.00800000E+00  0.00000000E+00  1.60000000E+01  1.00800000E+00  1.00800000E+00
  0.00000000E+00  1.60000000E+01  1.00800000E+00  1.00800000E+00  0.00000000E+00
  1.60000000E+01  1.00800000E+00  1.00800000E+00  0.00000000E+00  1.60000000E+01
  1.00800000E+00  1.00800000E+00  0.00000000E+00  1.60000000E+01  1.00800000E+00
  1.00800000E+00  0.00000000E+00  1.60000000E+01  1.00800000E+00  1.00800000E+00
  0.00000000E+00  1.60000000E+01  1.00800000E+00  1.00800000E+00  0.00000000E+00
  1.60000000E+01  1.00800000E+00  1.00800000E+00  0.00000000E+00  1.60000000E+01
  1.00800000E+00  1.00800000E+00  0.00000000E+00  1.60000000E+01  1.00800000E+00
  1.00800000E+00  0.00000000E+00  1.60000000E+01  1.00800000E+00  1.00800000E+00
  0.00000000E+00  1.60000000E+01  1.00800000E+00  1.00800000E+00  0.00000000E+00
  1.60000000E+01  1.00800000E+00  1.00800000E+00  0.00000000E+00  1.60000000E+01
  1.00800000E+00  1.00800000E+00  0.00000000E+00  1.60000000E+01  1.00800000E+00
  1.00800000E+00  0.00000000E+00  1.60000000E+01  1.00800000E+00  1.00800000E+00
  0.00000000E+00  1.60000000E+01  1.00800000E+00  1.00800000E+00  0.00000000E+00
  1.60000000E+01  1.00800000E+00  1.00800000E+00  0.00000000E+00  1.60000000E+01
  1.00800000E+00  1.00800000E+00  0.00000000E+00  1.60000000E+01  1.00800000E+00
  1.00800000E+00  0.00000000E+00  1.60000000E+01  1.00800000E+00  1.00800000E+00
  0.00000000E+00  1.60000000E+01  1.00800000E+00  1.00800000E+00  0.00000000E+00
  1.60000000E+01  1.00800000E+00  1.00800000E+00  0.00000000E+00  1.60000000E+01
  1.00800000E+00  1.00800000E+00  0.00000000E+00  1.60000000E+01  1.00800000E+00
  1.00800000E+00  0.00000000E+00  1.60000000E+01  1.00800000E+00  1.00800000E+00
  0.00000000E+00  1.60000000E+01  1.00800000E+00  1.00800000E+00  0.00000000E+00
  1.60000000E+01  1.00800000E+00  1.00800000E+00  0.00000000E+00  1.60000000E+01
  1.00800000E+00  1.00800000E+00  0.00000000E+00  1.60000000E+01  1.00800000E+00
  1.00800000E+00  0.00000000E+00  1.60000000E+01  1.00800000E+00  1.00800000E+00
  0.00000000E+00  1.60000000E+01  1.00800000E+00  1.00800000E+00  0.00000000E+00
  1.60000000E+01  1.00800000E+00  1.00800000E+00  0.00000000E+00  1.60000000E+01
  1.00800000E+00  1.00800000E+00  0.00000000E+00  1.60000000E+01  1.00800000E+00
  1.00800000E+00  0.00000000E+00  1.60000000E+01  1.00800000E+00  1.00800000E+00
  0.00000000E+00  1.60000000E+01  1.00800000E+00  1.00800000E+00  0.00000000E+00
  1.60000000E+01  1.00800000E+00  1.00800000E+00  0.00000000E+00  1.60000000E+01
  1.00800000E+00  1.00800000E+00  0.00000000E+00  1.60000000E+01  1.00800000E+00
  1.00800000E+00  0.00000000E+00  1.60000000E+01  1.00800000E+00  1.00800000E+00
  0.00000000E+00  1.60000000E+01  1.00800000E+00  1.00800000E+00  0.00000000E+00
  1.60000000E+01  1.00800000E+00  1.00800000E+00  0.00000000E+00  1.60000000E+01
  1.00800000E+00  1.00800000E+00  0.00000000E+00  1.60000000E+01  1.00800000E+00
  1.00800000E+00  0.00000000E+00  1.60000000E+01  1.00800000E+00  1.00800000E+00
  0.00000000E+00  1.60000000E+01  1.00800000E+00  1.00800000E+00  0.00000000E+00
  1.60000000E+01  1.00800000E+00  1.00800000E+00  0.00000000E+00  1.60000000E+01
  1.00800000E+00  1.00800000E+00  0.00000000E+00  1.60000000E+01  1.00800000E+00
  1.00800000E+00  0.00000000E+00  1.60000000E+01  1.00800000E+00  1.00800000E+00
  0.00000000E+00  1.60000000E+01  1.00800000E+00  1.00800000E+00  0.00000000E+00
  1.60000000E+01  1.00800000E+00  1.00800000E+00  0.00000000E+00  1.60000000E+01
  1.00800000E+00  1.00800000E+00  0.00000000E+00  1.60000000E+01  1.00800000E+00
  1.00800000E+00  0.00000000E+00  1.60000000E+01  1.00800000E+00  1.00800000E+00
  0.00000000E+00  1.60000000E+01  1.00800000E+00  1.00800000E+00  0.00000000E+00
  1.60000000E+01  1.00800000E+00  1.00800000E+00  0.00000000E+00  1.60000000E+01
  1.00800000E+00  1.00800000E+00  0.00000000E+00  1.60000000E+01  1.00800000E+00
  1.00800000E+00  0.00000000E+00  1.60000000E+01  1.00800000E+00  1.00800000E+00
  0.00000000E+00  1.60000000E+01  1.00800000E+00  1.00800000E+00  0.00000000E+00
  1.60000000E+01  1.00800000E+00  1.00800000E+00  0.00000000E+00  1.60000000E+01
  1.00800000E+00  1.00800000E+00  0.00000000E+00  1.60000000E+01  1.00800000E+00
  1.00800000E+00  0.00000000E+00  1.60000000E+01  1.00800000E+00  1.00800000E+00
  0.00000000E+00  1.60000000E+01  1.00800000E+00  1.00800000E+00  0.00000000E+00
  1.60000000E+01  1.00800000E+00  1.00800000E+00  0.00000000E+00  1.60000000E+01
  1.00800000E+00  1.00800000E+00  0.00000000E+00  1.60000000E+01  1.00800000E+00
  1.00800000E+00  0.00000000E+00  1.60000000E+01  1.00800000E+00  1.00800000E+00
  0.00000000E+00  1.60000000E+01  1.00800000E+00  1.00800000E+00  0.00000000E+00
  1.60000000E+01  1.00800000E+00  1.00800000E+00  0.00000000E+00  1.60000000E+01
  1.00800000E+00  1.00800000E+00  0.00000000E+00  1.60000000E+01  1.00800000E+00
  1.00800000E+00  0.00000000E+00  1.60000000E+01  1.00800000E+00  1.00800000E+00
  0.00000000E+00  1.60000000E+01  1.00800000E+00  1.00800000E+00  0.00000000E+00
  1.60000000E+01  1.00800000E+00  1.00800000E+00  0.00000000E+00  1.60000000E+01
  1.00800000E+00  1.00800000E+00  0.00000000E+00  1.60000000E+01  1.00800000E+00
  1.00800000E+00  0.00000000E+00  1.60000000E+01  1.00800000E+00  1.00800000E+00
  0.00000000E+00  1.60000000E+01  1.00800000E+00  1.00800000E+00  0.00000000E+00
  1.60000000E+01  1.00800000E+00  1.00800000E+00  0.00000000E+00  1.60000000E+01
  1.00800000E+00  1.00800000E+00  0.00000000E+00  1.60000000E+01  1.00800000E+00
  1.00800000E+00  0.00000000E+00  1.60000000E+01  1.00800000E+00  1.00800000E+00
  0.00000000E+00  1.60000000E+01  1.00800000E+00  1.00800000E+00  0.00000000E+00
  1.60000000E+01  1.00800000E+00  1.00800000E+00  0.00000000E+00  1.60000000E+01
  1.00800000E+00  1.00800000E+00  0.00000000E+00  1.60000000E+01  1.00800000E+00
  1.00800000E+00  0.00000000E+00  1.60000000E+01  1.00800000E+00  1.00800000E+00
  0.00000000E+00  1.60000000E+01  1.00800000E+00  1.00800000E+00  0.00000000E+00
  1.60000000E+01  1.00800000E+00  1.00800000E+00  0.00000000E+00  1.60000000E+01
  1.00800000E+00  1.00800000E+00  0.00000000E+00  1.60000000E+01  1.00800000E+00
  1.00800000E+00  0.00000000E+00  1.60000000E+01  1.00800000E+00  1.00800000E+00
  0.00000000E+00  1.60000000E+01  1.00800000E+00  1.00800000E+00  0.00000000E+00
  1.60000000E+01  1.00800000E+00  1.00800000E+00  0.00000000E+00  1.60000000E+01
  1.00800000E+00  1.00800000E+00  0.00000000E+00  1.60000000E+01  1.00800000E+00
  1.00800000E+00  0.00000000E+00  1.60000000E+01  1.00800000E+00  1.00800000E+00
  0.00000000E+00  1.60000000E+01  1.00800000E+00  1.00800000E+00  0.00000000E+00
  1.60000000E+01  1.00800000E+00  1.00800000E+00  0.00000000E+00  1.60000000E+01
  1.00800000E+00  1.00800000E+00  0.00000000E+00  1.60000000E+01  1.00800000E+00
  1.00800000E+00  0.00000000E+00  1.60000000E+01  1.00800000E+00  1.00800000E+00
  0.00000000E+00  1.60000000E+01  1.00800000E+00  1.00800000E+00  0.00000000E+00
  1.60000000E+01  1.00800000E+00  1.00800000E+00  0.00000000E+00  1.60000000E+01
  1.00800000E+00  1.00800000E+00  0.00000000E+00  1.60000000E+01  1.00800000E+00
  1.00800000E+00  0.00000000E+00  1.60000000E+01  1.00800000E+00  1.00800000E+00
  0.00000000E+00  1.60000000E+01  1.00800000E+00  1.00800000E+00  0.00000000E+00
  1.60000000E+01  1.00800000E+00  1.00800000E+00  0.00000000E+00  1.60000000E+01
  1.00800000E+00  1.00800000E+00  0.00000000E+00  1.60000000E+01  1.00800000E+00
  1.00800000E+00  0.00000000E+00  1.60000000E+01  1.00800000E+00  1.00800000E+00
  0.00000000E+00  1.60000000E+01  1.00800000E+00  1.00800000E+00  0.00000000E+00
  1.60000000E+01  1.00800000E+00  1.00800000E+00  0.00000000E+00  1.60000000E+01
  1.00800000E+00  1.00800000E+00  0.00000000E+00  1.60000000E+01  1.00800000E+00
  1.00800000E+00  0.00000000E+00  1.60000000E+01  1.00800000E+00  1.00800000E+00
  0.00000000E+00  1.60000000E+01  1.00800000E+00  1.00800000E+00  0.00000000E+00
  1.60000000E+01  1.00800000E+00  1.00800000E+00  0.00000000E+00  1.60000000E+01
  1.00800000E+00  1.00800000E+00  0.00000000E+00  1.60000000E+01  1.00800000E+00
  1.00800000E+00  0.00000000E+00  1.60000000E+01  1.00800000E+00  1.00800000E+00
  0.00000000E+00  1.60000000E+01  1.00800000E+00  1.00800000E+00  0.00000000E+00
  1.60000000E+01  1.00800000E+00  1.00800000E+00  0.00000000E+00  1.60000000E+01
  1.00800000E+00  1.00800000E+00  0.00000000E+00  1.60000000E+01  1.00800000E+00
  1.00800000E+00  0.00000000E+00  1.60000000E+01  1.00800000E+00  1.00800000E+00
  0.00000000E+00  1.60000000E+01  1.00800000E+00  1.00800000E+00  0.00000000E+00
  1.60000000E+01  1.00800000E+00  1.00800000E+00  0.00000000E+00  1.60000000E+01
  1.00800000E+00  1.00800000E+00  0.00000000E+00  1.60000000E+01  1.00800000E+00
  1.00800000E+00  0.00000000E+00  1.60000000E+01  1.00800000E+00  1.00800000E+00
  0.00000000E+00  1.60000000E+01  1.00800000E+00  1.00800000E+00  0.00000000E+00
  1.60000000E+01  1.00800000E+00  1.00800000E+00  0.00000000E+00  1.60000000E+01
  1.00800000E+00  1.00800000E+00  0.00000000E+00  1.60000000E+01  1.00800000E+00
  1.00800000E+00  0.00000000E+00  1.60000000E+01  1.00800000E+00  1.00800000E+00
  0.00000000E+00  1.60000000E+01  1.00800000E+00  1.00800000E+00  0.00000000E+00
  1.60000000E+01  1.00800000E+00  1.00800000E+00  0.00000000E+00  1.60000000E+01
  1.00800000E+00  1.00800000E+00  0.00000000E+00  1.60000000E+01  1.00800000E+00
  1.00800000E+00  0.00000000E+00  1.60000000E+01  1.00800000E+00  1.00800000E+00
  0.00000000E+00  1.60000000E+01  1.00800000E+00  1.00800000E+00  0.00000000E+00
  1.60000000E+01  1.00800000E+00  1.00800000E+00  0.00000000E+00  1.60000000E+01
  1.00800000E+00  1.00800000E+00  0.00000000E+00  1.60000000E+01  1.00800000E+00
  1.00800000E+00  0.00000000E+00  1.60000000E+01  1.00800000E+00  1.00800000E+00
  0.00000000E+00  1.60000000E+01  1.00800000E+00  1.00800000E+00  0.00000000E+00
  1.60000000E+01  1.00800000E+00  1.00800000E+00  0.00000000E+00  1.60000000E+01
  1.00800000E+00  1.00800000E+00  0.00000000E+00  1.60000000E+01  1.00800000E+00
  1.00800000E+00  0.00000000E+00  1.60000000E+01  1.00800000E+00  1.00800000E+00
  0.00000000E+00  1.60000000E+01  1.00800000E+00  1.00800000E+00  0.00000000E+00
  1.60000000E+01  1.00800000E+00  1.00800000E+00  0.00000000E+00  1.60000000E+01
  1.00800000E+00  1.00800000E+00  0.00000000E+00  1.60000000E+01  1.00800000E+00
  1.00800000E+00  0.00000000E+00  1.60000000E+01  1.00800000E+00  1.00800000E+00
  0.00000000E+00  1.60000000E+01  1.00800000E+00  1.00800000E+00  0.00000000E+00
  1.60000000E+01  1.00800000E+00  1.00800000E+00  0.00000000E+00  1.60000000E+01
  1.00800000E+00  1.00800000E+00  0.00000000E+00  1.60000000E+01  1.00800000E+00
  1.00800000E+00  0.00000000E+00  1.60000000E+01  1.00800000E+00  1.00800000E+00
  0.00000000E+00  1.60000000E+01  1.00800000E+00  1.00800000E+00  0.00000000E+00
  1.60000000E+01  1.00800000E+00  1.00800000E+00  0.00000000E+00  1.60000000E+01
  1.00800000E+00  1.00800000E+00  0.00000000E+00  1.60000000E+01  1.00800000E+00
  1.00800000E+00  0.00000000E+00  1.60000000E+01  1.00800000E+00  1.00800000E+00
  0.00000000E+00  1.60000000E+01  1.00800000E+00  1.00800000E+00  0.00000000E+00
  1.60000000E+01  1.00800000E+00  1.00800000E+00  0.00000000E+00  1.60000000E+01
  1.00800000E+00  1.00800000E+00  0.00000000E+00  1.60000000E+01  1.00800000E+00
  1.00800000E+00  0.00000000E+00  1.60000000E+01  1.00800000E+00  1.00800000E+00
  0.00000000E+00  1.60000000E+01  1.00800000E+00  1.00800000E+00  0.00000000E+00
  1.60000000E+01  1.00800000E+00  1.00800000E+00  0.00000000E+00  1.60000000E+01
  1.00800000E+00  1.00800000E+00  0.00000000E+00  1.60000000E+01  1.00800000E+00
  1.00800000E+00  0.00000000E+00  1.60000000E+01  1.00800000E+00  1.00800000E+00
  0.00000000E+00  1.60000000E+01  1.00800000E+00  1.00800000E+00  0.00000000E+00
  1.60000000E+01  1.00800000E+00  1.00800000E+00  0.00000000E+00  1.60000000E+01
  1.00800000E+00  1.00800000E+00  0.00000000E+00  1.60000000E+01  1.00800000E+00
  1.00800000E+00  0.00000000E+00  1.60000000E+01  1.00800000E+00  1.00800000E+00
  0.00000000E+00  1.60000000E+01  1.00800000E+00  1.00800000E+00  0.00000000E+00
  1.60000000E+01  1.00800000E+00  1.00800000E+00  0.00000000E+00  1.60000000E+01
  1.00800000E+00  1.00800000E+00  0.00000000E+00  1.60000000E+01  1.00800000E+00
  1.00800000E+00  0.00000000E+00  1.60000000E+01  1.00800000E+00  1.00800000E+00
  0.00000000E+00  1.60000000E+01  1.00800000E+00  1.00800000E+00  0.00000000E+00
  1.60000000E+01  1.00800000E+00  1.00800000E+00  0.00000000E+00  1.60000000E+01
  1.00800000E+00  1.00800000E+00  0.00000000E+00  1.60000000E+01  1.00800000E+00
  1.00800000E+00  0.00000000E+00  1.60000000E+01  1.00800000E+00  1.00800000E+00
  0.00000000E+00  1.60000000E+01  1.00800000E+00  1.00800000E+00  0.00000000E+00
  1.60000000E+01  1.00800000E+00  1.00800000E+00  0.00000000E+00  1.60000000E+01
  1.00800000E+00  1.00800000E+00  0.00000000E+00  1.60000000E+01  1.00800000E+00
  1.00800000E+00  0.00000000E+00  1.60000000E+01  1.00800000E+00  1.00800000E+00
  0.00000000E+00  1.60000000E+01  1.00800000E+00  1.00800000E+00  0.00000000E+00
  1.60000000E+01  1.00800000E+00  1.00800000E+00  0.00000000E+00  1.60000000E+01
  1.00800000E+00  1.00800000E+00  0.00000000E+00  1.60000000E+01  1.00800000E+00
  1.00800000E+00  0.00000000E+00  1.60000000E+01  1.00800000E+00  1.00800000E+00
  0.00000000E+00  1.60000000E+01  1.00800000E+00  1.00800000E+00  0.00000000E+00
  1.60000000E+01  1.00800000E+00  1.00800000E+00  0.00000000E+00  1.60000000E+01
  1.00800000E+00  1.00800000E+00  0.00000000E+00  1.60000000E+01  1.00800000E+00
  1.00800000E+00  0.00000000E+00  1.60000000E+01  1.00800000E+00  1.00800000E+00
  0.00000000E+00  1.60000000E+01  1.00800000E+00  1.00800000E+00  0.00000000E+00
  1.60000000E+01  1.00800000E+00  1.00800000E+00  0.00000000E+00  1.60000000E+01
  1.00800000E+00  1.00800000E+00  0.00000000E+00  1.60000000E+01  1.00800000E+00
  1.00800000E+00  0.00000000E+00  1.60000000E+01  1.00800000E+00  1.00800000E+00
  0.00000000E+00  1.60000000E+01  1.00800000E+00  1.00800000E+00  0.00000000E+00
  1.60000000E+01  1.00800000E+00  1.00800000E+00  0.00000000E+00  1.60000000E+01
  1.00800000E+00  1.00800000E+00  0.00000000E+00  1.60000000E+01  1.00800000E+00
  1.00800000E+00  0.00000000E+00  1.60000000E+01  1.00800000E+00  1.00800000E+00
  0.00000000E+00  1.60000000E+01  1.00800000E+00  1.00800000E+00  0.00000000E+00
  1.60000000E+01  1.00800000E+00  1.00800000E+00  0.00000000E+00  1.60000000E+01
  1.00800000E+00  1.00800000E+00  0.00000000E+00  1.60000000E+01  1.00800000E+00
  1.00800000E+00  0.00000000E+00  1.60000000E+01  1.00800000E+00  1.00800000E+00
  0.00000000E+00  1.60000000E+01  1.00800000E+00  1.00800000E+00  0.00000000E+00
  1.60000000E+01  1.00800000E+00  1.00800000E+00  0.00000000E+00  1.60000000E+01
  1.00800000E+00  1.00800000E+00  0.00000000E+00  1.60000000E+01  1.00800000E+00
  1.00800000E+00  0.00000000E+00  1.60000000E+01  1.00800000E+00  1.00800000E+00
  0.00000000E+00  1.60000000E+01  1.00800000E+00  1.00800000E+00  0.00000000E+00
  1.60000000E+01  1.00800000E+00  1.00800000E+00  0.00000000E+00  1.60000000E+01
  1.00800000E+00  1.00800000E+00  0.00000000E+00  1.60000000E+01  1.00800000E+00
  1.00800000E+00  0.00000000E+00  1.60000000E+01  1.00800000E+00  1.00800000E+00
  0.00000000E+00  1.60000000E+01  1.00800000E+00  1.00800000E+00  0.00000000E+00
  1.60000000E+01  1.00800000E+00  1.00800000E+00  0.00000000E+00  1.60000000E+01
  1.00800000E+00  1.00800000E+00  0.00000000E+00  1.60000000E+01  1.00800000E+00
  1.00800000E+00  0.00000000E+00  1.60000000E+01  1.00800000E+00  1.00800000E+00
  0.00000000E+00  1.60000000E+01  1.00800000E+00  1.00800000E+00  0.00000000E+00
  1.60000000E+01  1.00800000E+00  1.00800000E+00  0.00000000E+00  1.60000000E+01
  1.00800000E+00  1.00800000E+00  0.00000000E+00  1.60000000E+01  1.00800000E+00
  1.00800000E+00  0.00000000E+00  1.60000000E+01  1.00800000E+00  1.00800000E+00
  0.00000000E+00  1.60000000E+01  1.00800000E+00  1.00800000E+00  0.00000000E+00
  1.60000000E+01  1.00800000E+00  1.00800000E+00  0.00000000E+00  1.60000000E+01
  1.00800000E+00  1.00800000E+00  0.00000000E+00  1.60000000E+01  1.00800000E+00
  1.00800000E+00  0.00000000E+00  1.60000000E+01  1.00800000E+00  1.00800000E+00
  0.00000000E+00  1.60000000E+01  1.00800000E+00  1.00800000E+00  0.00000000E+00
  1.60000000E+01  1.00800000E+00  1.00800000E+00  0.00000000E+00  1.60000000E+01
  1.00800000E+00  1.00800000E+00  0.00000000E+00  1.60000000E+01  1.00800000E+00
  1.00800000E+00  0.00000000E+00  1.60000000E+01  1.00800000E+00  1.00800000E+00
  0.00000000E+00  1.60000000E+01  1.00800000E+00  1.00800000E+00  0.00000000E+00
  1.60000000E+01  1.00800000E+00  1.00800000E+00  0.00000000E+00  1.60000000E+01
  1.00800000E+00  1.00800000E+00  0.00000000E+00  1.60000000E+01  1.00800000E+00
  1.00800000E+00  0.00000000E+00  1.60000000E+01  1.00800000E+00  1.00800000E+00
  0.00000000E+00  1.60000000E+01  1.00800000E+00  1.00800000E+00  0.00000000E+00
  1.60000000E+01  1.00800000E+00  1.00800000E+00  0.00000000E+00  1.60000000E+01
  1.00800000E+00  1.00800000E+00  0.00000000E+00  1.60000000E+01  1.00800000E+00
  1.00800000E+00  0.00000000E+00  1.60000000E+01  1.00800000E+00  1.00800000E+00
  0.00000000E+00  1.60000000E+01  1.00800000E+00  1.00800000E+00  0.00000000E+00
  1.60000000E+01  1.00800000E+00  1.00800000E+00  0.00000000E+00  1.60000000E+01
  1.00800000E+00  1.00800000E+00  0.00000000E+00  1.60000000E+01  1.00800000E+00
  1.00800000E+00  0.00000000E+00  1.60000000E+01  1.00800000E+00  1.00800000E+00
  0.00000000E+00  1.60000000E+01  1.00800000E+00  1.00800000E+00  0.00000000E+00
  1.60000000E+01  1.00800000E+00  1.00800000E+00  0.00000000E+00  1.60000000E+01
  1.00800000E+00  1.00800000E+00  0.00000000E+00  1.60000000E+01  1.00800000E+00
  1.00800000E+00  0.00000000E+00  1.60000000E+01  1.00800000E+00  1.00800000E+00
  0.00000000E+00  1.60000000E+01  1.00800000E+00  1.00800000E+00  0.00000000E+00
  1.60000000E+01  1.00800000E+00  1.00800000E+00  0.00000000E+00  1.60000000E+01
  1.00800000E+00  1.00800000E+00  0.00000000E+00  1.60000000E+01  1.00800000E+00
  1.00800000E+00  0.00000000E+00  1.60000000E+01  1.00800000E+00  1.00800000E+00
  0.00000000E+00  1.60000000E+01  1.00800000E+00  1.00800000E+00  0.00000000E+00
  1.60000000E+01  1.00800000E+00  1.00800000E+00  0.00000000E+00  1.60000000E+01
  1.00800000E+00  1.00800000E+00  0.00000000E+00  1.60000000E+01  1.00800000E+00
  1.00800000E+00  0.00000000E+00  1.60000000E+01  1.00800000E+00  1.00800000E+00
  0.00000000E+00  1.60000000E+01  1.00800000E+00  1.00800000E+00  0.00000000E+00
  1.60000000E+01  1.00800000E+00  1.00800000E+00  0.00000000E+00  1.60000000E+01
  1.00800000E+00  1.00800000E+00  0.00000000E+00  1.60000000E+01  1.00800000E+00
  1.00800000E+00  0.00000000E+00  1.60000000E+01  1.00800000E+00  1.00800000E+00
  0.00000000E+00  1.60000000E+01  1.00800000E+00  1.00800000E+00  0.00000000E+00
  1.60000000E+01  1.00800000E+00  1.00800000E+00  0.00000000E+00  1.60000000E+01
  1.00800000E+00  1.00800000E+00  0.00000000E+00  1.60000000E+01  1.00800000E+00
  1.00800000E+00  0.00000000E+00  1.60000000E+01  1.00800000E+00  1.00800000E+00
  0.00000000E+00  1.60000000E+01  1.00800000E+00  1.00800000E+00  0.00000000E+00
  1.60000000E+01  1.00800000E+00  1.00800000E+00  0.00000000E+00  1.60000000E+01
  1.00800000E+00  1.00800000E+00  0.00000000E+00  1.60000000E+01  1.00800000E+00
  1.00800000E+00  0.00000000E+00  1.60000000E+01  1.00800000E+00  1.00800000E+00
  0.00000000E+00  1.60000000E+01  1.00800000E+00  1.00800000E+00  0.00000000E+00
  1.60000000E+01  1.00800000E+00  1.00800000E+00  0.00000000E+00  1.60000000E+01
  1.00800000E+00  1.00800000E+00  0.00000000E+00  1.60000000E+01  1.00800000E+00
  1.00800000E+00  0.00000000E+00  1.60000000E+01  1.00800000E+00  1.00800000E+00
  0.00000000E+00  1.60000000E+01  1.00800000E+00  1.00800000E+00  0.00000000E+00
  1.60000000E+01  1.00800000E+00  1.00800000E+00  0.00000000E+00  1.60000000E+01
  1.00800000E+00  1.00800000E+00  0.00000000E+00  1.60000000E+01  1.00800000E+00
  1.00800000E+00  0.00000000E+00  1.60000000E+01  1.00800000E+00  1.00800000E+00
  0.00000000E+00  1.60000000E+01  1.00800000E+00  1.00800000E+00  0.00000000E+00
  1.60000000E+01  1.00800000E+00  1.00800000E+00  0.00000000E+00  1.60000000E+01
  1.00800000E+00  1.00800000E+00  0.00000000E+00  1.60000000E+01  1.00800000E+00
  1.00800000E+00  0.00000000E+00  1.60000000E+01  1.00800000E+00  1.00800000E+00
  0.00000000E+00  1.60000000E+01  1.00800000E+00  1.00800000E+00  0.00000000E+00
  1.60000000E+01  1.00800000E+00  1.00800000E+00  0.00000000E+00  1.60000000E+01
  1.00800000E+00  1.00800000E+00  0.00000000E+00  1.60000000E+01  1.00800000E+00
  1.00800000E+00  0.00000000E+00  1.60000000E+01  1.00800000E+00  1.00800000E+00
  0.00000000E+00  1.60000000E+01  1.00800000E+00  1.00800000E+00  0.00000000E+00
  1.60000000E+01  1.00800000E+00  1.00800000E+00  0.00000000E+00  1.60000000E+01
  1.00800000E+00  1.00800000E+00  0.00000000E+00  1.60000000E+01  1.00800000E+00
  1.00800000E+00  0.00000000E+00  1.60000000E+01  1.00800000E+00  1.00800000E+00
  0.00000000E+00  1.60000000E+01  1.00800000E+00  1.00800000E+00  0.00000000E+00
  1.60000000E+01  1.00800000E+00  1.00800000E+00  0.00000000E+00  1.60000000E+01
  1.00800000E+00  1.00800000E+00  0.00000000E+00  1.60000000E+01  1.00800000E+00
  1.00800000E+00  0.00000000E+00  1.60000000E+01  1.00800000E+00  1.00800000E+00
  0.00000000E+00  1.60000000E+01  1.00800000E+00  1.00800000E+00  0.00000000E+00
  1.60000000E+01  1.00800000E+00  1.00800000E+00  0.00000000E+00  1.60000000E+01
  1.00800000E+00  1.00800000E+00  0.00000000E+00  1.60000000E+01  1.00800000E+00
  1.00800000E+00  0.00000000E+00  1.60000000E+01  1.00800000E+00  1.00800000E+00
  0.00000000E+00  1.60000000E+01  1.00800000E+00  1.00800000E+00  0.00000000E+00
  1.60000000E+01  1.00800000E+00  1.00800000E+00  0.00000000E+00  1.60000000E+01
  1.00800000E+00  1.00800000E+00  0.00000000E+00  1.60000000E+01  1.00800000E+00
  1.00800000E+00  0.00000000E+00  1.60000000E+01  1.00800000E+00  1.00800000E+00
  0.00000000E+00  1.60000000E+01  1.00800000E+00  1.00800000E+00  0.00000000E+00
  1.60000000E+01  1.00800000E+00  1.00800000E+00  0.00000000E+00  1.60000000E+01
  1.00800000E+00  1.00800000E+00  0.00000000E+00  1.60000000E+01  1.00800000E+00
  1.00800000E+00  0.00000000E+00  1.60000000E+01  1.00800000E+00  1.00800000E+00
  0.00000000E+00  1.60000000E+01  1.00800000E+00  1.00800000E+00  0.00000000E+00
  1.60000000E+01  1.00800000E+00  1.00800000E+00  0.00000000E+00  1.60000000E+01
  1.00800000E+00  1.00800000E+00  0.00000000E+00  1.60000000E+01  1.00800000E+00
  1.00800000E+00  0.00000000E+00  1.60000000E+01  1.00800000E+00  1.00800000E+00
  0.00000000E+00  1.60000000E+01  1.00800000E+00  1.00800000E+00  0.00000000E+00
  1.60000000E+01  1.00800000E+00  1.00800000E+00  0.00000000E+00  1.60000000E+01
  1.00800000E+00  1.00800000E+00  0.00000000E+00  1.60000000E+01  1.00800000E+00
  1.00800000E+00  0.00000000E+00  1.60000000E+01  1.00800000E+00  1.00800000E+00
  0.00000000E+00  1.60000000E+01  1.00800000E+00  1.00800000E+00  0.00000000E+00
  1.60000000E+01  1.00800000E+00  1.00800000E+00  0.00000000E+00  1.60000000E+01
  1.00800000E+00  1.00800000E+00  0.00000000E+00  1.60000000E+01  1.00800000E+00
  1.00800000E+00  0.00000000E+00  1.60000000E+01  1.00800000E+00  1.00800000E+00
  0.00000000E+00  1.60000000E+01  1.00800000E+00  1.00800000E+00  0.00000000E+00
  1.60000000E+01  1.00800000E+00  1.00800000E+00  0.00000000E+00  1.60000000E+01
  1.00800000E+00  1.00800000E+00  0.00000000E+00  1.60000000E+01  1.00800000E+00
  1.00800000E+00  0.00000000E+00  1.60000000E+01  1.00800000E+00  1.00800000E+00
  0.00000000E+00  1.60000000E+01  1.00800000E+00  1.00800000E+00  0.00000000E+00
  1.60000000E+01  1.00800000E+00  1.00800000E+00  0.00000000E+00  1.60000000E+01
  1.00800000E+00  1.00800000E+00  0.00000000E+00  1.60000000E+01  1.00800000E+00
  1.00800000E+00  0.00000000E+00  1.60000000E+01  1.00800000E+00  1.00800000E+00
  0.00000000E+00  1.60000000E+01  1.00800000E+00  1.00800000E+00  0.00000000E+00
  1.60000000E+01  1.00800000E+00  1.00800000E+00  0.00000000E+00  1.60000000E+01
  1.00800000E+00  1.00800000E+00  0.00000000E+00  1.60000000E+01  1.00800000E+00
  1.00800000E+00  0.00000000E+00  1.60000000E+01  1.00800000E+00  1.00800000E+00
  0.00000000E+00  1.60000000E+01  1.00800000E+00  1.00800000E+00  0.00000000E+00
  1.60000000E+01  1.00800000E+00  1.00800000E+00  0.00000000E+00  1.60000000E+01
  1.00800000E+00  1.00800000E+00  0.00000000E+00  1.60000000E+01  1.00800000E+00
  1.00800000E+00  0.00000000E+00  1.60000000E+01  1.00800000E+00  1.00800000E+00
  0.00000000E+00  1.60000000E+01  1.00800000E+00  1.00800000E+00  0.00000000E+00
  1.60000000E+01  1.00800000E+00  1.00800000E+00  0.00000000E+00  1.60000000E+01
  1.00800000E+00  1.00800000E+00  0.00000000E+00  1.60000000E+01  1.00800000E+00
  1.00800000E+00  0.00000000E+00  1.60000000E+01  1.00800000E+00  1.00800000E+00
  0.00000000E+00  1.60000000E+01  1.00800000E+00  1.00800000E+00  0.00000000E+00
  1.60000000E+01  1.00800000E+00  1.00800000E+00  0.00000000E+00  1.60000000E+01
  1.00800000E+00  1.00800000E+00  0.00000000E+00  1.60000000E+01  1.00800000E+00
  1.00800000E+00  0.00000000E+00  1.60000000E+01  1.00800000E+00  1.00800000E+00
  0.00000000E+00  1.60000000E+01  1.00800000E+00  1.00800000E+00  0.00000000E+00
  1.60000000E+01  1.00800000E+00  1.00800000E+00  0.00000000E+00  1.60000000E+01
  1.00800000E+00  1.00800000E+00  0.00000000E+00  1.60000000E+01  1.00800000E+00
  1.00800000E+00  0.00000000E+00  1.60000000E+01  1.00800000E+00  1.00800000E+00
  0.00000000E+00  1.60000000E+01  1.00800000E+00  1.00800000E+00  0.00000000E+00
  1.60000000E+01  1.00800000E+00  1.00800000E+00  0.00000000E+00  1.60000000E+01
  1.00800000E+00  1.00800000E+00  0.00000000E+00  1.60000000E+01  1.00800000E+00
  1.00800000E+00  0.00000000E+00  1.60000000E+01  1.00800000E+00  1.00800000E+00
  0.00000000E+00  1.60000000E+01  1.00800000E+00  1.00800000E+00  0.00000000E+00
  1.60000000E+01  1.00800000E+00  1.00800000E+00  0.00000000E+00  1.60000000E+01
  1.00800000E+00  1.00800000E+00  0.00000000E+00  1.60000000E+01  1.00800000E+00
  1.00800000E+00  0.00000000E+00  1.60000000E+01  1.00800000E+00  1.00800000E+00
  0.00000000E+00  1.60000000E+01  1.00800000E+00  1.00800000E+00  0.00000000E+00
  1.60000000E+01  1.00800000E+00  1.00800000E+00  0.00000000E+00  1.60000000E+01
  1.00800000E+00  1.00800000E+00  0.00000000E+00  1.60000000E+01  1.00800000E+00
  1.00800000E+00  0.00000000E+00  1.60000000E+01  1.00800000E+00  1.00800000E+00
  0.00000000E+00  1.60000000E+01  1.00800000E+00  1.00800000E+00  0.00000000E+00
  1.60000000E+01  1.00800000E+00  1.00800000E+00  0.00000000E+00  1.60000000E+01
  1.00800000E+00  1.00800000E+00  0.00000000E+00  1.60000000E+01  1.00800000E+00
  1.00800000E+00  0.00000000E+00  1.60000000E+01  1.00800000E+00  1.00800000E+00
  0.00000000E+00  1.60000000E+01  1.00800000E+00  1.00800000E+00  0.00000000E+00
  1.60000000E+01  1.00800000E+00  1.00800000E+00  0.00000000E+00  1.60000000E+01
  1.00800000E+00  1.00800000E+00  0.00000000E+00  1.60000000E+01  1.00800000E+00
  1.00800000E+00  0.00000000E+00  1.60000000E+01  1.00800000E+00  1.00800000E+00
  0.00000000E+00  1.60000000E+01  1.00800000E+00  1.00800000E+00  0.00000000E+00
  1.60000000E+01  1.00800000E+00  1.00800000E+00  0.00000000E+00  1.60000000E+01
  1.00800000E+00  1.00800000E+00  0.00000000E+00  1.60000000E+01  1.00800000E+00
  1.00800000E+00  0.00000000E+00  1.60000000E+01  1.00800000E+00  1.00800000E+00
  0.00000000E+00  1.60000000E+01  1.00800000E+00  1.00800000E+00  0.00000000E+00
  1.60000000E+01  1.00800000E+00  1.00800000E+00  0.00000000E+00  1.60000000E+01
  1.00800000E+00  1.00800000E+00  0.00000000E+00  1.60000000E+01  1.00800000E+00
  1.00800000E+00  0.00000000E+00  1.60000000E+01  1.00800000E+00  1.00800000E+00
  0.00000000E+00  1.60000000E+01  1.00800000E+00  1.00800000E+00  0.00000000E+00
  1.60000000E+01  1.00800000E+00  1.00800000E+00  0.00000000E+00  1.60000000E+01
  1.00800000E+00  1.00800000E+00  0.00000000E+00  1.60000000E+01  1.00800000E+00
  1.00800000E+00  0.00000000E+00  1.60000000E+01  1.00800000E+00  1.00800000E+00
  0.00000000E+00  1.60000000E+01  1.00800000E+00  1.00800000E+00  0.00000000E+00
  1.60000000E+01  1.00800000E+00  1.00800000E+00  0.00000000E+00  1.60000000E+01
  1.00800000E+00  1.00800000E+00  0.00000000E+00  1.60000000E+01  1.00800000E+00
  1.00800000E+00  0.00000000E+00  1.60000000E+01  1.00800000E+00  1.00800000E+00
  0.00000000E+00  1.60000000E+01  1.00800000E+00  1.00800000E+00  0.00000000E+00
  1.60000000E+01  1.00800000E+00  1.00800000E+00  0.00000000E+00  1.60000000E+01
  1.00800000E+00  1.00800000E+00  0.00000000E+00  1.60000000E+01  1.00800000E+00
  1.00800000E+00  0.00000000E+00  1.60000000E+01  1.00800000E+00  1.00800000E+00
  0.00000000E+00  1.60000000E+01  1.00800000E+00  1.00800000E+00  0.00000000E+00
  1.60000000E+01  1.00800000E+00  1.00800000E+00  0.00000000E+00  1.60000000E+01
  1.00800000E+00  1.00800000E+00  0.00000000E+00  1.60000000E+01  1.00800000E+00
  1.00800000E+00  0.00000000E+00  1.60000000E+01  1.00800000E+00  1.00800000E+00
  0.00000000E+00  1.60000000E+01  1.00800000E+00  1.00800000E+00  0.00000000E+00
  1.60000000E+01  1.00800000E+00  1.00800000E+00  0.00000000E+00  1.60000000E+01
  1.00800000E+00  1.00800000E+00  0.00000000E+00  1.60000000E+01  1.00800000E+00
  1.00800000E+00  0.00000000E+00  1.60000000E+01  1.00800000E+00  1.00800000E+00
  0.00000000E+00  1.60000000E+01  1.00800000E+00  1.00800000E+00  0.00000000E+00
  1.60000000E+01  1.00800000E+00  1.00800000E+00  0.00000000E+00  1.60000000E+01
  1.00800000E+00  1.00800000E+00  0.00000000E+00  1.60000000E+01  1.00800000E+00
  1.00800000E+00  0.00000000E+00  1.60000000E+01  1.00800000E+00  1.00800000E+00
  0.00000000E+00  1.60000000E+01  1.00800000E+00  1.00800000E+00  0.00000000E+00
  1.60000000E+01  1.00800000E+00  1.00800000E+00  0.00000000E+00  1.60000000E+01
  1.00800000E+00  1.00800000E+00  0.00000000E+00  1.60000000E+01  1.00800000E+00
  1.00800000E+00  0.00000000E+00  1.60000000E+01  1.00800000E+00  1.00800000E+00
  0.00000000E+00  1.60000000E+01  1.00800000E+00  1.00800000E+00  0.00000000E+00
  1.60000000E+01  1.00800000E+00  1.00800000E+00  0.00000000E+00  1.60000000E+01
  1.00800000E+00  1.00800000E+00  0.00000000E+00  1.60000000E+01  1.00800000E+00
  1.00800000E+00  0.00000000E+00  1.60000000E+01  1.00800000E+00  1.00800000E+00
  0.00000000E+00  1.60000000E+01  1.00800000E+00  1.00800000E+00  0.00000000E+00
  1.60000000E+01  1.00800000E+00  1.00800000E+00  0.00000000E+00  1.60000000E+01
  1.00800000E+00  1.00800000E+00  0.00000000E+00  1.60000000E+01  1.00800000E+00
  1.00800000E+00  0.00000000E+00  1.60000000E+01  1.00800000E+00  1.00800000E+00
  0.00000000E+00  1.60000000E+01  1.00800000E+00  1.00800000E+00  0.00000000E+00
  1.60000000E+01  1.00800000E+00  1.00800000E+00  0.00000000E+00  1.60000000E+01
  1.00800000E+00  1.00800000E+00  0.00000000E+00  1.60000000E+01  1.00800000E+00
  1.00800000E+00  0.00000000E+00  1.60000000E+01  1.00800000E+00  1.00800000E+00
  0.00000000E+00  1.60000000E+01  1.00800000E+00  1.00800000E+00  0.00000000E+00
  1.60000000E+01  1.00800000E+00  1.00800000E+00  0.00000000E+00  1.60000000E+01
  1.00800000E+00  1.00800000E+00  0.00000000E+00  1.60000000E+01  1.00800000E+00
  1.00800000E+00  0.00000000E+00  1.60000000E+01  1.00800000E+00  1.00800000E+00
  0.00000000E+00  1.60000000E+01  1.00800000E+00  1.00800000E+00  0.00000000E+00
  1.60000000E+01  1.00800000E+00  1.00800000E+00  0.00000000E+00  1.60000000E+01
  1.00800000E+00  1.00800000E+00  0.00000000E+00  1.60000000E+01  1.00800000E+00
  1.00800000E+00  0.00000000E+00  1.60000000E+01  1.00800000E+00  1.00800000E+00
  0.00000000E+00  1.60000000E+01  1.00800000E+00  1.00800000E+00  0.00000000E+00
  1.60000000E+01  1.00800000E+00  1.00800000E+00  0.00000000E+00  1.60000000E+01
  1.00800000E+00  1.00800000E+00  0.00000000E+00  1.60000000E+01  1.00800000E+00
  1.00800000E+00  0.00000000E+00  1.60000000E+01  1.00800000E+00  1.00800000E+00
  0.00000000E+00  1.60000000E+01  1.00800000E+00  1.00800000E+00  0.00000000E+00
  1.60000000E+01  1.00800000E+00  1.00800000E+00  0.00000000E+00  1.60000000E+01
  1.00800000E+00  1.00800000E+00  0.00000000E+00  1.60000000E+01  1.00800000E+00
  1.00800000E+00  0.00000000E+00  1.60000000E+01  1.00800000E+00  1.00800000E+00
  0.00000000E+00  1.60000000E+01  1.00800000E+00  1.00800000E+00  0.00000000E+00
  1.60000000E+01  1.00800000E+00  1.00800000E+00  0.00000000E+00  1.60000000E+01
  1.00800000E+00  1.00800000E+00  0.00000000E+00  1.60000000E+01  1.00800000E+00
  1.00800000E+00  0.00000000E+00  1.60000000E+01  1.00800000E+00  1.00800000E+00
  0.00000000E+00  1.60000000E+01  1.00800000E+00  1.00800000E+00  0.00000000E+00
  1.60000000E+01  1.00800000E+00  1.00800000E+00  0.00000000E+00  1.60000000E+01
  1.00800000E+00  1.00800000E+00  0.00000000E+00  1.60000000E+01  1.00800000E+00
  1.00800000E+00  0.00000000E+00  1.60000000E+01  1.00800000E+00  1.00800000E+00
  0.00000000E+00  1.60000000E+01  1.00800000E+00  1.00800000E+00  0.00000000E+00
  1.60000000E+01  1.00800000E+00  1.00800000E+00  0.00000000E+00  1.60000000E+01
  1.00800000E+00  1.00800000E+00  0.00000000E+00  1.60000000E+01  1.00800000E+00
  1.00800000E+00  0.00000000E+00  1.60000000E+01  1.00800000E+00  1.00800000E+00
  0.00000000E+00  1.60000000E+01  1.00800000E+00  1.00800000E+00  0.00000000E+00
  1.60000000E+01  1.00800000E+00  1.00800000E+00  0.00000000E+00  1.60000000E+01
  1.00800000E+00  1.00800000E+00  0.00000000E+00  1.60000000E+01  1.00800000E+00
  1.00800000E+00  0.00000000E+00  1.60000000E+01  1.00800000E+00  1.00800000E+00
  0.00000000E+00  1.60000000E+01  1.00800000E+00  1.00800000E+00  0.00000000E+00
  1.60000000E+01  1.00800000E+00  1.00800000E+00  0.00000000E+00  1.60000000E+01
  1.00800000E+00  1.00800000E+00  0.00000000E+00  1.60000000E+01  1.00800000E+00
  1.00800000E+00  0.00000000E+00  1.60000000E+01  1.00800000E+00  1.00800000E+00
  0.00000000E+00  1.60000000E+01  1.00800000E+00  1.00800000E+00  0.00000000E+00
  1.60000000E+01  1.00800000E+00  1.00800000E+00  0.00000000E+00  1.60000000E+01
  1.00800000E+00  1.00800000E+00  0.00000000E+00  1.60000000E+01  1.00800000E+00
  1.00800000E+00  0.00000000E+00  1.60000000E+01  1.00800000E+00  1.00800000E+00
  0.00000000E+00  1.60000000E+01  1.00800000E+00  1.00800000E+00  0.00000000E+00
  1.60000000E+01  1.00800000E+00  1.00800000E+00  0.00000000E+00  1.60000000E+01
  1.00800000E+00  1.00800000E+00  0.00000000E+00  1.60000000E+01  1.00800000E+00
  1.00800000E+00  0.00000000E+00  1.60000000E+01  1.00800000E+00  1.00800000E+00
  0.00000000E+00  1.60000000E+01  1.00800000E+00  1.00800000E+00  0.00000000E+00
  1.60000000E+01  1.00800000E+00  1.00800000E+00  0.00000000E+00  1.60000000E+01
  1.00800000E+00  1.00800000E+00  0.00000000E+00  1.60000000E+01  1.00800000E+00
  1.00800000E+00  0.00000000E+00  1.60000000E+01  1.00800000E+00  1.00800000E+00
  0.00000000E+00  1.60000000E+01  1.00800000E+00  1.00800000E+00  0.00000000E+00
  1.60000000E+01  1.00800000E+00  1.00800000E+00  0.00000000E+00  1.60000000E+01
  1.00800000E+00  1.00800000E+00  0.00000000E+00  1.60000000E+01  1.00800000E+00
  1.00800000E+00  0.00000000E+00  1.60000000E+01  1.00800000E+00  1.00800000E+00
  0.00000000E+00  1.60000000E+01  1.00800000E+00  1.00800000E+00  0.00000000E+00
  1.60000000E+01  1.00800000E+00  1.00800000E+00  0.00000000E+00  1.60000000E+01
  1.00800000E+00  1.00800000E+00  0.00000000E+00  1.60000000E+01  1.00800000E+00
  1.00800000E+00  0.00000000E+00  1.60000000E+01  1.00800000E+00  1.00800000E+00
  0.00000000E+00  1.60000000E+01  1.00800000E+00  1.00800000E+00  0.00000000E+00
  1.60000000E+01  1.00800000E+00  1.00800000E+00  0.00000000E+00  1.60000000E+01
  1.00800000E+00  1.00800000E+00  0.00000000E+00  1.60000000E+01  1.00800000E+00
  1.00800000E+00  0.00000000E+00  1.60000000E+01  1.00800000E+00  1.00800000E+00
  0.00000000E+00  1.60000000E+01  1.00800000E+00  1.00800000E+00  0.00000000E+00
  1.60000000E+01  1.00800000E+00  1.00800000E+00  0.00000000E+00  1.60000000E+01
  1.00800000E+00  1.00800000E+00  0.00000000E+00  1.60000000E+01  1.00800000E+00
  1.00800000E+00  0.00000000E+00  1.60000000E+01  1.00800000E+00  1.00800000E+00
  0.00000000E+00  1.60000000E+01  1.00800000E+00  1.00800000E+00  0.00000000E+00
  1.60000000E+01  1.00800000E+00  1.00800000E+00  0.00000000E+00  1.60000000E+01
  1.00800000E+00  1.00800000E+00  0.00000000E+00  1.60000000E+01  1.00800000E+00
  1.00800000E+00  0.00000000E+00  1.60000000E+01  1.00800000E+00  1.00800000E+00
  0.00000000E+00  1.60000000E+01  1.00800000E+00  1.00800000E+00  0.00000000E+00
  1.60000000E+01  1.00800000E+00  1.00800000E+00  0.00000000E+00  1.60000000E+01
  1.00800000E+00  1.00800000E+00  0.00000000E+00  1.60000000E+01  1.00800000E+00
  1.00800000E+00  0.00000000E+00  1.60000000E+01  1.00800000E+00  1.00800000E+00
  0.00000000E+00  1.60000000E+01  1.00800000E+00  1.00800000E+00  0.00000000E+00
  1.60000000E+01  1.00800000E+00  1.00800000E+00  0.00000000E+00  1.60000000E+01
  1.00800000E+00  1.00800000E+00  0.00000000E+00  1.60000000E+01  1.00800000E+00
  1.00800000E+00  0.00000000E+00  1.60000000E+01  1.00800000E+00  1.00800000E+00
  0.00000000E+00  1.60000000E+01  1.00800000E+00  1.00800000E+00  0.00000000E+00
  1.60000000E+01  1.00800000E+00  1.00800000E+00  0.00000000E+00  1.60000000E+01
  1.00800000E+00  1.00800000E+00  0.00000000E+00  1.60000000E+01  1.00800000E+00
  1.00800000E+00  0.00000000E+00  1.60000000E+01  1.00800000E+00  1.00800000E+00
  0.00000000E+00  1.60000000E+01  1.00800000E+00  1.00800000E+00  0.00000000E+00
  1.60000000E+01  1.00800000E+00  1.00800000E+00  0.00000000E+00  1.60000000E+01
  1.00800000E+00  1.00800000E+00  0.00000000E+00  1.60000000E+01  1.00800000E+00
  1.00800000E+00  0.00000000E+00  1.60000000E+01  1.00800000E+00  1.00800000E+00
  0.00000000E+00  1.60000000E+01  1.00800000E+00  1.00800000E+00  0.00000000E+00
  1.60000000E+01  1.00800000E+00  1.00800000E+00  0.00000000E+00  1.60000000E+01
  1.00800000E+00  1.00800000E+00  0.00000000E+00  1.60000000E+01  1.00800000E+00
  1.00800000E+00  0.00000000E+00  1.60000000E+01  1.00800000E+00  1.00800000E+00
  0.00000000E+00  1.60000000E+01  1.00800000E+00  1.00800000E+00  0.00000000E+00
  1.60000000E+01  1.00800000E+00  1.00800000E+00  0.00000000E+00  1.60000000E+01
  1.00800000E+00  1.00800000E+00  0.00000000E+00  1.60000000E+01  1.00800000E+00
  1.00800000E+00  0.00000000E+00  1.60000000E+01  1.00800000E+00  1.00800000E+00
  0.00000000E+00  1.60000000E+01  1.00800000E+00  1.00800000E+00  0.00000000E+00
  1.60000000E+01  1.00800000E+00  1.00800000E+00  0.00000000E+00  1.60000000E+01
  1.00800000E+00  1.00800000E+00  0.00000000E+00  1.60000000E+01  1.00800000E+00
  1.00800000E+00  0.00000000E+00  1.60000000E+01  1.00800000E+00  1.00800000E+00
  0.00000000E+00  1.60000000E+01  1.00800000E+00  1.00800000E+00  0.00000000E+00
  1.60000000E+01  1.00800000E+00  1.00800000E+00  0.00000000E+00  1.60000000E+01
  1.00800000E+00  1.00800000E+00  0.00000000E+00  1.60000000E+01  1.00800000E+00
  1.00800000E+00  0.00000000E+00  1.60000000E+01  1.00800000E+00  1.00800000E+00
  0.00000000E+00  1.60000000E+01  1.00800000E+00  1.00800000E+00  0.00000000E+00
  1.60000000E+01  1.00800000E+00  1.00800000E+00  0.00000000E+00  1.60000000E+01
  1.00800000E+00  1.00800000E+00  0.00000000E+00  1.60000000E+01  1.00800000E+00
  1.00800000E+00  0.00000000E+00  1.60000000E+01  1.00800000E+00  1.00800000E+00
  0.00000000E+00  1.60000000E+01  1.00800000E+00  1.00800000E+00  0.00000000E+00
  1.60000000E+01  1.00800000E+00  1.00800000E+00  0.00000000E+00  1.60000000E+01
  1.00800000E+00  1.00800000E+00  0.00000000E+00  1.60000000E+01  1.00800000E+00
  1.00800000E+00  0.00000000E+00  1.60000000E+01  1.00800000E+00  1.00800000E+00
  0.00000000E+00  1.60000000E+01  1.00800000E+00  1.00800000E+00  0.00000000E+00
  1.60000000E+01  1.00800000E+00  1.00800000E+00  0.00000000E+00  1.60000000E+01
  1.00800000E+00  1.00800000E+00  0.00000000E+00  1.60000000E+01  1.00800000E+00
  1.00800000E+00  0.00000000E+00  1.60000000E+01  1.00800000E+00  1.00800000E+00
  0.00000000E+00  1.60000000E+01  1.00800000E+00  1.00800000E+00  0.00000000E+00
  1.60000000E+01  1.00800000E+00  1.00800000E+00  0.00000000E+00  1.60000000E+01
  1.00800000E+00  1.00800000E+00  0.00000000E+00  1.60000000E+01  1.00800000E+00
  1.00800000E+00  0.00000000E+00  1.60000000E+01  1.00800000E+00  1.00800000E+00
  0.00000000E+00  1.60000000E+01  1.00800000E+00  1.00800000E+00  0.00000000E+00
  1.60000000E+01  1.00800000E+00  1.00800000E+00  0.00000000E+00  1.60000000E+01
  1.00800000E+00  1.00800000E+00  0.00000000E+00  1.60000000E+01  1.00800000E+00
  1.00800000E+00  0.00000000E+00  1.60000000E+01  1.00800000E+00  1.00800000E+00
  0.00000000E+00  1.60000000E+01  1.00800000E+00  1.00800000E+00  0.00000000E+00
  1.60000000E+01  1.00800000E+00  1.00800000E+00  0.00000000E+00  1.60000000E+01
  1.00800000E+00  1.00800000E+00  0.00000000E+00  1.60000000E+01  1.00800000E+00
  1.00800000E+00  0.00000000E+00  1.60000000E+01  1.00800000E+00  1.00800000E+00
  0.00000000E+00  1.60000000E+01  1.00800000E+00  1.00800000E+00  0.00000000E+00
  1.60000000E+01  1.00800000E+00  1.00800000E+00  0.00000000E+00  1.60000000E+01
  1.00800000E+00  1.00800000E+00  0.00000000E+00  1.60000000E+01  1.00800000E+00
  1.00800000E+00  0.00000000E+00  1.60000000E+01  1.00800000E+00  1.00800000E+00
  0.00000000E+00  1.60000000E+01  1.00800000E+00  1.00800000E+00  0.00000000E+00
  1.60000000E+01  1.00800000E+00  1.00800000E+00  0.00000000E+00  1.60000000E+01
  1.00800000E+00  1.00800000E+00  0.00000000E+00  1.60000000E+01  1.00800000E+00
  1.00800000E+00  0.00000000E+00  1.60000000E+01  1.00800000E+00  1.00800000E+00
  0.00000000E+00  1.60000000E+01  1.00800000E+00  1.00800000E+00  0.00000000E+00
  1.60000000E+01  1.00800000E+00  1.00800000E+00  0.00000000E+00  1.60000000E+01
  1.00800000E+00  1.00800000E+00  0.00000000E+00  1.60000000E+01  1.00800000E+00
  1.00800000E+00  0.00000000E+00  1.60000000E+01  1.00800000E+00  1.00800000E+00
  0.00000000E+00  1.60000000E+01  1.00800000E+00  1.00800000E+00  0.00000000E+00
  1.60000000E+01  1.00800000E+00  1.00800000E+00  0.00000000E+00  1.60000000E+01
  1.00800000E+00  1.00800000E+00  0.00000000E+00  1.60000000E+01  1.00800000E+00
  1.00800000E+00  0.00000000E+00  1.60000000E+01  1.00800000E+00  1.00800000E+00
  0.00000000E+00  1.60000000E+01  1.00800000E+00  1.00800000E+00  0.00000000E+00
  1.60000000E+01  1.00800000E+00  1.00800000E+00  0.00000000E+00  1.60000000E+01
  1.00800000E+00  1.00800000E+00  0.00000000E+00  1.60000000E+01  1.00800000E+00
  1.00800000E+00  0.00000000E+00  1.60000000E+01  1.00800000E+00  1.00800000E+00
  0.00000000E+00  1.60000000E+01  1.00800000E+00  1.00800000E+00  0.00000000E+00
  1.60000000E+01  1.00800000E+00  1.00800000E+00  0.00000000E+00  1.60000000E+01
  1.00800000E+00  1.00800000E+00  0.00000000E+00  1.60000000E+01  1.00800000E+00
  1.00800000E+00  0.00000000E+00  1.60000000E+01  1.00800000E+00  1.00800000E+00
  0.00000000E+00  1.60000000E+01  1.00800000E+00  1.00800000E+00  0.00000000E+00
  1.60000000E+01  1.00800000E+00  1.00800000E+00  0.00000000E+00  1.60000000E+01
  1.00800000E+00  1.00800000E+00  0.00000000E+00  1.60000000E+01  1.00800000E+00
  1.00800000E+00  0.00000000E+00  1.60000000E+01  1.00800000E+00  1.00800000E+00
  0.00000000E+00  1.60000000E+01  1.00800000E+00  1.00800000E+00  0.00000000E+00
  1.60000000E+01  1.00800000E+00  1.00800000E+00  0.00000000E+00  1.60000000E+01
  1.00800000E+00  1.00800000E+00  0.00000000E+00  1.60000000E+01  1.00800000E+00
  1.00800000E+00  0.00000000E+00  1.60000000E+01  1.00800000E+00  1.00800000E+00
  0.00000000E+00  1.60000000E+01  1.00800000E+00  1.00800000E+00  0.00000000E+00
  1.60000000E+01  1.00800000E+00  1.00800000E+00  0.00000000E+00  1.60000000E+01
  1.00800000E+00  1.00800000E+00  0.00000000E+00  1.60000000E+01  1.00800000E+00
  1.00800000E+00  0.00000000E+00  1.60000000E+01  1.00800000E+00  1.00800000E+00
  0.00000000E+00  1.60000000E+01  1.00800000E+00  1.00800000E+00  0.00000000E+00
  1.60000000E+01  1.00800000E+00  1.00800000E+00  0.00000000E+00  1.60000000E+01
  1.00800000E+00  1.00800000E+00  0.00000000E+00  1.60000000E+01  1.00800000E+00
  1.00800000E+00  0.00000000E+00  1.60000000E+01  1.00800000E+00  1.00800000E+00
  0.00000000E+00  1.60000000E+01  1.00800000E+00  1.00800000E+00  0.00000000E+00
  1.60000000E+01  1.00800000E+00  1.00800000E+00  0.00000000E+00  1.60000000E+01
  1.00800000E+00  1.00800000E+00  0.00000000E+00  1.60000000E+01  1.00800000E+00
  1.00800000E+00  0.00000000E+00  1.60000000E+01  1.00800000E+00  1.00800000E+00
  0.00000000E+00  1.60000000E+01  1.00800000E+00  1.00800000E+00  0.00000000E+00
  1.60000000E+01  1.00800000E+00  1.00800000E+00  0.00000000E+00  1.60000000E+01
  1.00800000E+00  1.00800000E+00  0.00000000E+00  1.60000000E+01  1.00800000E+00
  1.00800000E+00  0.00000000E+00  1.60000000E+01  1.00800000E+00  1.00800000E+00
  0.00000000E+00  1.60000000E+01  1.00800000E+00  1.00800000E+00  0.00000000E+00
  1.60000000E+01  1.00800000E+00  1.00800000E+00  0.00000000E+00  1.60000000E+01
  1.00800000E+00  1.00800000E+00  0.00000000E+00  1.60000000E+01  1.00800000E+00
  1.00800000E+00  0.00000000E+00  1.60000000E+01  1.00800000E+00  1.00800000E+00
  0.00000000E+00  1.60000000E+01  1.00800000E+00  1.00800000E+00  0.00000000E+00
  1.60000000E+01  1.00800000E+00  1.00800000E+00  0.00000000E+00  1.60000000E+01
  1.00800000E+00  1.00800000E+00  0.00000000E+00  1.60000000E+01  1.00800000E+00
  1.00800000E+00  0.00000000E+00  1.60000000E+01  1.00800000E+00  1.00800000E+00
  0.00000000E+00  1.60000000E+01  1.00800000E+00  1.00800000E+00  0.00000000E+00
  1.60000000E+01  1.00800000E+00  1.00800000E+00  0.00000000E+00  1.60000000E+01
  1.00800000E+00  1.00800000E+00  0.00000000E+00  1.60000000E+01  1.00800000E+00
  1.00800000E+00  0.00000000E+00  1.60000000E+01  1.00800000E+00  1.00800000E+00
  0.00000000E+00  1.60000000E+01  1.00800000E+00  1.00800000E+00  0.00000000E+00
  1.60000000E+01  1.00800000E+00  1.00800000E+00  0.00000000E+00  1.60000000E+01
  1.00800000E+00  1.00800000E+00  0.00000000E+00  1.60000000E+01  1.00800000E+00
  1.00800000E+00  0.00000000E+00  1.60000000E+01  1.00800000E+00  1.00800000E+00
  0.00000000E+00  1.60000000E+01  1.00800000E+00  1.00800000E+00  0.00000000E+00
  1.60000000E+01  1.00800000E+00  1.00800000E+00  0.00000000E+00  1.60000000E+01
  1.00800000E+00  1.00800000E+00  0.00000000E+00  1.60000000E+01  1.00800000E+00
  1.00800000E+00  0.00000000E+00  1.60000000E+01  1.00800000E+00  1.00800000E+00
  0.00000000E+00  1.60000000E+01  1.00800000E+00  1.00800000E+00  0.00000000E+00
  1.60000000E+01  1.00800000E+00  1.00800000E+00  0.00000000E+00  1.60000000E+01
  1.00800000E+00  1.00800000E+00  0.00000000E+00  1.60000000E+01  1.00800000E+00
  1.00800000E+00  0.00000000E+00  1.60000000E+01  1.00800000E+00  1.00800000E+00
  0.00000000E+00  1.60000000E+01  1.00800000E+00  1.00800000E+00  0.00000000E+00
  1.60000000E+01  1.00800000E+00  1.00800000E+00  0.00000000E+00  1.60000000E+01
  1.00800000E+00  1.00800000E+00  0.00000000E+00  1.60000000E+01  1.00800000E+00
  1.00800000E+00  0.00000000E+00  1.60000000E+01  1.00800000E+00  1.00800000E+00
  0.00000000E+00  1.60000000E+01  1.00800000E+00  1.00800000E+00  0.00000000E+00
  1.60000000E+01  1.00800000E+00  1.00800000E+00  0.00000000E+00  1.60000000E+01
  1.00800000E+00  1.00800000E+00  0.00000000E+00  1.60000000E+01  1.00800000E+00
  1.00800000E+00  0.00000000E+00  1.60000000E+01  1.00800000E+00  1.00800000E+00
  0.00000000E+00  1.60000000E+01  1.00800000E+00  1.00800000E+00  0.00000000E+00
  1.60000000E+01  1.00800000E+00  1.00800000E+00  0.00000000E+00  1.60000000E+01
  1.00800000E+00  1.00800000E+00  0.00000000E+00  1.60000000E+01  1.00800000E+00
  1.00800000E+00  0.00000000E+00  1.60000000E+01  1.00800000E+00  1.00800000E+00
  0.00000000E+00  1.60000000E+01  1.00800000E+00  1.00800000E+00  0.00000000E+00
  1.60000000E+01  1.00800000E+00  1.00800000E+00  0.00000000E+00  1.60000000E+01
  1.00800000E+00  1.00800000E+00  0.00000000E+00  1.60000000E+01  1.00800000E+00
  1.00800000E+00  0.00000000E+00  1.60000000E+01  1.00800000E+00  1.00800000E+00
  0.00000000E+00  1.60000000E+01  1.00800000E+00  1.00800000E+00  0.00000000E+00
  1.60000000E+01  1.00800000E+00  1.00800000E+00  0.00000000E+00  1.60000000E+01
  1.00800000E+00  1.00800000E+00  0.00000000E+00  1.60000000E+01  1.00800000E+00
  1.00800000E+00  0.00000000E+00  1.60000000E+01  1.00800000E+00  1.00800000E+00
  0.00000000E+00  1.60000000E+01  1.00800000E+00  1.00800000E+00  0.00000000E+00
  1.60000000E+01  1.00800000E+00  1.00800000E+00  0.00000000E+00  1.60000000E+01
  1.00800000E+00  1.00800000E+00  0.00000000E+00  1.60000000E+01  1.00800000E+00
  1.00800000E+00  0.00000000E+00  1.60000000E+01  1.00800000E+00  1.00800000E+00
  0.00000000E+00  1.60000000E+01  1.00800000E+00  1.00800000E+00  0.00000000E+00
  1.60000000E+01  1.00800000E+00  1.00800000E+00  0.00000000E+00  1.60000000E+01
  1.00800000E+00  1.00800000E+00  0.00000000E+00  1.60000000E+01  1.00800000E+00
  1.00800000E+00  0.00000000E+00  1.60000000E+01  1.00800000E+00  1.00800000E+00
  0.00000000E+00  1.60000000E+01  1.00800000E+00  1.00800000E+00  0.00000000E+00
  1.60000000E+01  1.00800000E+00  1.00800000E+00  0.00000000E+00  1.60000000E+01
  1.00800000E+00  1.00800000E+00  0.00000000E+00  1.60000000E+01  1.00800000E+00
  1.00800000E+00  0.00000000E+00  1.60000000E+01  1.00800000E+00  1.00800000E+00
  0.00000000E+00  1.60000000E+01  1.00800000E+00  1.00800000E+00  0.00000000E+00
  1.60000000E+01  1.00800000E+00  1.00800000E+00  0.00000000E+00  1.60000000E+01
  1.00800000E+00  1.00800000E+00  0.00000000E+00  1.60000000E+01  1.00800000E+00
  1.00800000E+00  0.00000000E+00  1.60000000E+01  1.00800000E+00  1.00800000E+00
  0.00000000E+00  1.60000000E+01  1.00800000E+00  1.00800000E+00  0.00000000E+00
  1.60000000E+01  1.00800000E+00  1.00800000E+00  0.00000000E+00  1.60000000E+01
  1.00800000E+00  1.00800000E+00  0.00000000E+00  1.60000000E+01  1.00800000E+00
  1.00800000E+00  0.00000000E+00  1.60000000E+01  1.00800000E+00  1.00800000E+00
  0.00000000E+00  1.60000000E+01  1.00800000E+00  1.00800000E+00  0.00000000E+00
  1.60000000E+01  1.00800000E+00  1.00800000E+00  0.00000000E+00  1.60000000E+01
  1.00800000E+00  1.00800000E+00  0.00000000E+00  1.60000000E+01  1.00800000E+00
  1.00800000E+00  0.00000000E+00  1.60000000E+01  1.00800000E+00  1.00800000E+00
  0.00000000E+00  1.60000000E+01  1.00800000E+00  1.00800000E+00  0.00000000E+00
  1.60000000E+01  1.00800000E+00  1.00800000E+00  0.00000000E+00  1.60000000E+01
  1.00800000E+00  1.00800000E+00  0.00000000E+00  1.60000000E+01  1.00800000E+00
  1.00800000E+00  0.00000000E+00  1.60000000E+01  1.00800000E+00  1.00800000E+00
  0.00000000E+00  1.60000000E+01  1.00800000E+00  1.00800000E+00  0.00000000E+00
  1.60000000E+01  1.00800000E+00  1.00800000E+00  0.00000000E+00  1.60000000E+01
  1.00800000E+00  1.00800000E+00  0.00000000E+00  1.60000000E+01  1.00800000E+00
  1.00800000E+00  0.00000000E+00  1.60000000E+01  1.00800000E+00  1.00800000E+00
  0.00000000E+00  1.60000000E+01  1.00800000E+00  1.00800000E+00  0.00000000E+00
  1.60000000E+01  1.00800000E+00  1.00800000E+00  0.00000000E+00  1.60000000E+01
  1.00800000E+00  1.00800000E+00  0.00000000E+00  1.60000000E+01  1.00800000E+00
  1.00800000E+00  0.00000000E+00  1.60000000E+01  1.00800000E+00  1.00800000E+00
  0.00000000E+00  1.60000000E+01  1.00800000E+00  1.00800000E+00  0.00000000E+00
  1.60000000E+01  1.00800000E+00  1.00800000E+00  0.00000000E+00  1.60000000E+01
  1.00800000E+00  1.00800000E+00  0.00000000E+00  1.60000000E+01  1.00800000E+00
  1.00800000E+00  0.00000000E+00  1.60000000E+01  1.00800000E+00  1.00800000E+00
  0.00000000E+00  1.60000000E+01  1.00800000E+00  1.00800000E+00  0.00000000E+00
  1.60000000E+01  1.00800000E+00  1.00800000E+00  0.00000000E+00  1.60000000E+01
  1.00800000E+00  1.00800000E+00  0.00000000E+00  1.60000000E+01  1.00800000E+00
  1.00800000E+00  0.00000000E+00  1.60000000E+01  1.00800000E+00  1.00800000E+00
  0.00000000E+00  1.60000000E+01  1.00800000E+00  1.00800000E+00  0.00000000E+00
  1.60000000E+01  1.00800000E+00  1.00800000E+00  0.00000000E+00  1.60000000E+01
  1.00800000E+00  1.00800000E+00  0.00000000E+00  1.60000000E+01  1.00800000E+00
  1.00800000E+00  0.00000000E+00  1.60000000E+01  1.00800000E+00  1.00800000E+00
  0.00000000E+00  1.60000000E+01  1.00800000E+00  1.00800000E+00  0.00000000E+00
  1.60000000E+01  1.00800000E+00  1.00800000E+00  0.00000000E+00  1.60000000E+01
  1.00800000E+00  1.00800000E+00  0.00000000E+00  1.60000000E+01  1.00800000E+00
  1.00800000E+00  0.00000000E+00  1.60000000E+01  1.00800000E+00  1.00800000E+00
  0.00000000E+00  1.60000000E+01  1.00800000E+00  1.00800000E+00  0.00000000E+00
  1.60000000E+01  1.00800000E+00  1.00800000E+00  0.00000000E+00  1.60000000E+01
  1.00800000E+00  1.00800000E+00  0.00000000E+00  1.60000000E+01  1.00800000E+00
  1.00800000E+00  0.00000000E+00  1.60000000E+01  1.00800000E+00  1.00800000E+00
  0.00000000E+00  1.60000000E+01  1.00800000E+00  1.00800000E+00  0.00000000E+00
  1.60000000E+01  1.00800000E+00  1.00800000E+00  0.00000000E+00  1.60000000E+01
  1.00800000E+00  1.00800000E+00  0.00000000E+00  1.60000000E+01  1.00800000E+00
  1.00800000E+00  0.00000000E+00  1.60000000E+01  1.00800000E+00  1.00800000E+00
  0.00000000E+00  1.60000000E+01  1.00800000E+00  1.00800000E+00  0.00000000E+00
  1.60000000E+01  1.00800000E+00  1.00800000E+00  0.00000000E+00  1.60000000E+01
  1.00800000E+00  1.00800000E+00  0.00000000E+00  1.60000000E+01  1.00800000E+00
  1.00800000E+00  0.00000000E+00  1.60000000E+01  1.00800000E+00  1.00800000E+00
  0.00000000E+00  1.60000000E+01  1.00800000E+00  1.00800000E+00  0.00000000E+00
  1.60000000E+01  1.00800000E+00  1.00800000E+00  0.00000000E+00  1.60000000E+01
  1.00800000E+00  1.00800000E+00  0.00000000E+00  1.60000000E+01  1.00800000E+00
  1.00800000E+00  0.00000000E+00  1.60000000E+01  1.00800000E+00  1.00800000E+00
  0.00000000E+00  1.60000000E+01  1.00800000E+00  1.00800000E+00  0.00000000E+00
  1.60000000E+01  1.00800000E+00  1.00800000E+00  0.00000000E+00  1.60000000E+01
  1.00800000E+00  1.00800000E+00  0.00000000E+00  1.60000000E+01  1.00800000E+00
  1.00800000E+00  0.00000000E+00  1.60000000E+01  1.00800000E+00  1.00800000E+00
  0.00000000E+00  1.60000000E+01  1.00800000E+00  1.00800000E+00  0.00000000E+00
  1.60000000E+01  1.00800000E+00  1.00800000E+00  0.00000000E+00  1.60000000E+01
  1.00800000E+00  1.00800000E+00  0.00000000E+00  1.60000000E+01  1.00800000E+00
  1.00800000E+00  0.00000000E+00  1.60000000E+01  1.00800000E+00  1.00800000E+00
  0.00000000E+00  1.60000000E+01  1.00800000E+00  1.00800000E+00  0.00000000E+00
  1.60000000E+01  1.00800000E+00  1.00800000E+00  0.00000000E+00  1.60000000E+01
  1.00800000E+00  1.00800000E+00  0.00000000E+00  1.60000000E+01  1.00800000E+00
  1.00800000E+00  0.00000000E+00  1.60000000E+01  1.00800000E+00  1.00800000E+00
  0.00000000E+00  1.60000000E+01  1.00800000E+00  1.00800000E+00  0.00000000E+00
  1.60000000E+01  1.00800000E+00  1.00800000E+00  0.00000000E+00  1.60000000E+01
  1.00800000E+00  1.00800000E+00  0.00000000E+00  1.60000000E+01  1.00800000E+00
  1.00800000E+00  0.00000000E+00  1.60000000E+01  1.00800000E+00  1.00800000E+00
  0.00000000E+00  1.60000000E+01  1.00800000E+00  1.00800000E+00  0.00000000E+00
  1.60000000E+01  1.00800000E+00  1.00800000E+00  0.00000000E+00  1.60000000E+01
  1.00800000E+00  1.00800000E+00  0.00000000E+00  1.60000000E+01  1.00800000E+00
  1.00800000E+00  0.00000000E+00  1.60000000E+01  1.00800000E+00  1.00800000E+00
  0.00000000E+00  1.60000000E+01  1.00800000E+00  1.00800000E+00  0.00000000E+00
  1.60000000E+01  1.00800000E+00  1.00800000E+00  0.00000000E+00  1.60000000E+01
  1.00800000E+00  1.00800000E+00  0.00000000E+00  1.60000000E+01  1.00800000E+00
  1.00800000E+00  0.00000000E+00  1.60000000E+01  1.00800000E+00  1.00800000E+00
  0.00000000E+00  1.60000000E+01  1.00800000E+00  1.00800000E+00  0.00000000E+00
  1.60000000E+01  1.00800000E+00  1.00800000E+00  0.00000000E+00  1.60000000E+01
  1.00800000E+00  1.00800000E+00  0.00000000E+00  1.60000000E+01  1.00800000E+00
  1.00800000E+00  0.00000000E+00  1.60000000E+01  1.00800000E+00  1.00800000E+00
  0.00000000E+00  1.60000000E+01  1.00800000E+00  1.00800000E+00  0.00000000E+00
  1.60000000E+01  1.00800000E+00  1.00800000E+00  0.00000000E+00  1.60000000E+01
  1.00800000E+00  1.00800000E+00  0.00000000E+00  1.60000000E+01  1.00800000E+00
  1.00800000E+00  0.00000000E+00  1.60000000E+01  1.00800000E+00  1.00800000E+00
  0.00000000E+00  1.60000000E+01  1.00800000E+00  1.00800000E+00  0.00000000E+00
  1.60000000E+01  1.00800000E+00  1.00800000E+00  0.00000000E+00  1.60000000E+01
  1.00800000E+00  1.00800000E+00  0.00000000E+00  1.60000000E+01  1.00800000E+00
  1.00800000E+00  0.00000000E+00  1.60000000E+01  1.00800000E+00  1.00800000E+00
  0.00000000E+00  1.60000000E+01  1.00800000E+00  1.00800000E+00  0.00000000E+00
  1.60000000E+01  1.00800000E+00  1.00800000E+00  0.00000000E+00  1.60000000E+01
  1.00800000E+00  1.00800000E+00  0.00000000E+00  1.60000000E+01  1.00800000E+00
  1.00800000E+00  0.00000000E+00  1.60000000E+01  1.00800000E+00  1.00800000E+00
  0.00000000E+00  1.60000000E+01  1.00800000E+00  1.00800000E+00  0.00000000E+00
  1.60000000E+01  1.00800000E+00  1.00800000E+00  0.00000000E+00  1.60000000E+01
  1.00800000E+00  1.00800000E+00  0.00000000E+00  1.60000000E+01  1.00800000E+00
  1.00800000E+00  0.00000000E+00  1.60000000E+01  1.00800000E+00  1.00800000E+00
  0.00000000E+00  1.60000000E+01  1.00800000E+00  1.00800000E+00  0.00000000E+00
  1.60000000E+01  1.00800000E+00  1.00800000E+00  0.00000000E+00  1.60000000E+01
  1.00800000E+00  1.00800000E+00  0.00000000E+00  1.60000000E+01  1.00800000E+00
  1.00800000E+00  0.00000000E+00  1.60000000E+01  1.00800000E+00  1.00800000E+00
  0.00000000E+00  1.60000000E+01  1.00800000E+00  1.00800000E+00  0.00000000E+00
  1.60000000E+01  1.00800000E+00  1.00800000E+00  0.00000000E+00  1.60000000E+01
  1.00800000E+00  1.00800000E+00  0.00000000E+00  1.60000000E+01  1.00800000E+00
  1.00800000E+00  0.00000000E+00  1.60000000E+01  1.00800000E+00  1.00800000E+00
  0.00000000E+00  1.60000000E+01  1.00800000E+00  1.00800000E+00  0.00000000E+00
  1.60000000E+01  1.00800000E+00  1.00800000E+00  0.00000000E+00  1.60000000E+01
  1.00800000E+00  1.00800000E+00  0.00000000E+00  1.60000000E+01  1.00800000E+00
  1.00800000E+00  0.00000000E+00  1.60000000E+01  1.00800000E+00  1.00800000E+00
  0.00000000E+00  1.60000000E+01  1.00800000E+00  1.00800000E+00  0.00000000E+00
  1.60000000E+01  1.00800000E+00  1.00800000E+00  0.00000000E+00  1.60000000E+01
  1.00800000E+00  1.00800000E+00  0.00000000E+00  1.60000000E+01  1.00800000E+00
  1.00800000E+00  0.00000000E+00  1.60000000E+01  1.00800000E+00  1.00800000E+00
  0.00000000E+00  1.60000000E+01  1.00800000E+00  1.00800000E+00  0.00000000E+00
  1.60000000E+01  1.00800000E+00  1.00800000E+00  0.00000000E+00  1.60000000E+01
  1.00800000E+00  1.00800000E+00  0.00000000E+00  1.60000000E+01  1.00800000E+00
  1.00800000E+00  0.00000000E+00  1.60000000E+01  1.00800000E+00  1.00800000E+00
  0.00000000E+00  1.60000000E+01  1.00800000E+00  1.00800000E+00  0.00000000E+00
  1.60000000E+01  1.00800000E+00  1.00800000E+00  0.00000000E+00  1.60000000E+01
  1.00800000E+00  1.00800000E+00  0.00000000E+00  1.60000000E+01  1.00800000E+00
  1.00800000E+00  0.00000000E+00  1.60000000E+01  1.00800000E+00  1.00800000E+00
  0.00000000E+00  1.60000000E+01  1.00800000E+00  1.00800000E+00  0.00000000E+00
  1.60000000E+01  1.00800000E+00  1.00800000E+00  0.00000000E+00  1.60000000E+01
  1.00800000E+00  1.00800000E+00  0.00000000E+00  1.60000000E+01  1.00800000E+00
  1.00800000E+00  0.00000000E+00  1.60000000E+01  1.00800000E+00  1.00800000E+00
  0.00000000E+00  1.60000000E+01  1.00800000E+00  1.00800000E+00  0.00000000E+00
  1.60000000E+01  1.00800000E+00  1.00800000E+00  0.00000000E+00  1.60000000E+01
  1.00800000E+00  1.00800000E+00  0.00000000E+00  1.60000000E+01  1.00800000E+00
  1.00800000E+00  0.00000000E+00  1.60000000E+01  1.00800000E+00  1.00800000E+00
  0.00000000E+00  1.60000000E+01  1.00800000E+00  1.00800000E+00  0.00000000E+00
  1.60000000E+01  1.00800000E+00  1.00800000E+00  0.00000000E+00  1.60000000E+01
  1.00800000E+00  1.00800000E+00  0.00000000E+00  1.60000000E+01  1.00800000E+00
  1.00800000E+00  0.00000000E+00  1.60000000E+01  1.00800000E+00  1.00800000E+00
  0.00000000E+00  1.60000000E+01  1.00800000E+00  1.00800000E+00  0.00000000E+00
  1.60000000E+01  1.00800000E+00  1.00800000E+00  0.00000000E+00  1.60000000E+01
  1.00800000E+00  1.00800000E+00  0.00000000E+00  1.60000000E+01  1.00800000E+00
  1.00800000E+00  0.00000000E+00  1.60000000E+01  1.00800000E+00  1.00800000E+00
  0.00000000E+00  1.60000000E+01  1.00800000E+00  1.00800000E+00  0.00000000E+00
  1.60000000E+01  1.00800000E+00  1.00800000E+00  0.00000000E+00  1.60000000E+01
  1.00800000E+00  1.00800000E+00  0.00000000E+00  1.60000000E+01  1.00800000E+00
  1.00800000E+00  0.00000000E+00  1.60000000E+01  1.00800000E+00  1.00800000E+00
  0.00000000E+00  1.60000000E+01  1.00800000E+00  1.00800000E+00  0.00000000E+00
  1.60000000E+01  1.00800000E+00  1.00800000E+00  0.00000000E+00  1.60000000E+01
  1.00800000E+00  1.00800000E+00  0.00000000E+00  1.60000000E+01  1.00800000E+00
  1.00800000E+00  0.00000000E+00  1.60000000E+01  1.00800000E+00  1.00800000E+00
  0.00000000E+00  1.60000000E+01  1.00800000E+00  1.00800000E+00  0.00000000E+00
  1.60000000E+01  1.00800000E+00  1.00800000E+00  0.00000000E+00  1.60000000E+01
  1.00800000E+00  1.00800000E+00  0.00000000E+00  1.60000000E+01  1.00800000E+00
  1.00800000E+00  0.00000000E+00  1.60000000E+01  1.00800000E+00  1.00800000E+00
  0.00000000E+00  1.60000000E+01  1.00800000E+00  1.00800000E+00  0.00000000E+00
  1.60000000E+01  1.00800000E+00  1.00800000E+00  0.00000000E+00  1.60000000E+01
  1.00800000E+00  1.00800000E+00  0.00000000E+00  1.60000000E+01  1.00800000E+00
  1.00800000E+00  0.00000000E+00  1.60000000E+01  1.00800000E+00  1.00800000E+00
  0.00000000E+00  1.60000000E+01  1.00800000E+00  1.00800000E+00  0.00000000E+00
  1.60000000E+01  1.00800000E+00  1.00800000E+00  0.00000000E+00  1.60000000E+01
  1.00800000E+00  1.00800000E+00  0.00000000E+00  1.60000000E+01  1.00800000E+00
  1.00800000E+00  0.00000000E+00  1.60000000E+01  1.00800000E+00  1.00800000E+00
  0.00000000E+00  1.60000000E+01  1.00800000E+00  1.00800000E+00  0.00000000E+00
  1.60000000E+01  1.00800000E+00  1.00800000E+00  0.00000000E+00  1.60000000E+01
  1.00800000E+00  1.00800000E+00  0.00000000E+00  1.60000000E+01  1.00800000E+00
  1.00800000E+00  0.00000000E+00  1.60000000E+01  1.00800000E+00  1.00800000E+00
  0.00000000E+00  1.60000000E+01  1.00800000E+00  1.00800000E+00  0.00000000E+00
  1.60000000E+01  1.00800000E+00  1.00800000E+00  0.00000000E+00  1.60000000E+01
  1.00800000E+00  1.00800000E+00  0.00000000E+00  1.60000000E+01  1.00800000E+00
  1.00800000E+00  0.00000000E+00  1.60000000E+01  1.00800000E+00  1.00800000E+00
  0.00000000E+00  1.60000000E+01  1.00800000E+00  1.00800000E+00  0.00000000E+00
  1.60000000E+01  1.00800000E+00  1.00800000E+00  0.00000000E+00  1.60000000E+01
  1.00800000E+00  1.00800000E+00  0.00000000E+00  1.60000000E+01  1.00800000E+00
  1.00800000E+00  0.00000000E+00  1.60000000E+01  1.00800000E+00  1.00800000E+00
  0.00000000E+00  1.60000000E+01  1.00800000E+00  1.00800000E+00  0.00000000E+00
  1.60000000E+01  1.00800000E+00  1.00800000E+00  0.00000000E+00  1.60000000E+01
  1.00800000E+00  1.00800000E+00  0.00000000E+00  1.60000000E+01  1.00800000E+00
  1.00800000E+00  0.00000000E+00  1.60000000E+01  1.00800000E+00  1.00800000E+00
  0.00000000E+00  1.60000000E+01  1.00800000E+00  1.00800000E+00  0.00000000E+00
  1.60000000E+01  1.00800000E+00  1.00800000E+00  0.00000000E+00  1.60000000E+01
  1.00800000E+00  1.00800000E+00  0.00000000E+00  1.60000000E+01  1.00800000E+00
  1.00800000E+00  0.00000000E+00  1.60000000E+01  1.00800000E+00  1.00800000E+00
  0.00000000E+00  1.60000000E+01  1.00800000E+00  1.00800000E+00  0.00000000E+00
  1.60000000E+01  1.00800000E+00  1.00800000E+00  0.00000000E+00  1.60000000E+01
  1.00800000E+00  1.00800000E+00  0.00000000E+00  1.60000000E+01  1.00800000E+00
  1.00800000E+00  0.00000000E+00  1.60000000E+01  1.00800000E+00  1.00800000E+00
  0.00000000E+00  1.60000000E+01  1.00800000E+00  1.00800000E+00  0.00000000E+00
  1.60000000E+01  1.00800000E+00  1.00800000E+00  0.00000000E+00  1.60000000E+01
  1.00800000E+00  1.00800000E+00  0.00000000E+00  1.60000000E+01  1.00800000E+00
  1.00800000E+00  0.00000000E+00  1.60000000E+01  1.00800000E+00  1.00800000E+00
  0.00000000E+00  1.60000000E+01  1.00800000E+00  1.00800000E+00  0.00000000E+00
  1.60000000E+01  1.00800000E+00  1.00800000E+00  0.00000000E+00  1.60000000E+01
  1.00800000E+00  1.00800000E+00  0.00000000E+00  1.60000000E+01  1.00800000E+00
  1.00800000E+00  0.00000000E+00  1.60000000E+01  1.00800000E+00  1.00800000E+00
  0.00000000E+00  1.60000000E+01  1.00800000E+00  1.00800000E+00  0.00000000E+00
  1.60000000E+01  1.00800000E+00  1.00800000E+00  0.00000000E+00  1.60000000E+01
  1.00800000E+00  1.00800000E+00  0.00000000E+00  1.60000000E+01  1.00800000E+00
  1.00800000E+00  0.00000000E+00  1.60000000E+01  1.00800000E+00  1.00800000E+00
  0.00000000E+00  1.60000000E+01  1.00800000E+00  1.00800000E+00  0.00000000E+00
  1.60000000E+01  1.00800000E+00  1.00800000E+00  0.00000000E+00  1.60000000E+01
  1.00800000E+00  1.00800000E+00  0.00000000E+00  1.60000000E+01  1.00800000E+00
  1.00800000E+00  0.00000000E+00  1.60000000E+01  1.00800000E+00  1.00800000E+00
  0.00000000E+00  1.60000000E+01  1.00800000E+00  1.00800000E+00  0.00000000E+00
  1.60000000E+01  1.00800000E+00  1.00800000E+00  0.00000000E+00  1.60000000E+01
  1.00800000E+00  1.00800000E+00  0.00000000E+00  1.60000000E+01  1.00800000E+00
  1.00800000E+00  0.00000000E+00  1.60000000E+01  1.00800000E+00  1.00800000E+00
  0.00000000E+00  1.60000000E+01  1.00800000E+00  1.00800000E+00  0.00000000E+00
  1.60000000E+01  1.00800000E+00  1.00800000E+00  0.00000000E+00  1.60000000E+01
  1.00800000E+00  1.00800000E+00  0.00000000E+00  1.60000000E+01  1.00800000E+00
  1.00800000E+00  0.00000000E+00  1.60000000E+01  1.00800000E+00  1.00800000E+00
  0.00000000E+00  1.60000000E+01  1.00800000E+00  1.00800000E+00  0.00000000E+00
  1.60000000E+01  1.00800000E+00  1.00800000E+00  0.00000000E+00  1.60000000E+01
  1.00800000E+00  1.00800000E+00  0.00000000E+00  1.60000000E+01  1.00800000E+00
  1.00800000E+00  0.00000000E+00  1.60000000E+01  1.00800000E+00  1.00800000E+00
  0.00000000E+00  1.60000000E+01  1.00800000E+00  1.00800000E+00  0.00000000E+00
  1.60000000E+01  1.00800000E+00  1.00800000E+00  0.00000000E+00  1.60000000E+01
  1.00800000E+00  1.00800000E+00  0.00000000E+00  1.60000000E+01  1.00800000E+00
  1.00800000E+00  0.00000000E+00  1.60000000E+01  1.00800000E+00  1.00800000E+00
  0.00000000E+00  1.60000000E+01  1.00800000E+00  1.00800000E+00  0.00000000E+00
  1.60000000E+01  1.00800000E+00  1.00800000E+00  0.00000000E+00  1.60000000E+01
  1.00800000E+00  1.00800000E+00  0.00000000E+00  1.60000000E+01  1.00800000E+00
  1.00800000E+00  0.00000000E+00  1.60000000E+01  1.00800000E+00  1.00800000E+00
  0.00000000E+00  1.60000000E+01  1.00800000E+00  1.00800000E+00  0.00000000E+00
  1.60000000E+01  1.00800000E+00  1.00800000E+00  0.00000000E+00  1.60000000E+01
  1.00800000E+00  1.00800000E+00  0.00000000E+00  1.60000000E+01  1.00800000E+00
  1.00800000E+00  0.00000000E+00  1.60000000E+01  1.00800000E+00  1.00800000E+00
  0.00000000E+00  1.60000000E+01  1.00800000E+00  1.00800000E+00  0.00000000E+00
  1.60000000E+01  1.00800000E+00  1.00800000E+00  0.00000000E+00  1.60000000E+01
  1.00800000E+00  1.00800000E+00  0.00000000E+00  1.60000000E+01  1.00800000E+00
  1.00800000E+00  0.00000000E+00  1.60000000E+01  1.00800000E+00  1.00800000E+00
  0.00000000E+00  1.60000000E+01  1.00800000E+00  1.00800000E+00  0.00000000E+00
  1.60000000E+01  1.00800000E+00  1.00800000E+00  0.00000000E+00  1.60000000E+01
  1.00800000E+00  1.00800000E+00  0.00000000E+00  1.60000000E+01  1.00800000E+00
  1.00800000E+00  0.00000000E+00  1.60000000E+01  1.00800000E+00  1.00800000E+00
  0.00000000E+00  1.60000000E+01  1.00800000E+00  1.00800000E+00  0.00000000E+00
  1.60000000E+01  1.00800000E+00  1.00800000E+00  0.00000000E+00  1.60000000E+01
  1.00800000E+00  1.00800000E+00  0.00000000E+00  1.60000000E+01  1.00800000E+00
  1.00800000E+00  0.00000000E+00  1.60000000E+01  1.00800000E+00  1.00800000E+00
  0.00000000E+00  1.60000000E+01  1.00800000E+00  1.00800000E+00  0.00000000E+00
  1.60000000E+01  1.00800000E+00  1.00800000E+00  0.00000000E+00  1.60000000E+01
  1.00800000E+00  1.00800000E+00  0.00000000E+00  1.60000000E+01  1.00800000E+00
  1.00800000E+00  0.00000000E+00  1.60000000E+01  1.00800000E+00  1.00800000E+00
  0.00000000E+00  1.60000000E+01  1.00800000E+00  1.00800000E+00  0.00000000E+00
  1.60000000E+01  1.00800000E+00  1.00800000E+00  0.00000000E+00  1.60000000E+01
  1.00800000E+00  1.00800000E+00  0.00000000E+00  1.60000000E+01  1.00800000E+00
  1.00800000E+00  0.00000000E+00  1.60000000E+01  1.00800000E+00  1.00800000E+00
  0.00000000E+00  1.60000000E+01  1.00800000E+00  1.00800000E+00  0.00000000E+00
  1.60000000E+01  1.00800000E+00  1.00800000E+00  0.00000000E+00  1.60000000E+01
  1.00800000E+00  1.00800000E+00  0.00000000E+00  1.60000000E+01  1.00800000E+00
  1.00800000E+00  0.00000000E+00  1.60000000E+01  1.00800000E+00  1.00800000E+00
  0.00000000E+00  1.60000000E+01  1.00800000E+00  1.00800000E+00  0.00000000E+00
  1.60000000E+01  1.00800000E+00  1.00800000E+00  0.00000000E+00  1.60000000E+01
  1.00800000E+00  1.00800000E+00  0.00000000E+00  1.60000000E+01  1.00800000E+00
  1.00800000E+00  0.00000000E+00  1.60000000E+01  1.00800000E+00  1.00800000E+00
  0.00000000E+00  1.60000000E+01  1.00800000E+00  1.00800000E+00  0.00000000E+00
  1.60000000E+01  1.00800000E+00  1.00800000E+00  0.00000000E+00  1.60000000E+01
  1.00800000E+00  1.00800000E+00  0.00000000E+00  1.60000000E+01  1.00800000E+00
  1.00800000E+00  0.00000000E+00  1.60000000E+01  1.00800000E+00  1.00800000E+00
  0.00000000E+00  1.60000000E+01  1.00800000E+00  1.00800000E+00  0.00000000E+00
  1.60000000E+01  1.00800000E+00  1.00800000E+00  0.00000000E+00  1.60000000E+01
  1.00800000E+00  1.00800000E+00  0.00000000E+00  1.60000000E+01  1.00800000E+00
  1.00800000E+00  0.00000000E+00  1.60000000E+01  1.00800000E+00  1.00800000E+00
  0.00000000E+00  1.60000000E+01  1.00800000E+00  1.00800000E+00  0.00000000E+00
  1.60000000E+01  1.00800000E+00  1.00800000E+00  0.00000000E+00  1.60000000E+01
  1.00800000E+00  1.00800000E+00  0.00000000E+00  1.60000000E+01  1.00800000E+00
  1.00800000E+00  0.00000000E+00  1.60000000E+01  1.00800000E+00  1.00800000E+00
  0.00000000E+00  1.60000000E+01  1.00800000E+00  1.00800000E+00  0.00000000E+00
  1.60000000E+01  1.00800000E+00  1.00800000E+00  0.00000000E+00  1.60000000E+01
  1.00800000E+00  1.00800000E+00  0.00000000E+00  1.60000000E+01  1.00800000E+00
  1.00800000E+00  0.00000000E+00  1.60000000E+01  1.00800000E+00  1.00800000E+00
  0.00000000E+00  1.60000000E+01  1.00800000E+00  1.00800000E+00  0.00000000E+00
  1.60000000E+01  1.00800000E+00  1.00800000E+00  0.00000000E+00  1.60000000E+01
  1.00800000E+00  1.00800000E+00  0.00000000E+00  1.60000000E+01  1.00800000E+00
  1.00800000E+00  0.00000000E+00  1.60000000E+01  1.00800000E+00  1.00800000E+00
  0.00000000E+00  1.60000000E+01  1.00800000E+00  1.00800000E+00  0.00000000E+00
  1.60000000E+01  1.00800000E+00  1.00800000E+00  0.00000000E+00  1.60000000E+01
  1.00800000E+00  1.00800000E+00  0.00000000E+00  1.60000000E+01  1.00800000E+00
  1.00800000E+00  0.00000000E+00  1.60000000E+01  1.00800000E+00  1.00800000E+00
  0.00000000E+00  1.60000000E+01  1.00800000E+00  1.00800000E+00  0.00000000E+00
  1.60000000E+01  1.00800000E+00  1.00800000E+00  0.00000000E+00  1.60000000E+01
  1.00800000E+00  1.00800000E+00  0.00000000E+00  1.60000000E+01  1.00800000E+00
  1.00800000E+00  0.00000000E+00  1.60000000E+01  1.00800000E+00  1.00800000E+00
  0.00000000E+00  1.60000000E+01  1.00800000E+00  1.00800000E+00  0.00000000E+00
  1.60000000E+01  1.00800000E+00  1.00800000E+00  0.00000000E+00  1.60000000E+01
  1.00800000E+00  1.00800000E+00  0.00000000E+00  1.60000000E+01  1.00800000E+00
  1.00800000E+00  0.00000000E+00  1.60000000E+01  1.00800000E+00  1.00800000E+00
  0.00000000E+00  1.60000000E+01  1.00800000E+00  1.00800000E+00  0.00000000E+00
  1.60000000E+01  1.00800000E+00  1.00800000E+00  0.00000000E+00  1.60000000E+01
  1.00800000E+00  1.00800000E+00  0.00000000E+00  1.60000000E+01  1.00800000E+00
  1.00800000E+00  0.00000000E+00  1.60000000E+01  1.00800000E+00  1.00800000E+00
  0.00000000E+00  1.60000000E+01  1.00800000E+00  1.00800000E+00  0.00000000E+00
  1.60000000E+01  1.00800000E+00  1.00800000E+00  0.00000000E+00  1.60000000E+01
  1.00800000E+00  1.00800000E+00  0.00000000E+00  1.60000000E+01  1.00800000E+00
  1.00800000E+00  0.00000000E+00  1.60000000E+01  1.00800000E+00  1.00800000E+00
  0.00000000E+00  1.60000000E+01  1.00800000E+00  1.00800000E+00  0.00000000E+00
  1.60000000E+01  1.00800000E+00  1.00800000E+00  0.00000000E+00  1.60000000E+01
  1.00800000E+00  1.00800000E+00  0.00000000E+00  1.60000000E+01  1.00800000E+00
  1.00800000E+00  0.00000000E+00  1.60000000E+01  1.00800000E+00  1.00800000E+00
  0.00000000E+00  1.60000000E+01  1.00800000E+00  1.00800000E+00  0.00000000E+00
  1.60000000E+01  1.00800000E+00  1.00800000E+00  0.00000000E+00  1.60000000E+01
  1.00800000E+00  1.00800000E+00  0.00000000E+00  1.60000000E+01  1.00800000E+00
  1.00800000E+00  0.00000000E+00  1.60000000E+01  1.00800000E+00  1.00800000E+00
  0.00000000E+00  1.60000000E+01  1.00800000E+00  1.00800000E+00  0.00000000E+00
  1.60000000E+01  1.00800000E+00  1.00800000E+00  0.00000000E+00  1.60000000E+01
  1.00800000E+00  1.00800000E+00  0.00000000E+00  1.60000000E+01  1.00800000E+00
  1.00800000E+00  0.00000000E+00  1.60000000E+01  1.00800000E+00  1.00800000E+00
  0.00000000E+00  1.60000000E+01  1.00800000E+00  1.00800000E+00  0.00000000E+00
  1.60000000E+01  1.00800000E+00  1.00800000E+00  0.00000000E+00  1.60000000E+01
  1.00800000E+00  1.00800000E+00  0.00000000E+00  1.60000000E+01  1.00800000E+00
  1.00800000E+00  0.00000000E+00  1.60000000E+01  1.00800000E+00  1.00800000E+00
  0.00000000E+00  1.60000000E+01  1.00800000E+00  1.00800000E+00  0.00000000E+00
  1.60000000E+01  1.00800000E+00  1.00800000E+00  0.00000000E+00  1.60000000E+01
  1.00800000E+00  1.00800000E+00  0.00000000E+00  1.60000000E+01  1.00800000E+00
  1.00800000E+00  0.00000000E+00  1.60000000E+01  1.00800000E+00  1.00800000E+00
  0.00000000E+00  1.60000000E+01  1.00800000E+00  1.00800000E+00  0.00000000E+00
  1.60000000E+01  1.00800000E+00  1.00800000E+00  0.00000000E+00  1.60000000E+01
  1.00800000E+00  1.00800000E+00  0.00000000E+00  1.60000000E+01  1.00800000E+00
  1.00800000E+00  0.00000000E+00  1.60000000E+01  1.00800000E+00  1.00800000E+00
  0.00000000E+00  1.60000000E+01  1.00800000E+00  1.00800000E+00  0.00000000E+00
  1.60000000E+01  1.00800000E+00  1.00800000E+00  0.00000000E+00  1.60000000E+01
  1.00800000E+00  1.00800000E+00  0.00000000E+00  1.60000000E+01  1.00800000E+00
  1.00800000E+00  0.00000000E+00  1.60000000E+01  1.00800000E+00  1.00800000E+00
  0.00000000E+00  1.60000000E+01  1.00800000E+00  1.00800000E+00  0.00000000E+00
  1.60000000E+01  1.00800000E+00  1.00800000E+00  0.00000000E+00  1.60000000E+01
  1.00800000E+00  1.00800000E+00  0.00000000E+00  1.60000000E+01  1.00800000E+00
  1.00800000E+00  0.00000000E+00  1.60000000E+01  1.00800000E+00  1.00800000E+00
  0.00000000E+00  1.60000000E+01  1.00800000E+00  1.00800000E+00  0.00000000E+00
  1.60000000E+01  1.00800000E+00  1.00800000E+00  0.00000000E+00  1.60000000E+01
  1.00800000E+00  1.00800000E+00  0.00000000E+00  1.60000000E+01  1.00800000E+00
  1.00800000E+00  0.00000000E+00  1.60000000E+01  1.00800000E+00  1.00800000E+00
  0.00000000E+00  1.60000000E+01  1.00800000E+00  1.00800000E+00  0.00000000E+00
  1.60000000E+01  1.00800000E+00  1.00800000E+00  0.00000000E+00  1.60000000E+01
  1.00800000E+00  1.00800000E+00  0.00000000E+00  1.60000000E+01  1.00800000E+00
  1.00800000E+00  0.00000000E+00  1.60000000E+01  1.00800000E+00  1.00800000E+00
  0.00000000E+00  1.60000000E+01  1.00800000E+00  1.00800000E+00  0.00000000E+00
  1.60000000E+01  1.00800000E+00  1.00800000E+00  0.00000000E+00  1.60000000E+01
  1.00800000E+00  1.00800000E+00  0.00000000E+00  1.60000000E+01  1.00800000E+00
  1.00800000E+00  0.00000000E+00  1.60000000E+01  1.00800000E+00  1.00800000E+00
  0.00000000E+00  1.60000000E+01  1.00800000E+00  1.00800000E+00  0.00000000E+00
  1.60000000E+01  1.00800000E+00  1.00800000E+00  0.00000000E+00  1.60000000E+01
  1.00800000E+00  1.00800000E+00  0.00000000E+00  1.60000000E+01  1.00800000E+00
  1.00800000E+00  0.00000000E+00  1.60000000E+01  1.00800000E+00  1.00800000E+00
  0.00000000E+00  1.60000000E+01  1.00800000E+00  1.00800000E+00  0.00000000E+00
  1.60000000E+01  1.00800000E+00  1.00800000E+00  0.00000000E+00  1.60000000E+01
  1.00800000E+00  1.00800000E+00  0.00000000E+00  1.60000000E+01  1.00800000E+00
  1.00800000E+00  0.00000000E+00  1.60000000E+01  1.00800000E+00  1.00800000E+00
  0.00000000E+00  1.60000000E+01  1.00800000E+00  1.00800000E+00  0.00000000E+00
  1.60000000E+01  1.00800000E+00  1.00800000E+00  0.00000000E+00  1.60000000E+01
  1.00800000E+00  1.00800000E+00  0.00000000E+00  1.60000000E+01  1.00800000E+00
  1.00800000E+00  0.00000000E+00  1.60000000E+01  1.00800000E+00  1.00800000E+00
  0.00000000E+00  1.60000000E+01  1.00800000E+00  1.00800000E+00  0.00000000E+00
  1.60000000E+01  1.00800000E+00  1.00800000E+00  0.00000000E+00  1.60000000E+01
  1.00800000E+00  1.00800000E+00  0.00000000E+00  1.60000000E+01  1.00800000E+00
  1.00800000E+00  0.00000000E+00  1.60000000E+01  1.00800000E+00  1.00800000E+00
  0.00000000E+00  1.60000000E+01  1.00800000E+00  1.00800000E+00  0.00000000E+00
  1.60000000E+01  1.00800000E+00  1.00800000E+00  0.00000000E+00  1.60000000E+01
  1.00800000E+00  1.00800000E+00  0.00000000E+00  1.60000000E+01  1.00800000E+00
  1.00800000E+00  0.00000000E+00  1.60000000E+01  1.00800000E+00  1.00800000E+00
  0.00000000E+00  1.60000000E+01  1.00800000E+00  1.00800000E+00  0.00000000E+00
  1.60000000E+01  1.00800000E+00  1.00800000E+00  0.00000000E+00  1.60000000E+01
  1.00800000E+00  1.00800000E+00  0.00000000E+00  1.60000000E+01  1.00800000E+00
  1.00800000E+00  0.00000000E+00  1.60000000E+01  1.00800000E+00  1.00800000E+00
  0.00000000E+00  1.60000000E+01  1.00800000E+00  1.00800000E+00  0.00000000E+00
  1.60000000E+01  1.00800000E+00  1.00800000E+00  0.00000000E+00  1.60000000E+01
  1.00800000E+00  1.00800000E+00  0.00000000E+00  1.60000000E+01  1.00800000E+00
  1.00800000E+00  0.00000000E+00  1.60000000E+01  1.00800000E+00  1.00800000E+00
  0.00000000E+00  1.60000000E+01  1.00800000E+00  1.00800000E+00  0.00000000E+00
  1.60000000E+01  1.00800000E+00  1.00800000E+00  0.00000000E+00  1.60000000E+01
  1.00800000E+00  1.00800000E+00  0.00000000E+00  1.60000000E+01  1.00800000E+00
  1.00800000E+00  0.00000000E+00  1.60000000E+01  1.00800000E+00  1.00800000E+00
  0.00000000E+00  1.60000000E+01  1.00800000E+00  1.00800000E+00  0.00000000E+00
  1.60000000E+01  1.00800000E+00  1.00800000E+00  0.00000000E+00  1.60000000E+01
  1.00800000E+00  1.00800000E+00  0.00000000E+00  1.60000000E+01  1.00800000E+00
  1.00800000E+00  0.00000000E+00  1.60000000E+01  1.00800000E+00  1.00800000E+00
  0.00000000E+00  1.60000000E+01  1.00800000E+00  1.00800000E+00  0.00000000E+00
  1.60000000E+01  1.00800000E+00  1.00800000E+00  0.00000000E+00  1.60000000E+01
  1.00800000E+00  1.00800000E+00  0.00000000E+00  1.60000000E+01  1.00800000E+00
  1.00800000E+00  0.00000000E+00  1.60000000E+01  1.00800000E+00  1.00800000E+00
  0.00000000E+00  1.60000000E+01  1.00800000E+00  1.00800000E+00  0.00000000E+00
  1.60000000E+01  1.00800000E+00  1.00800000E+00  0.00000000E+00  1.60000000E+01
  1.00800000E+00  1.00800000E+00  0.00000000E+00  1.60000000E+01  1.00800000E+00
  1.00800000E+00  0.00000000E+00  1.60000000E+01  1.00800000E+00  1.00800000E+00
  0.00000000E+00  1.60000000E+01  1.00800000E+00  1.00800000E+00  0.00000000E+00
  1.60000000E+01  1.00800000E+00  1.00800000E+00  0.00000000E+00  1.60000000E+01
  1.00800000E+00  1.00800000E+00  0.00000000E+00  1.60000000E+01  1.00800000E+00
  1.00800000E+00  0.00000000E+00  1.60000000E+01  1.00800000E+00  1.00800000E+00
  0.00000000E+00  1.60000000E+01  1.00800000E+00  1.00800000E+00  0.00000000E+00
  1.60000000E+01  1.00800000E+00  1.00800000E+00  0.00000000E+00  1.60000000E+01
  1.00800000E+00  1.00800000E+00  0.00000000E+00  1.60000000E+01  1.00800000E+00
  1.00800000E+00  0.00000000E+00  1.60000000E+01  1.00800000E+00  1.00800000E+00
  0.00000000E+00  1.60000000E+01  1.00800000E+00  1.00800000E+00  0.00000000E+00
  1.60000000E+01  1.00800000E+00  1.00800000E+00  0.00000000E+00  1.60000000E+01
  1.00800000E+00  1.00800000E+00  0.00000000E+00  1.60000000E+01  1.00800000E+00
  1.00800000E+00  0.00000000E+00  1.60000000E+01  1.00800000E+00  1.00800000E+00
  0.00000000E+00  1.60000000E+01  1.00800000E+00  1.00800000E+00  0.00000000E+00
  1.60000000E+01  1.00800000E+00  1.00800000E+00  0.00000000E+00  1.60000000E+01
  1.00800000E+00  1.00800000E+00  0.00000000E+00  1.60000000E+01  1.00800000E+00
  1.00800000E+00  0.00000000E+00  1.60000000E+01  1.00800000E+00  1.00800000E+00
  0.00000000E+00  1.60000000E+01  1.00800000E+00  1.00800000E+00  0.00000000E+00
  1.60000000E+01  1.00800000E+00  1.00800000E+00  0.00000000E+00  1.60000000E+01
  1.00800000E+00  1.00800000E+00  0.00000000E+00  1.60000000E+01  1.00800000E+00
  1.00800000E+00  0.00000000E+00  1.60000000E+01  1.00800000E+00  1.00800000E+00
  0.00000000E+00  1.60000000E+01  1.00800000E+00  1.00800000E+00  0.00000000E+00
  1.60000000E+01  1.00800000E+00  1.00800000E+00  0.00000000E+00  1.60000000E+01
  1.00800000E+00  1.00800000E+00  0.00000000E+00  1.60000000E+01  1.00800000E+00
  1.00800000E+00  0.00000000E+00  1.60000000E+01  1.00800000E+00  1.00800000E+00
  0.00000000E+00  1.60000000E+01  1.00800000E+00  1.00800000E+00  0.00000000E+00
  1.60000000E+01  1.00800000E+00  1.00800000E+00  0.00000000E+00  1.60000000E+01
  1.00800000E+00  1.00800000E+00  0.00000000E+00  1.60000000E+01  1.00800000E+00
  1.00800000E+00  0.00000000E+00  1.60000000E+01  1.00800000E+00  1.00800000E+00
  0.00000000E+00  1.60000000E+01  1.00800000E+00  1.00800000E+00  0.00000000E+00
  1.60000000E+01  1.00800000E+00  1.00800000E+00  0.00000000E+00  1.60000000E+01
  1.00800000E+00  1.00800000E+00  0.00000000E+00  1.60000000E+01  1.00800000E+00
  1.00800000E+00  0.00000000E+00  1.60000000E+01  1.00800000E+00  1.00800000E+00
  0.00000000E+00  1.60000000E+01  1.00800000E+00  1.00800000E+00  0.00000000E+00
  1.60000000E+01  1.00800000E+00  1.00800000E+00  0.00000000E+00  1.60000000E+01
  1.00800000E+00  1.00800000E+00  0.00000000E+00  1.60000000E+01  1.00800000E+00
  1.00800000E+00  0.00000000E+00  1.60000000E+01  1.00800000E+00  1.00800000E+00
  0.00000000E+00  1.60000000E+01  1.00800000E+00  1.00800000E+00  0.00000000E+00
  1.60000000E+01  1.00800000E+00  1.00800000E+00  0.00000000E+00  1.60000000E+01
  1.00800000E+00  1.00800000E+00  0.00000000E+00  1.60000000E+01  1.00800000E+00
  1.00800000E+00  0.00000000E+00  1.60000000E+01  1.00800000E+00  1.00800000E+00
  0.00000000E+00  1.60000000E+01  1.00800000E+00  1.00800000E+00  0.00000000E+00
  1.60000000E+01  1.00800000E+00  1.00800000E+00  0.00000000E+00  1.60000000E+01
  1.00800000E+00  1.00800000E+00  0.00000000E+00  1.60000000E+01  1.00800000E+00
  1.00800000E+00  0.00000000E+00  1.60000000E+01  1.00800000E+00  1.00800000E+00
  0.00000000E+00  1.60000000E+01  1.00800000E+00  1.00800000E+00  0.00000000E+00
  1.60000000E+01  1.00800000E+00  1.00800000E+00  0.00000000E+00  1.60000000E+01
  1.00800000E+00  1.00800000E+00  0.00000000E+00  1.60000000E+01  1.00800000E+00
  1.00800000E+00  0.00000000E+00  1.60000000E+01  1.00800000E+00  1.00800000E+00
  0.00000000E+00  1.60000000E+01  1.00800000E+00  1.00800000E+00  0.00000000E+00
  1.60000000E+01  1.00800000E+00  1.00800000E+00  0.00000000E+00  1.60000000E+01
  1.00800000E+00  1.00800000E+00  0.00000000E+00  1.60000000E+01  1.00800000E+00
  1.00800000E+00  0.00000000E+00  1.60000000E+01  1.00800000E+00  1.00800000E+00
  0.00000000E+00  1.60000000E+01  1.00800000E+00  1.00800000E+00  0.00000000E+00
  1.60000000E+01  1.00800000E+00  1.00800000E+00  0.00000000E+00  1.60000000E+01
  1.00800000E+00  1.00800000E+00  0.00000000E+00  1.60000000E+01  1.00800000E+00
  1.00800000E+00  0.00000000E+00  1.60000000E+01  1.00800000E+00  1.00800000E+00
  0.00000000E+00  1.60000000E+01  1.00800000E+00  1.00800000E+00  0.00000000E+00
  1.60000000E+01  1.00800000E+00  1.00800000E+00  0.00000000E+00  1.60000000E+01
  1.00800000E+00  1.00800000E+00  0.00000000E+00  1.60000000E+01  1.00800000E+00
  1.00800000E+00  0.00000000E+00  1.60000000E+01  1.00800000E+00  1.00800000E+00
  0.00000000E+00  1.60000000E+01  1.00800000E+00  1.00800000E+00  0.00000000E+00
  1.60000000E+01  1.00800000E+00  1.00800000E+00  0.00000000E+00  1.60000000E+01
  1.00800000E+00  1.00800000E+00  0.00000000E+00  1.60000000E+01  1.00800000E+00
  1.00800000E+00  0.00000000E+00  1.60000000E+01  1.00800000E+00  1.00800000E+00
  0.00000000E+00  1.60000000E+01  1.00800000E+00  1.00800000E+00  0.00000000E+00
  1.60000000E+01  1.00800000E+00  1.00800000E+00  0.00000000E+00  1.60000000E+01
  1.00800000E+00  1.00800000E+00  0.00000000E+00  1.60000000E+01  1.00800000E+00
  1.00800000E+00  0.00000000E+00  1.60000000E+01  1.00800000E+00  1.00800000E+00
  0.00000000E+00  1.60000000E+01  1.00800000E+00  1.00800000E+00  0.00000000E+00
  1.60000000E+01  1.00800000E+00  1.00800000E+00  0.00000000E+00  1.60000000E+01
  1.00800000E+00  1.00800000E+00  0.00000000E+00  1.60000000E+01  1.00800000E+00
  1.00800000E+00  0.00000000E+00  1.60000000E+01  1.00800000E+00  1.00800000E+00
  0.00000000E+00  1.60000000E+01  1.00800000E+00  1.00800000E+00  0.00000000E+00
  1.60000000E+01  1.00800000E+00  1.00800000E+00  0.00000000E+00  1.60000000E+01
  1.00800000E+00  1.00800000E+00  0.00000000E+00  1.60000000E+01  1.00800000E+00
  1.00800000E+00  0.00000000E+00  1.60000000E+01  1.00800000E+00  1.00800000E+00
  0.00000000E+00  1.60000000E+01  1.00800000E+00  1.00800000E+00  0.00000000E+00
  1.60000000E+01  1.00800000E+00  1.00800000E+00  0.00000000E+00  1.60000000E+01
  1.00800000E+00  1.00800000E+00  0.00000000E+00  1.60000000E+01  1.00800000E+00
  1.00800000E+00  0.00000000E+00  1.60000000E+01  1.00800000E+00  1.00800000E+00
  0.00000000E+00  1.60000000E+01  1.00800000E+00  1.00800000E+00  0.00000000E+00
  1.60000000E+01  1.00800000E+00  1.00800000E+00  0.00000000E+00  1.60000000E+01
  1.00800000E+00  1.00800000E+00  0.00000000E+00  1.60000000E+01  1.00800000E+00
  1.00800000E+00  0.00000000E+00  1.60000000E+01  1.00800000E+00  1.00800000E+00
  0.00000000E+00  1.60000000E+01  1.00800000E+00  1.00800000E+00  0.00000000E+00
  1.60000000E+01  1.00800000E+00  1.00800000E+00  0.00000000E+00  1.60000000E+01
  1.00800000E+00  1.00800000E+00  0.00000000E+00  1.60000000E+01  1.00800000E+00
  1.00800000E+00  0.00000000E+00  1.60000000E+01  1.00800000E+00  1.00800000E+00
  0.00000000E+00  1.60000000E+01  1.00800000E+00  1.00800000E+00  0.00000000E+00
  1.60000000E+01  1.00800000E+00  1.00800000E+00  0.00000000E+00  1.60000000E+01
  1.00800000E+00  1.00800000E+00  0.00000000E+00  1.60000000E+01  1.00800000E+00
  1.00800000E+00  0.00000000E+00  1.60000000E+01  1.00800000E+00  1.00800000E+00
  0.00000000E+00  1.60000000E+01  1.00800000E+00  1.00800000E+00  0.00000000E+00
  1.60000000E+01  1.00800000E+00  1.00800000E+00  0.00000000E+00  1.60000000E+01
  1.00800000E+00  1.00800000E+00  0.00000000E+00  1.60000000E+01  1.00800000E+00
  1.00800000E+00  0.00000000E+00  1.60000000E+01  1.00800000E+00  1.00800000E+00
  0.00000000E+00  1.60000000E+01  1.00800000E+00  1.00800000E+00  0.00000000E+00
  1.60000000E+01  1.00800000E+00  1.00800000E+00  0.00000000E+00  1.60000000E+01
  1.00800000E+00  1.00800000E+00  0.00000000E+00  1.60000000E+01  1.00800000E+00
  1.00800000E+00  0.00000000E+00  1.60000000E+01  1.00800000E+00  1.00800000E+00
  0.00000000E+00  1.60000000E+01  1.00800000E+00  1.00800000E+00  0.00000000E+00
  1.60000000E+01  1.00800000E+00  1.00800000E+00  0.00000000E+00  1.60000000E+01
  1.00800000E+00  1.00800000E+00  0.00000000E+00  1.60000000E+01  1.00800000E+00
  1.00800000E+00  0.00000000E+00  1.60000000E+01  1.00800000E+00  1.00800000E+00
  0.00000000E+00  1.60000000E+01  1.00800000E+00  1.00800000E+00  0.00000000E+00
  1.60000000E+01  1.00800000E+00  1.00800000E+00  0.00000000E+00  1.60000000E+01
  1.00800000E+00  1.00800000E+00  0.00000000E+00  1.60000000E+01  1.00800000E+00
  1.00800000E+00  0.00000000E+00  1.60000000E+01  1.00800000E+00  1.00800000E+00
  0.00000000E+00  1.60000000E+01  1.00800000E+00  1.00800000E+00  0.00000000E+00
  1.60000000E+01  1.00800000E+00  1.00800000E+00  0.00000000E+00  1.60000000E+01
  1.00800000E+00  1.00800000E+00  0.00000000E+00  1.60000000E+01  1.00800000E+00
  1.00800000E+00  0.00000000E+00  1.60000000E+01  1.00800000E+00  1.00800000E+00
  0.00000000E+00  1.60000000E+01  1.00800000E+00  1.00800000E+00  0.00000000E+00
  1.60000000E+01  1.00800000E+00  1.00800000E+00  0.00000000E+00  1.60000000E+01
  1.00800000E+00  1.00800000E+00  0.00000000E+00  1.60000000E+01  1.00800000E+00
  1.00800000E+00  0.00000000E+00  1.60000000E+01  1.00800000E+00  1.00800000E+00
  0.00000000E+00  1.60000000E+01  1.00800000E+00  1.00800000E+00  0.00000000E+00
  1.60000000E+01  1.00800000E+00  1.00800000E+00  0.00000000E+00  1.60000000E+01
  1.00800000E+00  1.00800000E+00  0.00000000E+00  1.60000000E+01  1.00800000E+00
  1.00800000E+00  0.00000000E+00  1.60000000E+01  1.00800000E+00  1.00800000E+00
  0.00000000E+00  1.60000000E+01  1.00800000E+00  1.00800000E+00  0.00000000E+00
  1.60000000E+01  1.00800000E+00  1.00800000E+00  0.00000000E+00  1.60000000E+01
  1.00800000E+00  1.00800000E+00  0.00000000E+00  1.60000000E+01  1.00800000E+00
  1.00800000E+00  0.00000000E+00  1.60000000E+01  1.00800000E+00  1.00800000E+00
  0.00000000E+00  1.60000000E+01  1.00800000E+00  1.00800000E+00  0.00000000E+00
  1.60000000E+01  1.00800000E+00  1.00800000E+00  0.00000000E+00  1.60000000E+01
  1.00800000E+00  1.00800000E+00  0.00000000E+00  1.60000000E+01  1.00800000E+00
  1.00800000E+00  0.00000000E+00  1.60000000E+01  1.00800000E+00  1.00800000E+00
  0.00000000E+00  1.60000000E+01  1.00800000E+00  1.00800000E+00  0.00000000E+00
  1.60000000E+01  1.00800000E+00  1.00800000E+00  0.00000000E+00  1.60000000E+01
  1.00800000E+00  1.00800000E+00  0.00000000E+00  1.60000000E+01  1.00800000E+00
  1.00800000E+00  0.00000000E+00  1.60000000E+01  1.00800000E+00  1.00800000E+00
  0.00000000E+00  1.60000000E+01  1.00800000E+00  1.00800000E+00  0.00000000E+00
  1.60000000E+01  1.00800000E+00  1.00800000E+00  0.00000000E+00  1.60000000E+01
  1.00800000E+00  1.00800000E+00  0.00000000E+00  1.60000000E+01  1.00800000E+00
  1.00800000E+00  0.00000000E+00  1.60000000E+01  1.00800000E+00  1.00800000E+00
  0.00000000E+00  1.60000000E+01  1.00800000E+00  1.00800000E+00  0.00000000E+00
  1.60000000E+01  1.00800000E+00  1.00800000E+00  0.00000000E+00  1.60000000E+01
  1.00800000E+00  1.00800000E+00  0.00000000E+00  1.60000000E+01  1.00800000E+00
  1.00800000E+00  0.00000000E+00  1.60000000E+01  1.00800000E+00  1.00800000E+00
  0.00000000E+00  1.60000000E+01  1.00800000E+00  1.00800000E+00  0.00000000E+00
  1.60000000E+01  1.00800000E+00  1.00800000E+00  0.00000000E+00  1.60000000E+01
  1.00800000E+00  1.00800000E+00  0.00000000E+00  1.60000000E+01  1.00800000E+00
  1.00800000E+00  0.00000000E+00  1.60000000E+01  1.00800000E+00  1.00800000E+00
  0.00000000E+00  1.60000000E+01  1.00800000E+00  1.00800000E+00  0.00000000E+00
  1.60000000E+01  1.00800000E+00  1.00800000E+00  0.00000000E+00  1.60000000E+01
  1.00800000E+00  1.00800000E+00  0.00000000E+00  1.60000000E+01  1.00800000E+00
  1.00800000E+00  0.00000000E+00  1.60000000E+01  1.00800000E+00  1.00800000E+00
  0.00000000E+00  1.60000000E+01  1.00800000E+00  1.00800000E+00  0.00000000E+00
  1.60000000E+01  1.00800000E+00  1.00800000E+00  0.00000000E+00  1.60000000E+01
  1.00800000E+00  1.00800000E+00  0.00000000E+00  1.60000000E+01  1.00800000E+00
  1.00800000E+00  0.00000000E+00  1.60000000E+01  1.00800000E+00  1.00800000E+00
  0.00000000E+00  1.60000000E+01  1.00800000E+00  1.00800000E+00  0.00000000E+00
  1.60000000E+01  1.00800000E+00  1.00800000E+00  0.00000000E+00  1.60000000E+01
  1.00800000E+00  1.00800000E+00  0.00000000E+00  1.60000000E+01  1.00800000E+00
  1.00800000E+00  0.00000000E+00  1.60000000E+01  1.00800000E+00  1.00800000E+00
  0.00000000E+00  1.60000000E+01  1.00800000E+00  1.00800000E+00  0.00000000E+00
  1.60000000E+01  1.00800000E+00  1.00800000E+00  0.00000000E+00  1.60000000E+01
  1.00800000E+00  1.00800000E+00  0.00000000E+00  1.60000000E+01  1.00800000E+00
  1.00800000E+00  0.00000000E+00  1.60000000E+01  1.00800000E+00  1.00800000E+00
  0.00000000E+00  1.60000000E+01  1.00800000E+00  1.00800000E+00  0.00000000E+00
  1.60000000E+01  1.00800000E+00  1.00800000E+00  0.00000000E+00  1.60000000E+01
  1.00800000E+00  1.00800000E+00  0.00000000E+00  1.60000000E+01  1.00800000E+00
  1.00800000E+00  0.00000000E+00  1.60000000E+01  1.00800000E+00  1.00800000E+00
  0.00000000E+00  1.60000000E+01  1.00800000E+00  1.00800000E+00  0.00000000E+00
  1.60000000E+01  1.00800000E+00  1.00800000E+00  0.00000000E+00  1.60000000E+01
  1.00800000E+00  1.00800000E+00  0.00000000E+00  1.60000000E+01  1.00800000E+00
  1.00800000E+00  0.00000000E+00  1.60000000E+01  1.00800000E+00  1.00800000E+00
  0.00000000E+00  1.60000000E+01  1.00800000E+00  1.00800000E+00  0.00000000E+00
  1.60000000E+01  1.00800000E+00  1.00800000E+00  0.00000000E+00  1.60000000E+01
  1.00800000E+00  1.00800000E+00  0.00000000E+00  1.60000000E+01  1.00800000E+00
  1.00800000E+00  0.00000000E+00  1.60000000E+01  1.00800000E+00  1.00800000E+00
  0.00000000E+00  1.60000000E+01  1.00800000E+00  1.00800000E+00  0.00000000E+00
  1.60000000E+01  1.00800000E+00  1.00800000E+00  0.00000000E+00  1.60000000E+01
  1.00800000E+00  1.00800000E+00  0.00000000E+00  1.60000000E+01  1.00800000E+00
  1.00800000E+00  0.00000000E+00  1.60000000E+01  1.00800000E+00  1.00800000E+00
  0.00000000E+00  1.60000000E+01  1.00800000E+00  1.00800000E+00  0.00000000E+00
  1.60000000E+01  1.00800000E+00  1.00800000E+00  0.00000000E+00  1.60000000E+01
  1.00800000E+00  1.00800000E+00  0.00000000E+00  1.60000000E+01  1.00800000E+00
  1.00800000E+00  0.00000000E+00  1.60000000E+01  1.00800000E+00  1.00800000E+00
  0.00000000E+00  1.60000000E+01  1.00800000E+00  1.00800000E+00  0.00000000E+00
  1.60000000E+01  1.00800000E+00  1.00800000E+00  0.00000000E+00  1.60000000E+01
  1.00800000E+00  1.00800000E+00  0.00000000E+00  1.60000000E+01  1.00800000E+00
  1.00800000E+00  0.00000000E+00  1.60000000E+01  1.00800000E+00  1.00800000E+00
  0.00000000E+00  1.60000000E+01  1.00800000E+00  1.00800000E+00  0.00000000E+00
  1.60000000E+01  1.00800000E+00  1.00800000E+00  0.00000000E+00  1.60000000E+01
  1.00800000E+00  1.00800000E+00  0.00000000E+00  1.60000000E+01  1.00800000E+00
  1.00800000E+00  0.00000000E+00  1.60000000E+01  1.00800000E+00  1.00800000E+00
  0.00000000E+00  1.60000000E+01  1.00800000E+00  1.00800000E+00  0.00000000E+00
  1.60000000E+01  1.00800000E+00  1.00800000E+00  0.00000000E+00  1.60000000E+01
  1.00800000E+00  1.00800000E+00  0.00000000E+00  1.60000000E+01  1.00800000E+00
  1.00800000E+00  0.00000000E+00  1.60000000E+01  1.00800000E+00  1.00800000E+00
  0.00000000E+00  1.60000000E+01  1.00800000E+00  1.00800000E+00  0.00000000E+00
  1.60000000E+01  1.00800000E+00  1.00800000E+00  0.00000000E+00  1.60000000E+01
  1.00800000E+00  1.00800000E+00  0.00000000E+00  1.60000000E+01  1.00800000E+00
  1.00800000E+00  0.00000000E+00  1.60000000E+01  1.00800000E+00  1.00800000E+00
  0.00000000E+00  1.60000000E+01  1.00800000E+00  1.00800000E+00  0.00000000E+00
  1.60000000E+01  1.00800000E+00  1.00800000E+00  0.00000000E+00  1.60000000E+01
  1.00800000E+00  1.00800000E+00  0.00000000E+00  1.60000000E+01  1.00800000E+00
  1.00800000E+00  0.00000000E+00  1.60000000E+01  1.00800000E+00  1.00800000E+00
  0.00000000E+00  1.60000000E+01  1.00800000E+00  1.00800000E+00  0.00000000E+00
  1.60000000E+01  1.00800000E+00  1.00800000E+00  0.00000000E+00  1.60000000E+01
  1.00800000E+00  1.00800000E+00  0.00000000E+00  1.60000000E+01  1.00800000E+00
  1.00800000E+00  0.00000000E+00  1.60000000E+01  1.00800000E+00  1.00800000E+00
  0.00000000E+00  1.60000000E+01  1.00800000E+00  1.00800000E+00  0.00000000E+00
  1.60000000E+01  1.00800000E+00  1.00800000E+00  0.00000000E+00  1.60000000E+01
  1.00800000E+00  1.00800000E+00  0.00000000E+00  1.60000000E+01  1.00800000E+00
  1.00800000E+00  0.00000000E+00  1.60000000E+01  1.00800000E+00  1.00800000E+00
  0.00000000E+00  1.60000000E+01  1.00800000E+00  1.00800000E+00  0.00000000E+00
  1.60000000E+01  1.00800000E+00  1.00800000E+00  0.00000000E+00  1.60000000E+01
  1.00800000E+00  1.00800000E+00  0.00000000E+00  1.60000000E+01  1.00800000E+00
  1.00800000E+00  0.00000000E+00  1.60000000E+01  1.00800000E+00  1.00800000E+00
  0.00000000E+00  1.60000000E+01  1.00800000E+00  1.00800000E+00  0.00000000E+00
  1.60000000E+01  1.00800000E+00  1.00800000E+00  0.00000000E+00  1.60000000E+01
  1.00800000E+00  1.00800000E+00  0.00000000E+00  1.60000000E+01  1.00800000E+00
  1.00800000E+00  0.00000000E+00  1.60000000E+01  1.00800000E+00  1.00800000E+00
  0.00000000E+00  1.60000000E+01  1.00800000E+00  1.00800000E+00  0.00000000E+00
  1.60000000E+01  1.00800000E+00  1.00800000E+00  0.00000000E+00  1.60000000E+01
  1.00800000E+00  1.00800000E+00  0.00000000E+00  1.60000000E+01  1.00800000E+00
  1.00800000E+00  0.00000000E+00  1.60000000E+01  1.00800000E+00  1.00800000E+00
  0.00000000E+00  1.60000000E+01  1.00800000E+00  1.00800000E+00  0.00000000E+00
  1.60000000E+01  1.00800000E+00  1.00800000E+00  0.00000000E+00  1.60000000E+01
  1.00800000E+00  1.00800000E+00  0.00000000E+00  1.60000000E+01  1.00800000E+00
  1.00800000E+00  0.00000000E+00  1.60000000E+01  1.00800000E+00  1.00800000E+00
  0.00000000E+00  1.60000000E+01  1.00800000E+00  1.00800000E+00  0.00000000E+00
  1.60000000E+01  1.00800000E+00  1.00800000E+00  0.00000000E+00  1.60000000E+01
  1.00800000E+00  1.00800000E+00  0.00000000E+00  1.60000000E+01  1.00800000E+00
  1.00800000E+00  0.00000000E+00  1.60000000E+01  1.00800000E+00  1.00800000E+00
  0.00000000E+00  1.60000000E+01  1.00800000E+00  1.00800000E+00  0.00000000E+00
  1.60000000E+01  1.00800000E+00  1.00800000E+00  0.00000000E+00  1.60000000E+01
  1.00800000E+00  1.00800000E+00  0.00000000E+00  1.60000000E+01  1.00800000E+00
  1.00800000E+00  0.00000000E+00  1.60000000E+01  1.00800000E+00  1.00800000E+00
  0.00000000E+00  1.60000000E+01  1.00800000E+00  1.00800000E+00  0.00000000E+00
  1.60000000E+01  1.00800000E+00  1.00800000E+00  0.00000000E+00  1.60000000E+01
  1.00800000E+00  1.00800000E+00  0.00000000E+00  1.60000000E+01  1.00800000E+00
  1.00800000E+00  0.00000000E+00  1.60000000E+01  1.00800000E+00  1.00800000E+00
  0.00000000E+00  1.60000000E+01  1.00800000E+00  1.00800000E+00  0.00000000E+00
  1.60000000E+01  1.00800000E+00  1.00800000E+00  0.00000000E+00  1.60000000E+01
  1.00800000E+00  1.00800000E+00  0.00000000E+00  1.60000000E+01  1.00800000E+00
  1.00800000E+00  0.00000000E+00  1.60000000E+01  1.00800000E+00  1.00800000E+00
  0.00000000E+00  1.60000000E+01  1.00800000E+00  1.00800000E+00  0.00000000E+00
  1.60000000E+01  1.00800000E+00  1.00800000E+00  0.00000000E+00  1.60000000E+01
  1.00800000E+00  1.00800000E+00  0.00000000E+00  1.60000000E+01  1.00800000E+00
  1.00800000E+00  0.00000000E+00  1.60000000E+01  1.00800000E+00  1.00800000E+00
  0.00000000E+00  1.60000000E+01  1.00800000E+00  1.00800000E+00  0.00000000E+00
  1.60000000E+01  1.00800000E+00  1.00800000E+00  0.00000000E+00  1.60000000E+01
  1.00800000E+00  1.00800000E+00  0.00000000E+00  1.60000000E+01  1.00800000E+00
  1.00800000E+00  0.00000000E+00  1.60000000E+01  1.00800000E+00  1.00800000E+00
  0.00000000E+00  1.60000000E+01  1.00800000E+00  1.00800000E+00  0.00000000E+00
  1.60000000E+01  1.00800000E+00  1.00800000E+00  0.00000000E+00  1.60000000E+01
  1.00800000E+00  1.00800000E+00  0.00000000E+00  1.60000000E+01  1.00800000E+00
  1.00800000E+00  0.00000000E+00  1.60000000E+01  1.00800000E+00  1.00800000E+00
  0.00000000E+00  1.60000000E+01  1.00800000E+00  1.00800000E+00  0.00000000E+00
  1.60000000E+01  1.00800000E+00  1.00800000E+00  0.00000000E+00  1.60000000E+01
  1.00800000E+00  1.00800000E+00  0.00000000E+00  1.60000000E+01  1.00800000E+00
  1.00800000E+00  0.00000000E+00  1.60000000E+01  1.00800000E+00  1.00800000E+00
  0.00000000E+00  1.60000000E+01  1.00800000E+00  1.00800000E+00  0.00000000E+00
  1.60000000E+01  1.00800000E+00  1.00800000E+00  0.00000000E+00  1.60000000E+01
  1.00800000E+00  1.00800000E+00  0.00000000E+00  1.60000000E+01  1.00800000E+00
  1.00800000E+00  0.00000000E+00  1.60000000E+01  1.00800000E+00  1.00800000E+00
  0.00000000E+00  1.60000000E+01  1.00800000E+00  1.00800000E+00  0.00000000E+00
  1.60000000E+01  1.00800000E+00  1.00800000E+00  0.00000000E+00  1.60000000E+01
  1.00800000E+00  1.00800000E+00  0.00000000E+00  1.60000000E+01  1.00800000E+00
  1.00800000E+00  0.00000000E+00  1.60000000E+01  1.00800000E+00  1.00800000E+00
  0.00000000E+00  1.60000000E+01  1.00800000E+00  1.00800000E+00  0.00000000E+00
  1.60000000E+01  1.00800000E+00  1.00800000E+00  0.00000000E+00  1.60000000E+01
  1.00800000E+00  1.00800000E+00  0.00000000E+00  1.60000000E+01  1.00800000E+00
  1.00800000E+00  0.00000000E+00  1.60000000E+01  1.00800000E+00  1.00800000E+00
  0.00000000E+00  1.60000000E+01  1.00800000E+00  1.00800000E+00  0.00000000E+00
  1.60000000E+01  1.00800000E+00  1.00800000E+00  0.00000000E+00  1.60000000E+01
  1.00800000E+00  1.00800000E+00  0.00000000E+00  1.60000000E+01  1.00800000E+00
  1.00800000E+00  0.00000000E+00  1.60000000E+01  1.00800000E+00  1.00800000E+00
  0.00000000E+00  1.60000000E+01  1.00800000E+00  1.00800000E+00  0.00000000E+00
  1.60000000E+01  1.00800000E+00  1.00800000E+00  0.00000000E+00  1.60000000E+01
  1.00800000E+00  1.00800000E+00  0.00000000E+00  1.60000000E+01  1.00800000E+00
  1.00800000E+00  0.00000000E+00  1.60000000E+01  1.00800000E+00  1.00800000E+00
  0.00000000E+00  1.60000000E+01  1.00800000E+00  1.00800000E+00  0.00000000E+00
  1.60000000E+01  1.00800000E+00  1.00800000E+00  0.00000000E+00  1.60000000E+01
  1.00800000E+00  1.00800000E+00  0.00000000E+00  1.60000000E+01  1.00800000E+00
  1.00800000E+00  0.00000000E+00  1.60000000E+01  1.00800000E+00  1.00800000E+00
  0.00000000E+00  1.60000000E+01  1.00800000E+00  1.00800000E+00  0.00000000E+00
  1.60000000E+01  1.00800000E+00  1.00800000E+00  0.00000000E+00  1.60000000E+01
  1.00800000E+00  1.00800000E+00  0.00000000E+00  1.60000000E+01  1.00800000E+00
  1.00800000E+00  0.00000000E+00  1.60000000E+01  1.00800000E+00  1.00800000E+00
  0.00000000E+00  1.60000000E+01  1.00800000E+00  1.00800000E+00  0.00000000E+00
  1.60000000E+01  1.00800000E+00  1.00800000E+00  0.00000000E+00  1.60000000E+01
  1.00800000E+00  1.00800000E+00  0.00000000E+00  1.60000000E+01  1.00800000E+00
  1.00800000E+00  0.00000000E+00  1.60000000E+01  1.00800000E+00  1.00800000E+00
  0.00000000E+00  1.60000000E+01  1.00800000E+00  1.00800000E+00  0.00000000E+00
  1.60000000E+01  1.00800000E+00  1.00800000E+00  0.00000000E+00  1.60000000E+01
  1.00800000E+00  1.00800000E+00  0.00000000E+00  1.60000000E+01  1.00800000E+00
  1.00800000E+00  0.00000000E+00  1.60000000E+01  1.00800000E+00  1.00800000E+00
  0.00000000E+00  1.60000000E+01  1.00800000E+00  1.00800000E+00  0.00000000E+00
  1.60000000E+01  1.00800000E+00  1.00800000E+00  0.00000000E+00  1.60000000E+01
  1.00800000E+00  1.00800000E+00  0.00000000E+00  1.60000000E+01  1.00800000E+00
  1.00800000E+00  0.00000000E+00  1.60000000E+01  1.00800000E+00  1.00800000E+00
  0.00000000E+00  1.60000000E+01  1.00800000E+00  1.00800000E+00  0.00000000E+00
  1.60000000E+01  1.00800000E+00  1.00800000E+00  0.00000000E+00  1.60000000E+01
  1.00800000E+00  1.00800000E+00  0.00000000E+00  1.60000000E+01  1.00800000E+00
  1.00800000E+00  0.00000000E+00  1.60000000E+01  1.00800000E+00  1.00800000E+00
  0.00000000E+00  1.60000000E+01  1.00800000E+00  1.00800000E+00  0.00000000E+00
  1.60000000E+01  1.00800000E+00  1.00800000E+00  0.00000000E+00  1.60000000E+01
  1.00800000E+00  1.00800000E+00  0.00000000E+00  1.60000000E+01  1.00800000E+00
  1.00800000E+00  0.00000000E+00  1.60000000E+01  1.00800000E+00  1.00800000E+00
  0.00000000E+00  1.60000000E+01  1.00800000E+00  1.00800000E+00  0.00000000E+00
  1.60000000E+01  1.00800000E+00  1.00800000E+00  0.00000000E+00  1.60000000E+01
  1.00800000E+00  1.00800000E+00  0.00000000E+00  1.60000000E+01  1.00800000E+00
  1.00800000E+00  0.00000000E+00  1.60000000E+01  1.00800000E+00  1.00800000E+00
  0.00000000E+00  1.60000000E+01  1.00800000E+00  1.00800000E+00  0.00000000E+00
  1.60000000E+01  1.00800000E+00  1.00800000E+00  0.00000000E+00  1.60000000E+01
  1.00800000E+00  1.00800000E+00  0.00000000E+00  1.60000000E+01  1.00800000E+00
  1.00800000E+00  0.00000000E+00  1.60000000E+01  1.00800000E+00  1.00800000E+00
  0.00000000E+00  1.60000000E+01  1.00800000E+00  1.00800000E+00  0.00000000E+00
  1.60000000E+01  1.00800000E+00  1.00800000E+00  0.00000000E+00  1.60000000E+01
  1.00800000E+00  1.00800000E+00  0.00000000E+00  1.60000000E+01  1.00800000E+00
  1.00800000E+00  0.00000000E+00  1.60000000E+01  1.00800000E+00  1.00800000E+00
  0.00000000E+00  1.60000000E+01  1.00800000E+00  1.00800000E+00  0.00000000E+00
  1.60000000E+01  1.00800000E+00  1.00800000E+00  0.00000000E+00  1.60000000E+01
  1.00800000E+00  1.00800000E+00  0.00000000E+00  1.60000000E+01  1.00800000E+00
  1.00800000E+00  0.00000000E+00  1.60000000E+01  1.00800000E+00  1.00800000E+00
  0.00000000E+00  1.60000000E+01  1.00800000E+00  1.00800000E+00  0.00000000E+00
  1.60000000E+01  1.00800000E+00  1.00800000E+00  0.00000000E+00  1.60000000E+01
  1.00800000E+00  1.00800000E+00  0.00000000E+00  1.60000000E+01  1.00800000E+00
  1.00800000E+00  0.00000000E+00  1.60000000E+01  1.00800000E+00  1.00800000E+00
  0.00000000E+00  1.60000000E+01  1.00800000E+00  1.00800000E+00  0.00000000E+00
  1.60000000E+01  1.00800000E+00  1.00800000E+00  0.00000000E+00  1.60000000E+01
  1.00800000E+00  1.00800000E+00  0.00000000E+00  1.60000000E+01  1.00800000E+00
  1.00800000E+00  0.00000000E+00  1.60000000E+01  1.00800000E+00  1.00800000E+00
  0.00000000E+00  1.60000000E+01  1.00800000E+00  1.00800000E+00  0.00000000E+00
  1.60000000E+01  1.00800000E+00  1.00800000E+00  0.00000000E+00  1.60000000E+01
  1.00800000E+00  1.00800000E+00  0.00000000E+00  1.60000000E+01  1.00800000E+00
  1.00800000E+00  0.00000000E+00  1.60000000E+01  1.00800000E+00  1.00800000E+00
  0.00000000E+00  1.60000000E+01  1.00800000E+00  1.00800000E+00  0.00000000E+00
  1.60000000E+01  1.00800000E+00  1.00800000E+00  0.00000000E+00  1.60000000E+01
  1.00800000E+00  1.00800000E+00  0.00000000E+00  1.60000000E+01  1.00800000E+00
  1.00800000E+00  0.00000000E+00  1.60000000E+01  1.00800000E+00  1.00800000E+00
  0.00000000E+00  1.60000000E+01  1.00800000E+00  1.00800000E+00  0.00000000E+00
  1.60000000E+01  1.00800000E+00  1.00800000E+00  0.00000000E+00  1.60000000E+01
  1.00800000E+00  1.00800000E+00  0.00000000E+00  1.60000000E+01  1.00800000E+00
  1.00800000E+00  0.00000000E+00  1.60000000E+01  1.00800000E+00  1.00800000E+00
  0.00000000E+00  1.60000000E+01  1.00800000E+00  1.00800000E+00  0.00000000E+00
  1.60000000E+01  1.00800000E+00  1.00800000E+00  0.00000000E+00  1.60000000E+01
  1.00800000E+00  1.00800000E+00  0.00000000E+00  1.60000000E+01  1.00800000E+00
  1.00800000E+00  0.00000000E+00  1.60000000E+01  1.00800000E+00  1.00800000E+00
  0.00000000E+00  1.60000000E+01  1.00800000E+00  1.00800000E+00  0.00000000E+00
  1.60000000E+01  1.00800000E+00  1.00800000E+00  0.00000000E+00  1.60000000E+01
  1.00800000E+00  1.00800000E+00  0.00000000E+00  1.60000000E+01  1.00800000E+00
  1.00800000E+00  0.00000000E+00  1.60000000E+01  1.00800000E+00  1.00800000E+00
  0.00000000E+00  1.60000000E+01  1.00800000E+00  1.00800000E+00  0.00000000E+00
  1.60000000E+01  1.00800000E+00  1.00800000E+00  0.00000000E+00  1.60000000E+01
  1.00800000E+00  1.00800000E+00  0.00000000E+00  1.60000000E+01  1.00800000E+00
  1.00800000E+00  0.00000000E+00  1.60000000E+01  1.00800000E+00  1.00800000E+00
  0.00000000E+00  1.60000000E+01  1.00800000E+00  1.00800000E+00  0.00000000E+00
  1.60000000E+01  1.00800000E+00  1.00800000E+00  0.00000000E+00  1.60000000E+01
  1.00800000E+00  1.00800000E+00  0.00000000E+00  1.60000000E+01  1.00800000E+00
  1.00800000E+00  0.00000000E+00  1.60000000E+01  1.00800000E+00  1.00800000E+00
  0.00000000E+00  1.60000000E+01  1.00800000E+00  1.00800000E+00  0.00000000E+00
  1.60000000E+01  1.00800000E+00  1.00800000E+00  0.00000000E+00  1.60000000E+01
  1.00800000E+00  1.00800000E+00  0.00000000E+00  1.60000000E+01  1.00800000E+00
  1.00800000E+00  0.00000000E+00  1.60000000E+01  1.00800000E+00  1.00800000E+00
  0.00000000E+00  1.60000000E+01  1.00800000E+00  1.00800000E+00  0.00000000E+00
  1.60000000E+01  1.00800000E+00  1.00800000E+00  0.00000000E+00  1.60000000E+01
  1.00800000E+00  1.00800000E+00  0.00000000E+00  1.60000000E+01  1.00800000E+00
  1.00800000E+00  0.00000000E+00  1.60000000E+01  1.00800000E+00  1.00800000E+00
  0.00000000E+00  1.60000000E+01  1.00800000E+00  1.00800000E+00  0.00000000E+00
  1.60000000E+01  1.00800000E+00  1.00800000E+00  0.00000000E+00  1.60000000E+01
  1.00800000E+00  1.00800000E+00  0.00000000E+00  1.60000000E+01  1.00800000E+00
  1.00800000E+00  0.00000000E+00  1.60000000E+01  1.00800000E+00  1.00800000E+00
  0.00000000E+00  1.60000000E+01  1.00800000E+00  1.00800000E+00  0.00000000E+00
  1.60000000E+01  1.00800000E+00  1.00800000E+00  0.00000000E+00  1.60000000E+01
  1.00800000E+00  1.00800000E+00  0.00000000E+00  1.60000000E+01  1.00800000E+00
  1.00800000E+00  0.00000000E+00  1.60000000E+01  1.00800000E+00  1.00800000E+00
  0.00000000E+00  1.60000000E+01  1.00800000E+00  1.00800000E+00  0.00000000E+00
  1.60000000E+01  1.00800000E+00  1.00800000E+00  0.00000000E+00  1.60000000E+01
  1.00800000E+00  1.00800000E+00  0.00000000E+00  1.60000000E+01  1.00800000E+00
  1.00800000E+00  0.00000000E+00  1.60000000E+01  1.00800000E+00  1.00800000E+00
  0.00000000E+00  1.60000000E+01  1.00800000E+00  1.00800000E+00  0.00000000E+00
  1.60000000E+01  1.00800000E+00  1.00800000E+00  0.00000000E+00  1.60000000E+01
  1.00800000E+00  1.00800000E+00  0.00000000E+00  1.60000000E+01  1.00800000E+00
  1.00800000E+00  0.00000000E+00  1.60000000E+01  1.00800000E+00  1.00800000E+00
  0.00000000E+00  1.60000000E+01  1.00800000E+00  1.00800000E+00  0.00000000E+00
  1.60000000E+01  1.00800000E+00  1.00800000E+00  0.00000000E+00  1.60000000E+01
  1.00800000E+00  1.00800000E+00  0.00000000E+00  1.60000000E+01  1.00800000E+00
  1.00800000E+00  0.00000000E+00  1.60000000E+01  1.00800000E+00  1.00800000E+00
  0.00000000E+00  1.60000000E+01  1.00800000E+00  1.00800000E+00  0.00000000E+00
  1.60000000E+01  1.00800000E+00  1.00800000E+00  0.00000000E+00  1.60000000E+01
  1.00800000E+00  1.00800000E+00  0.00000000E+00  1.60000000E+01  1.00800000E+00
  1.00800000E+00  0.00000000E+00  1.60000000E+01  1.00800000E+00  1.00800000E+00
  0.00000000E+00  1.60000000E+01  1.00800000E+00  1.00800000E+00  0.00000000E+00
  1.60000000E+01  1.00800000E+00  1.00800000E+00  0.00000000E+00  1.60000000E+01
  1.00800000E+00  1.00800000E+00  0.00000000E+00  1.60000000E+01  1.00800000E+00
  1.00800000E+00  0.00000000E+00  1.60000000E+01  1.00800000E+00  1.00800000E+00
  0.00000000E+00  1.60000000E+01  1.00800000E+00  1.00800000E+00  0.00000000E+00
  1.60000000E+01  1.00800000E+00  1.00800000E+00  0.00000000E+00  1.60000000E+01
  1.00800000E+00  1.00800000E+00  0.00000000E+00  1.60000000E+01  1.00800000E+00
  1.00800000E+00  0.00000000E+00  1.60000000E+01  1.00800000E+00  1.00800000E+00
  0.00000000E+00  1.60000000E+01  1.00800000E+00  1.00800000E+00  0.00000000E+00
  1.60000000E+01  1.00800000E+00  1.00800000E+00  0.00000000E+00  1.60000000E+01
  1.00800000E+00  1.00800000E+00  0.00000000E+00  1.60000000E+01  1.00800000E+00
  1.00800000E+00  0.00000000E+00  1.60000000E+01  1.00800000E+00  1.00800000E+00
  0.00000000E+00  1.60000000E+01  1.00800000E+00  1.00800000E+00  0.00000000E+00
  1.60000000E+01  1.00800000E+00  1.00800000E+00  0.00000000E+00  1.60000000E+01
  1.00800000E+00  1.00800000E+00  0.00000000E+00  1.60000000E+01  1.00800000E+00
  1.00800000E+00  0.00000000E+00  1.60000000E+01  1.00800000E+00  1.00800000E+00
  0.00000000E+00  1.60000000E+01  1.00800000E+00  1.00800000E+00  0.00000000E+00
  1.60000000E+01  1.00800000E+00  1.00800000E+00  0.00000000E+00  1.60000000E+01
  1.00800000E+00  1.00800000E+00  0.00000000E+00  1.60000000E+01  1.00800000E+00
  1.00800000E+00  0.00000000E+00  1.60000000E+01  1.00800000E+00  1.00800000E+00
  0.00000000E+00  1.60000000E+01  1.00800000E+00  1.00800000E+00  0.00000000E+00
  1.60000000E+01  1.00800000E+00  1.00800000E+00  0.00000000E+00  1.60000000E+01
  1.00800000E+00  1.00800000E+00  0.00000000E+00  1.60000000E+01  1.00800000E+00
  1.00800000E+00  0.00000000E+00  1.60000000E+01  1.00800000E+00  1.00800000E+00
  0.00000000E+00  1.60000000E+01  1.00800000E+00  1.00800000E+00  0.00000000E+00
  1.60000000E+01  1.00800000E+00  1.00800000E+00  0.00000000E+00  1.60000000E+01
  1.00800000E+00  1.00800000E+00  0.00000000E+00  1.60000000E+01  1.00800000E+00
  1.00800000E+00  0.00000000E+00  1.60000000E+01  1.00800000E+00  1.00800000E+00
  0.00000000E+00  1.60000000E+01  1.00800000E+00  1.00800000E+00  0.00000000E+00
  1.60000000E+01  1.00800000E+00  1.00800000E+00  0.00000000E+00  1.60000000E+01
  1.00800000E+00  1.00800000E+00  0.00000000E+00  1.60000000E+01  1.00800000E+00
  1.00800000E+00  0.00000000E+00  1.60000000E+01  1.00800000E+00  1.00800000E+00
  0.00000000E+00  1.60000000E+01  1.00800000E+00  1.00800000E+00  0.00000000E+00
  1.60000000E+01  1.00800000E+00  1.00800000E+00  0.00000000E+00  1.60000000E+01
  1.00800000E+00  1.00800000E+00  0.00000000E+00  1.60000000E+01  1.00800000E+00
  1.00800000E+00  0.00000000E+00  1.60000000E+01  1.00800000E+00  1.00800000E+00
  0.00000000E+00  1.60000000E+01  1.00800000E+00  1.00800000E+00  0.00000000E+00
  1.60000000E+01  1.00800000E+00  1.00800000E+00  0.00000000E+00  1.60000000E+01
  1.00800000E+00  1.00800000E+00  0.00000000E+00  1.60000000E+01  1.00800000E+00
  1.00800000E+00  0.00000000E+00  1.60000000E+01  1.00800000E+00  1.00800000E+00
  0.00000000E+00  1.60000000E+01  1.00800000E+00  1.00800000E+00  0.00000000E+00
  1.60000000E+01  1.00800000E+00  1.00800000E+00  0.00000000E+00  1.60000000E+01
  1.00800000E+00  1.00800000E+00  0.00000000E+00  1.60000000E+01  1.00800000E+00
  1.00800000E+00  0.00000000E+00  1.60000000E+01  1.00800000E+00  1.00800000E+00
  0.00000000E+00  1.60000000E+01  1.00800000E+00  1.00800000E+00  0.00000000E+00
  1.60000000E+01  1.00800000E+00  1.00800000E+00  0.00000000E+00  1.60000000E+01
  1.00800000E+00  1.00800000E+00  0.00000000E+00  1.60000000E+01  1.00800000E+00
  1.00800000E+00  0.00000000E+00  1.60000000E+01  1.00800000E+00  1.00800000E+00
  0.00000000E+00  1.60000000E+01  1.00800000E+00  1.00800000E+00  0.00000000E+00
  1.60000000E+01  1.00800000E+00  1.00800000E+00  0.00000000E+00  1.60000000E+01
  1.00800000E+00  1.00800000E+00  0.00000000E+00  1.60000000E+01  1.00800000E+00
  1.00800000E+00  0.00000000E+00  1.60000000E+01  1.00800000E+00  1.00800000E+00
  0.00000000E+00  1.60000000E+01  1.00800000E+00  1.00800000E+00  0.00000000E+00
  1.60000000E+01  1.00800000E+00  1.00800000E+00  0.00000000E+00  1.60000000E+01
  1.00800000E+00  1.00800000E+00  0.00000000E+00  1.60000000E+01  1.00800000E+00
  1.00800000E+00  0.00000000E+00  1.60000000E+01  1.00800000E+00  1.00800000E+00
  0.00000000E+00  1.60000000E+01  1.00800000E+00  1.00800000E+00  0.00000000E+00
  1.60000000E+01  1.00800000E+00  1.00800000E+00  0.00000000E+00  1.60000000E+01
  1.00800000E+00  1.00800000E+00  0.00000000E+00  1.60000000E+01  1.00800000E+00
  1.00800000E+00  0.00000000E+00  1.60000000E+01  1.00800000E+00  1.00800000E+00
  0.00000000E+00  1.60000000E+01  1.00800000E+00  1.00800000E+00  0.00000000E+00
  1.60000000E+01  1.00800000E+00  1.00800000E+00  0.00000000E+00  1.60000000E+01
  1.00800000E+00  1.00800000E+00  0.00000000E+00  1.60000000E+01  1.00800000E+00
  1.00800000E+00  0.00000000E+00  1.60000000E+01  1.00800000E+00  1.00800000E+00
  0.00000000E+00  1.60000000E+01  1.00800000E+00  1.00800000E+00  0.00000000E+00
  1.60000000E+01  1.00800000E+00  1.00800000E+00  0.00000000E+00  1.60000000E+01
  1.00800000E+00  1.00800000E+00  0.00000000E+00  1.60000000E+01  1.00800000E+00
  1.00800000E+00  0.00000000E+00  1.60000000E+01  1.00800000E+00  1.00800000E+00
  0.00000000E+00  1.60000000E+01  1.00800000E+00  1.00800000E+00  0.00000000E+00
  1.60000000E+01  1.00800000E+00  1.00800000E+00  0.00000000E+00  1.60000000E+01
  1.00800000E+00  1.00800000E+00  0.00000000E+00  1.60000000E+01  1.00800000E+00
  1.00800000E+00  0.00000000E+00  1.60000000E+01  1.00800000E+00  1.00800000E+00
  0.00000000E+00  1.60000000E+01  1.00800000E+00  1.00800000E+00  0.00000000E+00
  1.60000000E+01  1.00800000E+00  1.00800000E+00  0.00000000E+00  1.60000000E+01
  1.00800000E+00  1.00800000E+00  0.00000000E+00  1.60000000E+01  1.00800000E+00
  1.00800000E+00  0.00000000E+00  1.60000000E+01  1.00800000E+00  1.00800000E+00
  0.00000000E+00  1.60000000E+01  1.00800000E+00  1.00800000E+00  0.00000000E+00
  1.60000000E+01  1.00800000E+00  1.00800000E+00  0.00000000E+00  1.60000000E+01
  1.00800000E+00  1.00800000E+00  0.00000000E+00  1.60000000E+01  1.00800000E+00
  1.00800000E+00  0.00000000E+00  1.60000000E+01  1.00800000E+00  1.00800000E+00
  0.00000000E+00  1.60000000E+01  1.00800000E+00  1.00800000E+00  0.00000000E+00
  1.60000000E+01  1.00800000E+00  1.00800000E+00  0.00000000E+00  1.60000000E+01
  1.00800000E+00  1.00800000E+00  0.00000000E+00  1.60000000E+01  1.00800000E+00
  1.00800000E+00  0.00000000E+00  1.60000000E+01  1.00800000E+00  1.00800000E+00
  0.00000000E+00  1.60000000E+01  1.00800000E+00  1.00800000E+00  0.00000000E+00
  1.60000000E+01  1.00800000E+00  1.00800000E+00  0.00000000E+00  1.60000000E+01
  1.00800000E+00  1.00800000E+00  0.00000000E+00  1.60000000E+01  1.00800000E+00
  1.00800000E+00  0.00000000E+00  1.60000000E+01  1.00800000E+00  1.00800000E+00
  0.00000000E+00  1.60000000E+01  1.00800000E+00  1.00800000E+00  0.00000000E+00
  1.60000000E+01  1.00800000E+00  1.00800000E+00  0.00000000E+00  1.60000000E+01
  1.00800000E+00  1.00800000E+00  0.00000000E+00  1.60000000E+01  1.00800000E+00
  1.00800000E+00  0.00000000E+00  1.60000000E+01  1.00800000E+00  1.00800000E+00
  0.00000000E+00  1.60000000E+01  1.00800000E+00  1.00800000E+00  0.00000000E+00
  1.60000000E+01  1.00800000E+00  1.00800000E+00  0.00000000E+00  1.60000000E+01
  1.00800000E+00  1.00800000E+00  0.00000000E+00  1.60000000E+01  1.00800000E+00
  1.00800000E+00  0.00000000E+00  1.60000000E+01  1.00800000E+00  1.00800000E+00
  0.00000000E+00  1.60000000E+01  1.00800000E+00  1.00800000E+00  0.00000000E+00
  1.60000000E+01  1.00800000E+00  1.00800000E+00  0.00000000E+00  1.60000000E+01
  1.00800000E+00  1.00800000E+00  0.00000000E+00  1.60000000E+01  1.00800000E+00
  1.00800000E+00  0.00000000E+00  1.60000000E+01  1.00800000E+00  1.00800000E+00
  0.00000000E+00  1.60000000E+01  1.00800000E+00  1.00800000E+00  0.00000000E+00
  1.60000000E+01  1.00800000E+00  1.00800000E+00  0.00000000E+00  1.60000000E+01
  1.00800000E+00  1.00800000E+00  0.00000000E+00  1.60000000E+01  1.00800000E+00
  1.00800000E+00  0.00000000E+00  1.60000000E+01  1.00800000E+00  1.00800000E+00
  0.00000000E+00  1.60000000E+01  1.00800000E+00  1.00800000E+00  0.00000000E+00
  1.60000000E+01  1.00800000E+00  1.00800000E+00  0.00000000E+00  1.60000000E+01
  1.00800000E+00  1.00800000E+00  0.00000000E+00  1.60000000E+01  1.00800000E+00
  1.00800000E+00  0.00000000E+00  1.60000000E+01  1.00800000E+00  1.00800000E+00
  0.00000000E+00  1.60000000E+01  1.00800000E+00  1.00800000E+00  0.00000000E+00
  1.60000000E+01  1.00800000E+00  1.00800000E+00  0.00000000E+00  1.60000000E+01
  1.00800000E+00  1.00800000E+00  0.00000000E+00  1.60000000E+01  1.00800000E+00
  1.00800000E+00  0.00000000E+00  1.60000000E+01  1.00800000E+00  1.00800000E+00
  0.00000000E+00  1.60000000E+01  1.00800000E+00  1.00800000E+00  0.00000000E+00
  1.60000000E+01  1.00800000E+00  1.00800000E+00  0.00000000E+00  1.60000000E+01
  1.00800000E+00  1.00800000E+00  0.00000000E+00  1.60000000E+01  1.00800000E+00
  1.00800000E+00  0.00000000E+00  1.60000000E+01  1.00800000E+00  1.00800000E+00
  0.00000000E+00  1.60000000E+01  1.00800000E+00  1.00800000E+00  0.00000000E+00
  1.60000000E+01  1.00800000E+00  1.00800000E+00  0.00000000E+00  1.60000000E+01
  1.00800000E+00  1.00800000E+00  0.00000000E+00  1.60000000E+01  1.00800000E+00
  1.00800000E+00  0.00000000E+00  1.60000000E+01  1.00800000E+00  1.00800000E+00
  0.00000000E+00  1.60000000E+01  1.00800000E+00  1.00800000E+00  0.00000000E+00
  1.60000000E+01  1.00800000E+00  1.00800000E+00  0.00000000E+00  1.60000000E+01
  1.00800000E+00  1.00800000E+00  0.00000000E+00  1.60000000E+01  1.00800000E+00
  1.00800000E+00  0.00000000E+00  1.60000000E+01  1.00800000E+00  1.00800000E+00
  0.00000000E+00  1.60000000E+01  1.00800000E+00  1.00800000E+00  0.00000000E+00
  1.60000000E+01  1.00800000E+00  1.00800000E+00  0.00000000E+00  1.60000000E+01
  1.00800000E+00  1.00800000E+00  0.00000000E+00  1.60000000E+01  1.00800000E+00
  1.00800000E+00  0.00000000E+00  1.60000000E+01  1.00800000E+00  1.00800000E+00
  0.00000000E+00  1.60000000E+01  1.00800000E+00  1.00800000E+00  0.00000000E+00
  1.60000000E+01  1.00800000E+00  1.00800000E+00  0.00000000E+00  1.60000000E+01
  1.00800000E+00  1.00800000E+00  0.00000000E+00  1.60000000E+01  1.00800000E+00
  1.00800000E+00  0.00000000E+00  1.60000000E+01  1.00800000E+00  1.00800000E+00
  0.00000000E+00  1.60000000E+01  1.00800000E+00  1.00800000E+00  0.00000000E+00
  1.60000000E+01  1.00800000E+00  1.00800000E+00  0.00000000E+00  1.60000000E+01
  1.00800000E+00  1.00800000E+00  0.00000000E+00  1.60000000E+01  1.00800000E+00
  1.00800000E+00  0.00000000E+00  1.60000000E+01  1.00800000E+00  1.00800000E+00
  0.00000000E+00  1.60000000E+01  1.00800000E+00  1.00800000E+00  0.00000000E+00
  1.60000000E+01  1.00800000E+00  1.00800000E+00  0.00000000E+00  1.60000000E+01
  1.00800000E+00  1.00800000E+00  0.00000000E+00  1.60000000E+01  1.00800000E+00
  1.00800000E+00  0.00000000E+00  1.60000000E+01  1.00800000E+00  1.00800000E+00
  0.00000000E+00  1.60000000E+01  1.00800000E+00  1.00800000E+00  0.00000000E+00
  1.60000000E+01  1.00800000E+00  1.00800000E+00  0.00000000E+00  1.60000000E+01
  1.00800000E+00  1.00800000E+00  0.00000000E+00  1.60000000E+01  1.00800000E+00
  1.00800000E+00  0.00000000E+00  1.60000000E+01  1.00800000E+00  1.00800000E+00
  0.00000000E+00  1.60000000E+01  1.00800000E+00  1.00800000E+00  0.00000000E+00
  1.60000000E+01  1.00800000E+00  1.00800000E+00  0.00000000E+00  1.60000000E+01
  1.00800000E+00  1.00800000E+00  0.00000000E+00  1.60000000E+01  1.00800000E+00
  1.00800000E+00  0.00000000E+00  1.60000000E+01  1.00800000E+00  1.00800000E+00
  0.00000000E+00  1.60000000E+01  1.00800000E+00  1.00800000E+00  0.00000000E+00
  1.60000000E+01  1.00800000E+00  1.00800000E+00  0.00000000E+00  1.60000000E+01
  1.00800000E+00  1.00800000E+00  0.00000000E+00  1.60000000E+01  1.00800000E+00
  1.00800000E+00  0.00000000E+00  1.60000000E+01  1.00800000E+00  1.00800000E+00
  0.00000000E+00  1.60000000E+01  1.00800000E+00  1.00800000E+00  0.00000000E+00
  1.60000000E+01  1.00800000E+00  1.00800000E+00  0.00000000E+00  1.60000000E+01
  1.00800000E+00  1.00800000E+00  0.00000000E+00  1.60000000E+01  1.00800000E+00
  1.00800000E+00  0.00000000E+00  1.60000000E+01  1.00800000E+00  1.00800000E+00
  0.00000000E+00  1.60000000E+01  1.00800000E+00  1.00800000E+00  0.00000000E+00
  1.60000000E+01  1.00800000E+00  1.00800000E+00  0.00000000E+00  1.60000000E+01
  1.00800000E+00  1.00800000E+00  0.00000000E+00  1.60000000E+01  1.00800000E+00
  1.00800000E+00  0.00000000E+00  1.60000000E+01  1.00800000E+00  1.00800000E+00
  0.00000000E+00  1.60000000E+01  1.00800000E+00  1.00800000E+00  0.00000000E+00
  1.60000000E+01  1.00800000E+00  1.00800000E+00  0.00000000E+00  1.60000000E+01
  1.00800000E+00  1.00800000E+00  0.00000000E+00  1.60000000E+01  1.00800000E+00
  1.00800000E+00  0.00000000E+00  1.60000000E+01  1.00800000E+00  1.00800000E+00
  0.00000000E+00  1.60000000E+01  1.00800000E+00  1.00800000E+00  0.00000000E+00
  1.60000000E+01  1.00800000E+00  1.00800000E+00  0.00000000E+00  1.60000000E+01
  1.00800000E+00  1.00800000E+00  0.00000000E+00  1.60000000E+01  1.00800000E+00
  1.00800000E+00  0.00000000E+00  1.60000000E+01  1.00800000E+00  1.00800000E+00
  0.00000000E+00  1.60000000E+01  1.00800000E+00  1.00800000E+00  0.00000000E+00
  1.60000000E+01  1.00800000E+00  1.00800000E+00  0.00000000E+00  1.60000000E+01
  1.00800000E+00  1.00800000E+00  0.00000000E+00  1.60000000E+01  1.00800000E+00
  1.00800000E+00  0.00000000E+00  1.60000000E+01  1.00800000E+00  1.00800000E+00
  0.00000000E+00  1.60000000E+01  1.00800000E+00  1.00800000E+00  0.00000000E+00
  1.60000000E+01  1.00800000E+00  1.00800000E+00  0.00000000E+00  1.60000000E+01
  1.00800000E+00  1.00800000E+00  0.00000000E+00  1.60000000E+01  1.00800000E+00
  1.00800000E+00  0.00000000E+00  1.60000000E+01  1.00800000E+00  1.00800000E+00
  0.00000000E+00  1.60000000E+01  1.00800000E+00  1.00800000E+00  0.00000000E+00
  1.60000000E+01  1.00800000E+00  1.00800000E+00  0.00000000E+00  1.60000000E+01
  1.00800000E+00  1.00800000E+00  0.00000000E+00  1.60000000E+01  1.00800000E+00
  1.00800000E+00  0.00000000E+00  1.60000000E+01  1.00800000E+00  1.00800000E+00
  0.00000000E+00  1.60000000E+01  1.00800000E+00  1.00800000E+00  0.00000000E+00
  1.60000000E+01  1.00800000E+00  1.00800000E+00  0.00000000E+00  1.60000000E+01
  1.00800000E+00  1.00800000E+00  0.00000000E+00  1.60000000E+01  1.00800000E+00
  1.00800000E+00  0.00000000E+00  1.60000000E+01  1.00800000E+00  1.00800000E+00
  0.00000000E+00  1.60000000E+01  1.00800000E+00  1.00800000E+00  0.00000000E+00
  1.60000000E+01  1.00800000E+00  1.00800000E+00  0.00000000E+00  1.60000000E+01
  1.00800000E+00  1.00800000E+00  0.00000000E+00  1.60000000E+01  1.00800000E+00
  1.00800000E+00  0.00000000E+00  1.60000000E+01  1.00800000E+00  1.00800000E+00
  0.00000000E+00  1.60000000E+01  1.00800000E+00  1.00800000E+00  0.00000000E+00
  1.60000000E+01  1.00800000E+00  1.00800000E+00  0.00000000E+00  1.60000000E+01
  1.00800000E+00  1.00800000E+00  0.00000000E+00  1.60000000E+01  1.00800000E+00
  1.00800000E+00  0.00000000E+00  1.60000000E+01  1.00800000E+00  1.00800000E+00
  0.00000000E+00  1.60000000E+01  1.00800000E+00  1.00800000E+00  0.00000000E+00
  1.60000000E+01  1.00800000E+00  1.00800000E+00  0.00000000E+00  1.60000000E+01
  1.00800000E+00  1.00800000E+00  0.00000000E+00  1.60000000E+01  1.00800000E+00
  1.00800000E+00  0.00000000E+00  1.60000000E+01  1.00800000E+00  1.00800000E+00
  0.00000000E+00  1.60000000E+01  1.00800000E+00  1.00800000E+00  0.00000000E+00
  1.60000000E+01  1.00800000E+00  1.00800000E+00  0.00000000E+00  1.60000000E+01
  1.00800000E+00  1.00800000E+00  0.00000000E+00  1.60000000E+01  1.00800000E+00
  1.00800000E+00  0.00000000E+00  1.60000000E+01  1.00800000E+00  1.00800000E+00
  0.00000000E+00  1.60000000E+01  1.00800000E+00  1.00800000E+00  0.00000000E+00
  1.60000000E+01  1.00800000E+00  1.00800000E+00  0.00000000E+00  1.60000000E+01
  1.00800000E+00  1.00800000E+00  0.00000000E+00  1.60000000E+01  1.00800000E+00
  1.00800000E+00  0.00000000E+00  1.60000000E+01  1.00800000E+00  1.00800000E+00
  0.00000000E+00  1.60000000E+01  1.00800000E+00  1.00800000E+00  0.00000000E+00
  1.60000000E+01  1.00800000E+00  1.00800000E+00  0.00000000E+00  1.60000000E+01
  1.00800000E+00  1.00800000E+00  0.00000000E+00  1.60000000E+01  1.00800000E+00
  1.00800000E+00  0.00000000E+00  1.60000000E+01  1.00800000E+00  1.00800000E+00
  0.00000000E+00  1.60000000E+01  1.00800000E+00  1.00800000E+00  0.00000000E+00
  1.60000000E+01  1.00800000E+00  1.00800000E+00  0.00000000E+00  1.60000000E+01
  1.00800000E+00  1.00800000E+00  0.00000000E+00  1.60000000E+01  1.00800000E+00
  1.00800000E+00  0.00000000E+00  1.60000000E+01  1.00800000E+00  1.00800000E+00
  0.00000000E+00  1.60000000E+01  1.00800000E+00  1.00800000E+00  0.00000000E+00
  1.60000000E+01  1.00800000E+00  1.00800000E+00  0.00000000E+00  1.60000000E+01
  1.00800000E+00  1.00800000E+00  0.00000000E+00  1.60000000E+01  1.00800000E+00
  1.00800000E+00  0.00000000E+00  1.60000000E+01  1.00800000E+00  1.00800000E+00
  0.00000000E+00  1.60000000E+01  1.00800000E+00  1.00800000E+00  0.00000000E+00
  1.60000000E+01  1.00800000E+00  1.00800000E+00  0.00000000E+00  1.60000000E+01
  1.00800000E+00  1.00800000E+00  0.00000000E+00  1.60000000E+01  1.00800000E+00
  1.00800000E+00  0.00000000E+00  1.60000000E+01  1.00800000E+00  1.00800000E+00
  0.00000000E+00  1.60000000E+01  1.00800000E+00  1.00800000E+00  0.00000000E+00
  1.60000000E+01  1.00800000E+00  1.00800000E+00  0.00000000E+00  1.60000000E+01
  1.00800000E+00  1.00800000E+00  0.00000000E+00  1.60000000E+01  1.00800000E+00
  1.00800000E+00  0.00000000E+00  1.60000000E+01  1.00800000E+00  1.00800000E+00
  0.00000000E+00  1.60000000E+01  1.00800000E+00  1.00800000E+00  0.00000000E+00
  1.60000000E+01  1.00800000E+00  1.00800000E+00  0.00000000E+00  1.60000000E+01
  1.00800000E+00  1.00800000E+00  0.00000000E+00  1.60000000E+01  1.00800000E+00
  1.00800000E+00  0.00000000E+00  1.60000000E+01  1.00800000E+00  1.00800000E+00
  0.00000000E+00  1.60000000E+01  1.00800000E+00  1.00800000E+00  0.00000000E+00
  1.60000000E+01  1.00800000E+00  1.00800000E+00  0.00000000E+00  1.60000000E+01
  1.00800000E+00  1.00800000E+00  0.00000000E+00  1.60000000E+01  1.00800000E+00
  1.00800000E+00  0.00000000E+00  1.60000000E+01  1.00800000E+00  1.00800000E+00
  0.00000000E+00  1.60000000E+01  1.00800000E+00  1.00800000E+00  0.00000000E+00
  1.60000000E+01  1.00800000E+00  1.00800000E+00  0.00000000E+00  1.60000000E+01
  1.00800000E+00  1.00800000E+00  0.00000000E+00  1.60000000E+01  1.00800000E+00
  1.00800000E+00  0.00000000E+00  1.60000000E+01  1.00800000E+00  1.00800000E+00
  0.00000000E+00  1.60000000E+01  1.00800000E+00  1.00800000E+00  0.00000000E+00
  1.60000000E+01  1.00800000E+00  1.00800000E+00  0.00000000E+00  1.60000000E+01
  1.00800000E+00  1.00800000E+00  0.00000000E+00  1.60000000E+01  1.00800000E+00
  1.00800000E+00  0.00000000E+00  1.60000000E+01  1.00800000E+00  1.00800000E+00
  0.00000000E+00  1.60000000E+01  1.00800000E+00  1.00800000E+00  0.00000000E+00
  1.60000000E+01  1.00800000E+00  1.00800000E+00  0.00000000E+00  1.60000000E+01
  1.00800000E+00  1.00800000E+00  0.00000000E+00  1.60000000E+01  1.00800000E+00
  1.00800000E+00  0.00000000E+00  1.60000000E+01  1.00800000E+00  1.00800000E+00
  0.00000000E+00  1.60000000E+01  1.00800000E+00  1.00800000E+00  0.00000000E+00
  1.60000000E+01  1.00800000E+00  1.00800000E+00  0.00000000E+00  1.60000000E+01
  1.00800000E+00  1.00800000E+00  0.00000000E+00  1.60000000E+01  1.00800000E+00
  1.00800000E+00  0.00000000E+00  1.60000000E+01  1.00800000E+00  1.00800000E+00
  0.00000000E+00  1.60000000E+01  1.00800000E+00  1.00800000E+00  0.00000000E+00
  1.60000000E+01  1.00800000E+00  1.00800000E+00  0.00000000E+00  1.60000000E+01
  1.00800000E+00  1.00800000E+00  0.00000000E+00  1.60000000E+01  1.00800000E+00
  1.00800000E+00  0.00000000E+00  1.60000000E+01  1.00800000E+00  1.00800000E+00
  0.00000000E+00  1.60000000E+01  1.00800000E+00  1.00800000E+00  0.00000000E+00
  1.60000000E+01  1.00800000E+00  1.00800000E+00  0.00000000E+00  1.60000000E+01
  1.00800000E+00  1.00800000E+00  0.00000000E+00  1.60000000E+01  1.00800000E+00
  1.00800000E+00  0.00000000E+00  1.60000000E+01  1.00800000E+00  1.00800000E+00
  0.00000000E+00  1.60000000E+01  1.00800000E+00  1.00800000E+00  0.00000000E+00
  1.60000000E+01  1.00800000E+00  1.00800000E+00  0.00000000E+00  1.60000000E+01
  1.00800000E+00  1.00800000E+00  0.00000000E+00  1.60000000E+01  1.00800000E+00
  1.00800000E+00  0.00000000E+00  1.60000000E+01  1.00800000E+00  1.00800000E+00
  0.00000000E+00  1.60000000E+01  1.00800000E+00  1.00800000E+00  0.00000000E+00
  1.60000000E+01  1.00800000E+00  1.00800000E+00  0.00000000E+00  1.60000000E+01
  1.00800000E+00  1.00800000E+00  0.00000000E+00  1.60000000E+01  1.00800000E+00
  1.00800000E+00  0.00000000E+00  1.60000000E+01  1.00800000E+00  1.00800000E+00
  0.00000000E+00  1.60000000E+01  1.00800000E+00  1.00800000E+00  0.00000000E+00
  1.60000000E+01  1.00800000E+00  1.00800000E+00  0.00000000E+00  1.60000000E+01
  1.00800000E+00  1.00800000E+00  0.00000000E+00  1.60000000E+01  1.00800000E+00
  1.00800000E+00  0.00000000E+00  1.60000000E+01  1.00800000E+00  1.00800000E+00
  0.00000000E+00  1.60000000E+01  1.00800000E+00  1.00800000E+00  0.00000000E+00
  1.60000000E+01  1.00800000E+00  1.00800000E+00  0.00000000E+00  1.60000000E+01
  1.00800000E+00  1.00800000E+00  0.00000000E+00  1.60000000E+01  1.00800000E+00
  1.00800000E+00  0.00000000E+00  1.60000000E+01  1.00800000E+00  1.00800000E+00
  0.00000000E+00  1.60000000E+01  1.00800000E+00  1.00800000E+00  0.00000000E+00
  1.60000000E+01  1.00800000E+00  1.00800000E+00  0.00000000E+00  1.60000000E+01
  1.00800000E+00  1.00800000E+00  0.00000000E+00  1.60000000E+01  1.00800000E+00
  1.00800000E+00  0.00000000E+00  1.60000000E+01  1.00800000E+00  1.00800000E+00
  0.00000000E+00  1.60000000E+01  1.00800000E+00  1.00800000E+00  0.00000000E+00
  1.60000000E+01  1.00800000E+00  1.00800000E+00  0.00000000E+00  1.60000000E+01
  1.00800000E+00  1.00800000E+00  0.00000000E+00  1.60000000E+01  1.00800000E+00
  1.00800000E+00  0.00000000E+00  1.60000000E+01  1.00800000E+00  1.00800000E+00
  0.00000000E+00  1.60000000E+01  1.00800000E+00  1.00800000E+00  0.00000000E+00
  1.60000000E+01  1.00800000E+00  1.00800000E+00  0.00000000E+00  1.60000000E+01
  1.00800000E+00  1.00800000E+00  0.00000000E+00  1.60000000E+01  1.00800000E+00
  1.00800000E+00  0.00000000E+00  1.60000000E+01  1.00800000E+00  1.00800000E+00
  0.00000000E+00  1.60000000E+01  1.00800000E+00  1.00800000E+00  0.00000000E+00
  1.60000000E+01  1.00800000E+00  1.00800000E+00  0.00000000E+00  1.60000000E+01
  1.00800000E+00  1.00800000E+00  0.00000000E+00  1.60000000E+01  1.00800000E+00
  1.00800000E+00  0.00000000E+00  1.60000000E+01  1.00800000E+00  1.00800000E+00
  0.00000000E+00  1.60000000E+01  1.00800000E+00  1.00800000E+00  0.00000000E+00
  1.60000000E+01  1.00800000E+00  1.00800000E+00  0.00000000E+00  1.60000000E+01
  1.00800000E+00  1.00800000E+00  0.00000000E+00  1.60000000E+01  1.00800000E+00
  1.00800000E+00  0.00000000E+00  1.60000000E+01  1.00800000E+00  1.00800000E+00
  0.00000000E+00  1.60000000E+01  1.00800000E+00  1.00800000E+00  0.00000000E+00
  1.60000000E+01  1.00800000E+00  1.00800000E+00  0.00000000E+00  1.60000000E+01
  1.00800000E+00  1.00800000E+00  0.00000000E+00  1.60000000E+01  1.00800000E+00
  1.00800000E+00  0.00000000E+00  1.60000000E+01  1.00800000E+00  1.00800000E+00
  0.00000000E+00  1.60000000E+01  1.00800000E+00  1.00800000E+00  0.00000000E+00
  1.60000000E+01  1.00800000E+00  1.00800000E+00  0.00000000E+00  1.60000000E+01
  1.00800000E+00  1.00800000E+00  0.00000000E+00  1.60000000E+01  1.00800000E+00
  1.00800000E+00  0.00000000E+00  1.60000000E+01  1.00800000E+00  1.00800000E+00
  0.00000000E+00  1.60000000E+01  1.00800000E+00  1.00800000E+00  0.00000000E+00
  1.60000000E+01  1.00800000E+00  1.00800000E+00  0.00000000E+00  1.60000000E+01
  1.00800000E+00  1.00800000E+00  0.00000000E+00  1.60000000E+01  1.00800000E+00
  1.00800000E+00  0.00000000E+00  1.60000000E+01  1.00800000E+00  1.00800000E+00
  0.00000000E+00  1.60000000E+01  1.00800000E+00  1.00800000E+00  0.00000000E+00
  1.60000000E+01  1.00800000E+00  1.00800000E+00  0.00000000E+00  1.60000000E+01
  1.00800000E+00  1.00800000E+00  0.00000000E+00  1.60000000E+01  1.00800000E+00
  1.00800000E+00  0.00000000E+00  1.60000000E+01  1.00800000E+00  1.00800000E+00
  0.00000000E+00  1.60000000E+01  1.00800000E+00  1.00800000E+00  0.00000000E+00
  1.60000000E+01  1.00800000E+00  1.00800000E+00  0.00000000E+00  1.60000000E+01
  1.00800000E+00  1.00800000E+00  0.00000000E+00  1.60000000E+01  1.00800000E+00
  1.00800000E+00  0.00000000E+00  1.60000000E+01  1.00800000E+00  1.00800000E+00
  0.00000000E+00  1.60000000E+01  1.00800000E+00  1.00800000E+00  0.00000000E+00
  1.60000000E+01  1.00800000E+00  1.00800000E+00  0.00000000E+00  1.60000000E+01
  1.00800000E+00  1.00800000E+00  0.00000000E+00  1.60000000E+01  1.00800000E+00
  1.00800000E+00  0.00000000E+00  1.60000000E+01  1.00800000E+00  1.00800000E+00
  0.00000000E+00  1.60000000E+01  1.00800000E+00  1.00800000E+00  0.00000000E+00
  1.60000000E+01  1.00800000E+00  1.00800000E+00  0.00000000E+00  1.60000000E+01
  1.00800000E+00  1.00800000E+00  0.00000000E+00  1.60000000E+01  1.00800000E+00
  1.00800000E+00  0.00000000E+00  1.60000000E+01  1.00800000E+00  1.00800000E+00
  0.00000000E+00  1.60000000E+01  1.00800000E+00  1.00800000E+00  0.00000000E+00
  1.60000000E+01  1.00800000E+00  1.00800000E+00  0.00000000E+00  1.60000000E+01
  1.00800000E+00  1.00800000E+00  0.00000000E+00  1.60000000E+01  1.00800000E+00
  1.00800000E+00  0.00000000E+00  1.60000000E+01  1.00800000E+00  1.00800000E+00
  0.00000000E+00  1.60000000E+01  1.00800000E+00  1.00800000E+00  0.00000000E+00
  1.60000000E+01  1.00800000E+00  1.00800000E+00  0.00000000E+00  1.60000000E+01
  1.00800000E+00  1.00800000E+00  0.00000000E+00  1.60000000E+01  1.00800000E+00
  1.00800000E+00  0.00000000E+00  1.60000000E+01  1.00800000E+00  1.00800000E+00
  0.00000000E+00  1.60000000E+01  1.00800000E+00  1.00800000E+00  0.00000000E+00
  1.60000000E+01  1.00800000E+00  1.00800000E+00  0.00000000E+00  1.60000000E+01
  1.00800000E+00  1.00800000E+00  0.00000000E+00  1.60000000E+01  1.00800000E+00
  1.00800000E+00  0.00000000E+00  1.60000000E+01  1.00800000E+00  1.00800000E+00
  0.00000000E+00  1.60000000E+01  1.00800000E+00  1.00800000E+00  0.00000000E+00
  1.60000000E+01  1.00800000E+00  1.00800000E+00  0.00000000E+00  1.60000000E+01
  1.00800000E+00  1.00800000E+00  0.00000000E+00  1.60000000E+01  1.00800000E+00
  1.00800000E+00  0.00000000E+00  1.60000000E+01  1.00800000E+00  1.00800000E+00
  0.00000000E+00  1.60000000E+01  1.00800000E+00  1.00800000E+00  0.00000000E+00
  1.60000000E+01  1.00800000E+00  1.00800000E+00  0.00000000E+00  1.60000000E+01
  1.00800000E+00  1.00800000E+00  0.00000000E+00  1.60000000E+01  1.00800000E+00
  1.00800000E+00  0.00000000E+00  1.60000000E+01  1.00800000E+00  1.00800000E+00
  0.00000000E+00  1.60000000E+01  1.00800000E+00  1.00800000E+00  0.00000000E+00
  1.60000000E+01  1.00800000E+00  1.00800000E+00  0.00000000E+00  1.60000000E+01
  1.00800000E+00  1.00800000E+00  0.00000000E+00  1.60000000E+01  1.00800000E+00
  1.00800000E+00  0.00000000E+00  1.60000000E+01  1.00800000E+00  1.00800000E+00
  0.00000000E+00  1.60000000E+01  1.00800000E+00  1.00800000E+00  0.00000000E+00
  1.60000000E+01  1.00800000E+00  1.00800000E+00  0.00000000E+00  1.60000000E+01
  1.00800000E+00  1.00800000E+00  0.00000000E+00  1.60000000E+01  1.00800000E+00
  1.00800000E+00  0.00000000E+00  1.60000000E+01  1.00800000E+00  1.00800000E+00
  0.00000000E+00  1.60000000E+01  1.00800000E+00  1.00800000E+00  0.00000000E+00
  1.60000000E+01  1.00800000E+00  1.00800000E+00  0.00000000E+00  1.60000000E+01
  1.00800000E+00  1.00800000E+00  0.00000000E+00  1.60000000E+01  1.00800000E+00
  1.00800000E+00  0.00000000E+00  1.60000000E+01  1.00800000E+00  1.00800000E+00
  0.00000000E+00  1.60000000E+01  1.00800000E+00  1.00800000E+00  0.00000000E+00
  1.60000000E+01  1.00800000E+00  1.00800000E+00  0.00000000E+00  1.60000000E+01
  1.00800000E+00  1.00800000E+00  0.00000000E+00  1.60000000E+01  1.00800000E+00
  1.00800000E+00  0.00000000E+00  1.60000000E+01  1.00800000E+00  1.00800000E+00
  0.00000000E+00  1.60000000E+01  1.00800000E+00  1.00800000E+00  0.00000000E+00
  1.60000000E+01  1.00800000E+00  1.00800000E+00  0.00000000E+00  1.60000000E+01
  1.00800000E+00  1.00800000E+00  0.00000000E+00  1.60000000E+01  1.00800000E+00
  1.00800000E+00  0.00000000E+00  1.60000000E+01  1.00800000E+00  1.00800000E+00
  0.00000000E+00  1.60000000E+01  1.00800000E+00  1.00800000E+00  0.00000000E+00
  1.60000000E+01  1.00800000E+00  1.00800000E+00  0.00000000E+00  1.60000000E+01
  1.00800000E+00  1.00800000E+00  0.00000000E+00  1.60000000E+01  1.00800000E+00
  1.00800000E+00  0.00000000E+00  1.60000000E+01  1.00800000E+00  1.00800000E+00
  0.00000000E+00  1.60000000E+01  1.00800000E+00  1.00800000E+00  0.00000000E+00
  1.60000000E+01  1.00800000E+00  1.00800000E+00  0.00000000E+00  1.60000000E+01
  1.00800000E+00  1.00800000E+00  0.00000000E+00  1.60000000E+01  1.00800000E+00
  1.00800000E+00  0.00000000E+00  1.60000000E+01  1.00800000E+00  1.00800000E+00
  0.00000000E+00  1.60000000E+01  1.00800000E+00  1.00800000E+00  0.00000000E+00
  1.60000000E+01  1.00800000E+00  1.00800000E+00  0.00000000E+00  1.60000000E+01
  1.00800000E+00  1.00800000E+00  0.00000000E+00  1.60000000E+01  1.00800000E+00
  1.00800000E+00  0.00000000E+00  1.60000000E+01  1.00800000E+00  1.00800000E+00
  0.00000000E+00  1.60000000E+01  1.00800000E+00  1.00800000E+00  0.00000000E+00
  1.60000000E+01  1.00800000E+00  1.00800000E+00  0.00000000E+00  1.60000000E+01
  1.00800000E+00  1.00800000E+00  0.00000000E+00  1.60000000E+01  1.00800000E+00
  1.00800000E+00  0.00000000E+00  1.60000000E+01  1.00800000E+00  1.00800000E+00
  0.00000000E+00  1.60000000E+01  1.00800000E+00  1.00800000E+00  0.00000000E+00
  1.60000000E+01  1.00800000E+00  1.00800000E+00  0.00000000E+00  1.60000000E+01
  1.00800000E+00  1.00800000E+00  0.00000000E+00  1.60000000E+01  1.00800000E+00
  1.00800000E+00  0.00000000E+00  1.60000000E+01  1.00800000E+00  1.00800000E+00
  0.00000000E+00  1.60000000E+01  1.00800000E+00  1.00800000E+00  0.00000000E+00
  1.60000000E+01  1.00800000E+00  1.00800000E+00  0.00000000E+00  1.60000000E+01
  1.00800000E+00  1.00800000E+00  0.00000000E+00  1.60000000E+01  1.00800000E+00
  1.00800000E+00  0.00000000E+00  1.60000000E+01  1.00800000E+00  1.00800000E+00
  0.00000000E+00  1.60000000E+01  1.00800000E+00  1.00800000E+00  0.00000000E+00
  1.60000000E+01  1.00800000E+00  1.00800000E+00  0.00000000E+00  1.60000000E+01
  1.00800000E+00  1.00800000E+00  0.00000000E+00  1.60000000E+01  1.00800000E+00
  1.00800000E+00  0.00000000E+00  1.60000000E+01  1.00800000E+00  1.00800000E+00
  0.00000000E+00  1.60000000E+01  1.00800000E+00  1.00800000E+00  0.00000000E+00
  1.60000000E+01  1.00800000E+00  1.00800000E+00  0.00000000E+00  1.60000000E+01
  1.00800000E+00  1.00800000E+00  0.00000000E+00  1.60000000E+01  1.00800000E+00
  1.00800000E+00  0.00000000E+00  1.60000000E+01  1.00800000E+00  1.00800000E+00
  0.00000000E+00  1.60000000E+01  1.00800000E+00  1.00800000E+00  0.00000000E+00
  1.60000000E+01  1.00800000E+00  1.00800000E+00  0.00000000E+00  1.60000000E+01
  1.00800000E+00  1.00800000E+00  0.00000000E+00  1.60000000E+01  1.00800000E+00
  1.00800000E+00  0.00000000E+00  1.60000000E+01  1.00800000E+00  1.00800000E+00
  0.00000000E+00  1.60000000E+01  1.00800000E+00  1.00800000E+00  0.00000000E+00
  1.60000000E+01  1.00800000E+00  1.00800000E+00  0.00000000E+00  1.60000000E+01
  1.00800000E+00  1.00800000E+00  0.00000000E+00  1.60000000E+01  1.00800000E+00
  1.00800000E+00  0.00000000E+00  1.60000000E+01  1.00800000E+00  1.00800000E+00
  0.00000000E+00  1.60000000E+01  1.00800000E+00  1.00800000E+00  0.00000000E+00
  1.60000000E+01  1.00800000E+00  1.00800000E+00  0.00000000E+00  1.60000000E+01
  1.00800000E+00  1.00800000E+00  0.00000000E+00  1.60000000E+01  1.00800000E+00
  1.00800000E+00  0.00000000E+00  1.60000000E+01  1.00800000E+00  1.00800000E+00
  0.00000000E+00  1.60000000E+01  1.00800000E+00  1.00800000E+00  0.00000000E+00
  1.60000000E+01  1.00800000E+00  1.00800000E+00  0.00000000E+00  1.60000000E+01
  1.00800000E+00  1.00800000E+00  0.00000000E+00  1.60000000E+01  1.00800000E+00
  1.00800000E+00  0.00000000E+00  1.60000000E+01  1.00800000E+00  1.00800000E+00
  0.00000000E+00  1.60000000E+01  1.00800000E+00  1.00800000E+00  0.00000000E+00
  1.60000000E+01  1.00800000E+00  1.00800000E+00  0.00000000E+00  1.60000000E+01
  1.00800000E+00  1.00800000E+00  0.00000000E+00  1.60000000E+01  1.00800000E+00
  1.00800000E+00  0.00000000E+00  1.60000000E+01  1.00800000E+00  1.00800000E+00
  0.00000000E+00  1.60000000E+01  1.00800000E+00  1.00800000E+00  0.00000000E+00
  1.60000000E+01  1.00800000E+00  1.00800000E+00  0.00000000E+00  1.60000000E+01
  1.00800000E+00  1.00800000E+00  0.00000000E+00  1.60000000E+01  1.00800000E+00
  1.00800000E+00  0.00000000E+00  1.60000000E+01  1.00800000E+00  1.00800000E+00
  0.00000000E+00  1.60000000E+01  1.00800000E+00  1.00800000E+00  0.00000000E+00
  1.60000000E+01  1.00800000E+00  1.00800000E+00  0.00000000E+00  1.60000000E+01
  1.00800000E+00  1.00800000E+00  0.00000000E+00  1.60000000E+01  1.00800000E+00
  1.00800000E+00  0.00000000E+00  1.60000000E+01  1.00800000E+00  1.00800000E+00
  0.00000000E+00  1.60000000E+01  1.00800000E+00  1.00800000E+00  0.00000000E+00
  1.60000000E+01  1.00800000E+00  1.00800000E+00  0.00000000E+00  1.60000000E+01
  1.00800000E+00  1.00800000E+00  0.00000000E+00  1.60000000E+01  1.00800000E+00
  1.00800000E+00  0.00000000E+00  1.60000000E+01  1.00800000E+00  1.00800000E+00
  0.00000000E+00  1.60000000E+01  1.00800000E+00  1.00800000E+00  0.00000000E+00
  1.60000000E+01  1.00800000E+00  1.00800000E+00  0.00000000E+00  1.60000000E+01
  1.00800000E+00  1.00800000E+00  0.00000000E+00  1.60000000E+01  1.00800000E+00
  1.00800000E+00  0.00000000E+00  1.60000000E+01  1.00800000E+00  1.00800000E+00
  0.00000000E+00  1.60000000E+01  1.00800000E+00  1.00800000E+00  0.00000000E+00
  1.60000000E+01  1.00800000E+00  1.00800000E+00  0.00000000E+00  1.60000000E+01
  1.00800000E+00  1.00800000E+00  0.00000000E+00  1.60000000E+01  1.00800000E+00
  1.00800000E+00  0.00000000E+00  1.60000000E+01  1.00800000E+00  1.00800000E+00
  0.00000000E+00  1.60000000E+01  1.00800000E+00  1.00800000E+00  0.00000000E+00
  1.60000000E+01  1.00800000E+00  1.00800000E+00  0.00000000E+00  1.60000000E+01
  1.00800000E+00  1.00800000E+00  0.00000000E+00  1.60000000E+01  1.00800000E+00
  1.00800000E+00  0.00000000E+00  1.60000000E+01  1.00800000E+00  1.00800000E+00
  0.00000000E+00  1.60000000E+01  1.00800000E+00  1.00800000E+00  0.00000000E+00
  1.60000000E+01  1.00800000E+00  1.00800000E+00  0.00000000E+00  1.60000000E+01
  1.00800000E+00  1.00800000E+00  0.00000000E+00  1.60000000E+01  1.00800000E+00
  1.00800000E+00  0.00000000E+00  1.60000000E+01  1.00800000E+00  1.00800000E+00
  0.00000000E+00  1.60000000E+01  1.00800000E+00  1.00800000E+00  0.00000000E+00
  1.60000000E+01  1.00800000E+00  1.00800000E+00  0.00000000E+00  1.60000000E+01
  1.00800000E+00  1.00800000E+00  0.00000000E+00  1.60000000E+01  1.00800000E+00
  1.00800000E+00  0.00000000E+00  1.60000000E+01  1.00800000E+00  1.00800000E+00
  0.00000000E+00  1.60000000E+01  1.00800000E+00  1.00800000E+00  0.00000000E+00
  1.60000000E+01  1.00800000E+00  1.00800000E+00  0.00000000E+00  1.60000000E+01
  1.00800000E+00  1.00800000E+00  0.00000000E+00  1.60000000E+01  1.00800000E+00
  1.00800000E+00  0.00000000E+00  1.60000000E+01  1.00800000E+00  1.00800000E+00
  0.00000000E+00  1.60000000E+01  1.00800000E+00  1.00800000E+00  0.00000000E+00
  1.60000000E+01  1.00800000E+00  1.00800000E+00  0.00000000E+00  1.60000000E+01
  1.00800000E+00  1.00800000E+00  0.00000000E+00  1.60000000E+01  1.00800000E+00
  1.00800000E+00  0.00000000E+00  1.60000000E+01  1.00800000E+00  1.00800000E+00
  0.00000000E+00  1.60000000E+01  1.00800000E+00  1.00800000E+00  0.00000000E+00
  1.60000000E+01  1.00800000E+00  1.00800000E+00  0.00000000E+00  1.60000000E+01
  1.00800000E+00  1.00800000E+00  0.00000000E+00  1.60000000E+01  1.00800000E+00
  1.00800000E+00  0.00000000E+00  1.60000000E+01  1.00800000E+00  1.00800000E+00
  0.00000000E+00  1.60000000E+01  1.00800000E+00  1.00800000E+00  0.00000000E+00
  1.60000000E+01  1.00800000E+00  1.00800000E+00  0.00000000E+00  1.60000000E+01
  1.00800000E+00  1.00800000E+00  0.00000000E+00  1.60000000E+01  1.00800000E+00
  1.00800000E+00  0.00000000E+00  1.60000000E+01  1.00800000E+00  1.00800000E+00
  0.00000000E+00  1.60000000E+01  1.00800000E+00  1.00800000E+00  0.00000000E+00
  1.60000000E+01  1.00800000E+00  1.00800000E+00  0.00000000E+00  1.60000000E+01
  1.00800000E+00  1.00800000E+00  0.00000000E+00  1.60000000E+01  1.00800000E+00
  1.00800000E+00  0.00000000E+00  1.60000000E+01  1.00800000E+00  1.00800000E+00
  0.00000000E+00  1.60000000E+01  1.00800000E+00  1.00800000E+00  0.00000000E+00
  1.60000000E+01  1.00800000E+00  1.00800000E+00  0.00000000E+00  1.60000000E+01
  1.00800000E+00  1.00800000E+00  0.00000000E+00  1.60000000E+01  1.00800000E+00
  1.00800000E+00  0.00000000E+00  1.60000000E+01  1.00800000E+00  1.00800000E+00
  0.00000000E+00  1.60000000E+01  1.00800000E+00  1.00800000E+00  0.00000000E+00
  1.60000000E+01  1.00800000E+00  1.00800000E+00  0.00000000E+00  1.60000000E+01
  1.00800000E+00  1.00800000E+00  0.00000000E+00  1.60000000E+01  1.00800000E+00
  1.00800000E+00  0.00000000E+00  1.60000000E+01  1.00800000E+00  1.00800000E+00
  0.00000000E+00  1.60000000E+01  1.00800000E+00  1.00800000E+00  0.00000000E+00
  1.60000000E+01  1.00800000E+00  1.00800000E+00  0.00000000E+00  1.60000000E+01
  1.00800000E+00  1.00800000E+00  0.00000000E+00  1.60000000E+01  1.00800000E+00
  1.00800000E+00  0.00000000E+00  1.60000000E+01  1.00800000E+00  1.00800000E+00
  0.00000000E+00  1.60000000E+01  1.00800000E+00  1.00800000E+00  0.00000000E+00
  1.60000000E+01  1.00800000E+00  1.00800000E+00  0.00000000E+00  1.60000000E+01
  1.00800000E+00  1.00800000E+00  0.00000000E+00  1.60000000E+01  1.00800000E+00
  1.00800000E+00  0.00000000E+00  1.60000000E+01  1.00800000E+00  1.00800000E+00
  0.00000000E+00  1.60000000E+01  1.00800000E+00  1.00800000E+00  0.00000000E+00
  1.60000000E+01  1.00800000E+00  1.00800000E+00  0.00000000E+00  1.60000000E+01
  1.00800000E+00  1.00800000E+00  0.00000000E+00  1.60000000E+01  1.00800000E+00
  1.00800000E+00  0.00000000E+00  1.60000000E+01  1.00800000E+00  1.00800000E+00
  0.00000000E+00  1.60000000E+01  1.00800000E+00  1.00800000E+00  0.00000000E+00
  1.60000000E+01  1.00800000E+00  1.00800000E+00  0.00000000E+00  1.60000000E+01
  1.00800000E+00  1.00800000E+00  0.00000000E+00  1.60000000E+01  1.00800000E+00
  1.00800000E+00  0.00000000E+00  1.60000000E+01  1.00800000E+00  1.00800000E+00
  0.00000000E+00  1.60000000E+01  1.00800000E+00  1.00800000E+00  0.00000000E+00
  1.60000000E+01  1.00800000E+00  1.00800000E+00  0.00000000E+00  1.60000000E+01
  1.00800000E+00  1.00800000E+00  0.00000000E+00  1.60000000E+01  1.00800000E+00
  1.00800000E+00  0.00000000E+00  1.60000000E+01  1.00800000E+00  1.00800000E+00
  0.00000000E+00  1.60000000E+01  1.00800000E+00  1.00800000E+00  0.00000000E+00
  1.60000000E+01  1.00800000E+00  1.00800000E+00  0.00000000E+00  1.60000000E+01
  1.00800000E+00  1.00800000E+00  0.00000000E+00  1.60000000E+01  1.00800000E+00
  1.00800000E+00  0.00000000E+00  1.60000000E+01  1.00800000E+00  1.00800000E+00
  0.00000000E+00  1.60000000E+01  1.00800000E+00  1.00800000E+00  0.00000000E+00
  1.60000000E+01  1.00800000E+00  1.00800000E+00  0.00000000E+00  1.60000000E+01
  1.00800000E+00  1.00800000E+00  0.00000000E+00  1.60000000E+01  1.00800000E+00
  1.00800000E+00  0.00000000E+00  1.60000000E+01  1.00800000E+00  1.00800000E+00
  0.00000000E+00  1.60000000E+01  1.00800000E+00  1.00800000E+00  0.00000000E+00
  1.60000000E+01  1.00800000E+00  1.00800000E+00  0.00000000E+00  1.60000000E+01
  1.00800000E+00  1.00800000E+00  0.00000000E+00  1.60000000E+01  1.00800000E+00
  1.00800000E+00  0.00000000E+00  1.60000000E+01  1.00800000E+00  1.00800000E+00
  0.00000000E+00  1.60000000E+01  1.00800000E+00  1.00800000E+00  0.00000000E+00
  1.60000000E+01  1.00800000E+00  1.00800000E+00  0.00000000E+00  1.60000000E+01
  1.00800000E+00  1.00800000E+00  0.00000000E+00  1.60000000E+01  1.00800000E+00
  1.00800000E+00  0.00000000E+00  1.60000000E+01  1.00800000E+00  1.00800000E+00
  0.00000000E+00  1.60000000E+01  1.00800000E+00  1.00800000E+00  0.00000000E+00
  1.60000000E+01  1.00800000E+00  1.00800000E+00  0.00000000E+00  1.60000000E+01
  1.00800000E+00  1.00800000E+00  0.00000000E+00  1.60000000E+01  1.00800000E+00
  1.00800000E+00  0.00000000E+00  1.60000000E+01  1.00800000E+00  1.00800000E+00
  0.00000000E+00  1.60000000E+01  1.00800000E+00  1.00800000E+00  0.00000000E+00
  1.60000000E+01  1.00800000E+00  1.00800000E+00  0.00000000E+00  1.60000000E+01
  1.00800000E+00  1.00800000E+00  0.00000000E+00  1.60000000E+01  1.00800000E+00
  1.00800000E+00  0.00000000E+00  1.60000000E+01  1.00800000E+00  1.00800000E+00
  0.00000000E+00  1.60000000E+01  1.00800000E+00  1.00800000E+00  0.00000000E+00
  1.60000000E+01  1.00800000E+00  1.00800000E+00  0.00000000E+00  1.60000000E+01
  1.00800000E+00  1.00800000E+00  0.00000000E+00  1.60000000E+01  1.00800000E+00
  1.00800000E+00  0.00000000E+00  1.60000000E+01  1.00800000E+00  1.00800000E+00
  0.00000000E+00  1.60000000E+01  1.00800000E+00  1.00800000E+00  0.00000000E+00
  1.60000000E+01  1.00800000E+00  1.00800000E+00  0.00000000E+00  1.60000000E+01
  1.00800000E+00  1.00800000E+00  0.00000000E+00  1.60000000E+01  1.00800000E+00
  1.00800000E+00  0.00000000E+00  1.60000000E+01  1.00800000E+00  1.00800000E+00
  0.00000000E+00  1.60000000E+01  1.00800000E+00  1.00800000E+00  0.00000000E+00
  1.60000000E+01  1.00800000E+00  1.00800000E+00  0.00000000E+00  1.60000000E+01
  1.00800000E+00  1.00800000E+00  0.00000000E+00  1.60000000E+01  1.00800000E+00
  1.00800000E+00  0.00000000E+00  1.60000000E+01  1.00800000E+00  1.00800000E+00
  0.00000000E+00  1.60000000E+01  1.00800000E+00  1.00800000E+00  0.00000000E+00
  1.60000000E+01  1.00800000E+00  1.00800000E+00  0.00000000E+00  1.60000000E+01
  1.00800000E+00  1.00800000E+00  0.00000000E+00  1.60000000E+01  1.00800000E+00
  1.00800000E+00  0.00000000E+00  1.60000000E+01  1.00800000E+00  1.00800000E+00
  0.00000000E+00  1.60000000E+01  1.00800000E+00  1.00800000E+00  0.00000000E+00
  1.60000000E+01  1.00800000E+00  1.00800000E+00  0.00000000E+00  1.60000000E+01
  1.00800000E+00  1.00800000E+00  0.00000000E+00  1.60000000E+01  1.00800000E+00
  1.00800000E+00  0.00000000E+00  1.60000000E+01  1.00800000E+00  1.00800000E+00
  0.00000000E+00  1.60000000E+01  1.00800000E+00  1.00800000E+00  0.00000000E+00
  1.60000000E+01  1.00800000E+00  1.00800000E+00  0.00000000E+00  1.60000000E+01
  1.00800000E+00  1.00800000E+00  0.00000000E+00  1.60000000E+01  1.00800000E+00
  1.00800000E+00  0.00000000E+00  1.60000000E+01  1.00800000E+00  1.00800000E+00
  0.00000000E+00  1.60000000E+01  1.00800000E+00  1.00800000E+00  0.00000000E+00
  1.60000000E+01  1.00800000E+00  1.00800000E+00  0.00000000E+00  1.60000000E+01
  1.00800000E+00  1.00800000E+00  0.00000000E+00  1.60000000E+01  1.00800000E+00
  1.00800000E+00  0.00000000E+00  1.60000000E+01  1.00800000E+00  1.00800000E+00
  0.00000000E+00  1.60000000E+01  1.00800000E+00  1.00800000E+00  0.00000000E+00
  1.60000000E+01  1.00800000E+00  1.00800000E+00  0.00000000E+00  1.60000000E+01
  1.00800000E+00  1.00800000E+00  0.00000000E+00  1.60000000E+01  1.00800000E+00
  1.00800000E+00  0.00000000E+00  1.60000000E+01  1.00800000E+00  1.00800000E+00
  0.00000000E+00  1.60000000E+01  1.00800000E+00  1.00800000E+00  0.00000000E+00
  1.60000000E+01  1.00800000E+00  1.00800000E+00  0.00000000E+00  1.60000000E+01
  1.00800000E+00  1.00800000E+00  0.00000000E+00  1.60000000E+01  1.00800000E+00
  1.00800000E+00  0.00000000E+00  1.60000000E+01  1.00800000E+00  1.00800000E+00
  0.00000000E+00  1.60000000E+01  1.00800000E+00  1.00800000E+00  0.00000000E+00
  1.60000000E+01  1.00800000E+00  1.00800000E+00  0.00000000E+00  1.60000000E+01
  1.00800000E+00  1.00800000E+00  0.00000000E+00  1.60000000E+01  1.00800000E+00
  1.00800000E+00  0.00000000E+00  1.60000000E+01  1.00800000E+00  1.00800000E+00
  0.00000000E+00  1.60000000E+01  1.00800000E+00  1.00800000E+00  0.00000000E+00
  1.60000000E+01  1.00800000E+00  1.00800000E+00  0.00000000E+00  1.60000000E+01
  1.00800000E+00  1.00800000E+00  0.00000000E+00  1.60000000E+01  1.00800000E+00
  1.00800000E+00  0.00000000E+00  1.60000000E+01  1.00800000E+00  1.00800000E+00
  0.00000000E+00  1.60000000E+01  1.00800000E+00  1.00800000E+00  0.00000000E+00
  1.60000000E+01  1.00800000E+00  1.00800000E+00  0.00000000E+00  1.60000000E+01
  1.00800000E+00  1.00800000E+00  0.00000000E+00  1.60000000E+01  1.00800000E+00
  1.00800000E+00  0.00000000E+00  1.60000000E+01  1.00800000E+00  1.00800000E+00
  0.00000000E+00  1.60000000E+01  1.00800000E+00  1.00800000E+00  0.00000000E+00
  1.60000000E+01  1.00800000E+00  1.00800000E+00  0.00000000E+00  1.60000000E+01
  1.00800000E+00  1.00800000E+00  0.00000000E+00  1.60000000E+01  1.00800000E+00
  1.00800000E+00  0.00000000E+00  1.60000000E+01  1.00800000E+00  1.00800000E+00
  0.00000000E+00  1.60000000E+01  1.00800000E+00  1.00800000E+00  0.00000000E+00
  1.60000000E+01  1.00800000E+00  1.00800000E+00  0.00000000E+00  1.60000000E+01
  1.00800000E+00  1.00800000E+00  0.00000000E+00  1.60000000E+01  1.00800000E+00
  1.00800000E+00  0.00000000E+00  1.60000000E+01  1.00800000E+00  1.00800000E+00
  0.00000000E+00  1.60000000E+01  1.00800000E+00  1.00800000E+00  0.00000000E+00
  1.60000000E+01  1.00800000E+00  1.00800000E+00  0.00000000E+00  1.60000000E+01
  1.00800000E+00  1.00800000E+00  0.00000000E+00  1.60000000E+01  1.00800000E+00
  1.00800000E+00  0.00000000E+00  1.60000000E+01  1.00800000E+00  1.00800000E+00
  0.00000000E+00  1.60000000E+01  1.00800000E+00  1.00800000E+00  0.00000000E+00
  1.60000000E+01  1.00800000E+00  1.00800000E+00  0.00000000E+00  1.60000000E+01
  1.00800000E+00  1.00800000E+00  0.00000000E+00  1.60000000E+01  1.00800000E+00
  1.00800000E+00  0.00000000E+00  1.60000000E+01  1.00800000E+00  1.00800000E+00
  0.00000000E+00  1.60000000E+01  1.00800000E+00  1.00800000E+00  0.00000000E+00
  1.60000000E+01  1.00800000E+00  1.00800000E+00  0.00000000E+00  1.60000000E+01
  1.00800000E+00  1.00800000E+00  0.00000000E+00  1.60000000E+01  1.00800000E+00
  1.00800000E+00  0.00000000E+00  1.60000000E+01  1.00800000E+00  1.00800000E+00
  0.00000000E+00  1.60000000E+01  1.00800000E+00  1.00800000E+00  0.00000000E+00
  1.60000000E+01  1.00800000E+00  1.00800000E+00  0.00000000E+00  1.60000000E+01
  1.00800000E+00  1.00800000E+00  0.00000000E+00  1.60000000E+01  1.00800000E+00
  1.00800000E+00  0.00000000E+00  1.60000000E+01  1.00800000E+00  1.00800000E+00
  0.00000000E+00  1.60000000E+01  1.00800000E+00  1.00800000E+00  0.00000000E+00
  1.60000000E+01  1.00800000E+00  1.00800000E+00  0.00000000E+00  1.60000000E+01
  1.00800000E+00  1.00800000E+00  0.00000000E+00  1.60000000E+01  1.00800000E+00
  1.00800000E+00  0.00000000E+00  1.60000000E+01  1.00800000E+00  1.00800000E+00
  0.00000000E+00  1.60000000E+01  1.00800000E+00  1.00800000E+00  0.00000000E+00
  1.60000000E+01  1.00800000E+00  1.00800000E+00  0.00000000E+00  1.60000000E+01
  1.00800000E+00  1.00800000E+00  0.00000000E+00  1.60000000E+01  1.00800000E+00
  1.00800000E+00  0.00000000E+00  1.60000000E+01  1.00800000E+00  1.00800000E+00
  0.00000000E+00  1.60000000E+01  1.00800000E+00  1.00800000E+00  0.00000000E+00
  1.60000000E+01  1.00800000E+00  1.00800000E+00  0.00000000E+00  1.60000000E+01
  1.00800000E+00  1.00800000E+00  0.00000000E+00  1.60000000E+01  1.00800000E+00
  1.00800000E+00  0.00000000E+00  1.60000000E+01  1.00800000E+00  1.00800000E+00
  0.00000000E+00  1.60000000E+01  1.00800000E+00  1.00800000E+00  0.00000000E+00
  1.60000000E+01  1.00800000E+00  1.00800000E+00  0.00000000E+00  1.60000000E+01
  1.00800000E+00  1.00800000E+00  0.00000000E+00  1.60000000E+01  1.00800000E+00
  1.00800000E+00  0.00000000E+00  1.60000000E+01  1.00800000E+00  1.00800000E+00
  0.00000000E+00  1.60000000E+01  1.00800000E+00  1.00800000E+00  0.00000000E+00
  1.60000000E+01  1.00800000E+00  1.00800000E+00  0.00000000E+00  1.60000000E+01
  1.00800000E+00  1.00800000E+00  0.00000000E+00  1.60000000E+01  1.00800000E+00
  1.00800000E+00  0.00000000E+00  1.60000000E+01  1.00800000E+00  1.00800000E+00
  0.00000000E+00  1.60000000E+01  1.00800000E+00  1.00800000E+00  0.00000000E+00
  1.60000000E+01  1.00800000E+00  1.00800000E+00  0.00000000E+00  1.60000000E+01
  1.00800000E+00  1.00800000E+00  0.00000000E+00  1.60000000E+01  1.00800000E+00
  1.00800000E+00  0.00000000E+00  1.60000000E+01  1.00800000E+00  1.00800000E+00
  0.00000000E+00  1.60000000E+01  1.00800000E+00  1.00800000E+00  0.00000000E+00
  1.60000000E+01  1.00800000E+00  1.00800000E+00  0.00000000E+00  1.60000000E+01
  1.00800000E+00  1.00800000E+00  0.00000000E+00  1.60000000E+01  1.00800000E+00
  1.00800000E+00  0.00000000E+00  1.60000000E+01  1.00800000E+00  1.00800000E+00
  0.00000000E+00  1.60000000E+01  1.00800000E+00  1.00800000E+00  0.00000000E+00
  1.60000000E+01  1.00800000E+00  1.00800000E+00  0.00000000E+00  1.60000000E+01
  1.00800000E+00  1.00800000E+00  0.00000000E+00  1.60000000E+01  1.00800000E+00
  1.00800000E+00  0.00000000E+00  1.60000000E+01  1.00800000E+00  1.00800000E+00
  0.00000000E+00  1.60000000E+01  1.00800000E+00  1.00800000E+00  0.00000000E+00
  1.60000000E+01  1.00800000E+00  1.00800000E+00  0.00000000E+00  1.60000000E+01
  1.00800000E+00  1.00800000E+00  0.00000000E+00  1.60000000E+01  1.00800000E+00
  1.00800000E+00  0.00000000E+00  1.60000000E+01  1.00800000E+00  1.00800000E+00
  0.00000000E+00  1.60000000E+01  1.00800000E+00  1.00800000E+00  0.00000000E+00
  1.60000000E+01  1.00800000E+00  1.00800000E+00  0.00000000E+00  1.60000000E+01
  1.00800000E+00  1.00800000E+00  0.00000000E+00  1.60000000E+01  1.00800000E+00
  1.00800000E+00  0.00000000E+00  1.60000000E+01  1.00800000E+00  1.00800000E+00
  0.00000000E+00  1.60000000E+01  1.00800000E+00  1.00800000E+00  0.00000000E+00
  1.60000000E+01  1.00800000E+00  1.00800000E+00  0.00000000E+00  1.60000000E+01
  1.00800000E+00  1.00800000E+00  0.00000000E+00  1.60000000E+01  1.00800000E+00
  1.00800000E+00  0.00000000E+00  1.60000000E+01  1.00800000E+00  1.00800000E+00
  0.00000000E+00  1.60000000E+01  1.00800000E+00  1.00800000E+00  0.00000000E+00
  1.60000000E+01  1.00800000E+00  1.00800000E+00  0.00000000E+00  1.60000000E+01
  1.00800000E+00  1.00800000E+00  0.00000000E+00  1.60000000E+01  1.00800000E+00
  1.00800000E+00  0.00000000E+00  1.60000000E+01  1.00800000E+00  1.00800000E+00
  0.00000000E+00  1.60000000E+01  1.00800000E+00  1.00800000E+00  0.00000000E+00
  1.60000000E+01  1.00800000E+00  1.00800000E+00  0.00000000E+00  1.60000000E+01
  1.00800000E+00  1.00800000E+00  0.00000000E+00  1.60000000E+01  1.00800000E+00
  1.00800000E+00  0.00000000E+00  1.60000000E+01  1.00800000E+00  1.00800000E+00
  0.00000000E+00  1.60000000E+01  1.00800000E+00  1.00800000E+00  0.00000000E+00
  1.60000000E+01  1.00800000E+00  1.00800000E+00  0.00000000E+00  1.60000000E+01
  1.00800000E+00  1.00800000E+00  0.00000000E+00  1.60000000E+01  1.00800000E+00
  1.00800000E+00  0.00000000E+00  1.60000000E+01  1.00800000E+00  1.00800000E+00
  0.00000000E+00  1.60000000E+01  1.00800000E+00  1.00800000E+00  0.00000000E+00
  1.60000000E+01  1.00800000E+00  1.00800000E+00  0.00000000E+00  1.60000000E+01
  1.00800000E+00  1.00800000E+00  0.00000000E+00  1.60000000E+01  1.00800000E+00
  1.00800000E+00  0.00000000E+00  1.60000000E+01  1.00800000E+00  1.00800000E+00
  0.00000000E+00  1.60000000E+01  1.00800000E+00  1.00800000E+00  0.00000000E+00
  1.60000000E+01  1.00800000E+00  1.00800000E+00  0.00000000E+00  1.60000000E+01
  1.00800000E+00  1.00800000E+00  0.00000000E+00  1.60000000E+01  1.00800000E+00
  1.00800000E+00  0.00000000E+00  1.60000000E+01  1.00800000E+00  1.00800000E+00
  0.00000000E+00  1.60000000E+01  1.00800000E+00  1.00800000E+00  0.00000000E+00
  1.60000000E+01  1.00800000E+00  1.00800000E+00  0.00000000E+00  1.60000000E+01
  1.00800000E+00  1.00800000E+00  0.00000000E+00  1.60000000E+01  1.00800000E+00
  1.00800000E+00  0.00000000E+00  1.60000000E+01  1.00800000E+00  1.00800000E+00
  0.00000000E+00  1.60000000E+01  1.00800000E+00  1.00800000E+00  0.00000000E+00
  1.60000000E+01  1.00800000E+00  1.00800000E+00  0.00000000E+00  1.60000000E+01
  1.00800000E+00  1.00800000E+00  0.00000000E+00  1.60000000E+01  1.00800000E+00
  1.00800000E+00  0.00000000E+00  1.60000000E+01  1.00800000E+00  1.00800000E+00
  0.00000000E+00  1.60000000E+01  1.00800000E+00  1.00800000E+00  0.00000000E+00
  1.60000000E+01  1.00800000E+00  1.00800000E+00  0.00000000E+00  1.60000000E+01
  1.00800000E+00  1.00800000E+00  0.00000000E+00  1.60000000E+01  1.00800000E+00
  1.00800000E+00  0.00000000E+00  1.60000000E+01  1.00800000E+00  1.00800000E+00
  0.00000000E+00  1.60000000E+01  1.00800000E+00  1.00800000E+00  0.00000000E+00
  1.60000000E+01  1.00800000E+00  1.00800000E+00  0.00000000E+00  1.60000000E+01
  1.00800000E+00  1.00800000E+00  0.00000000E+00  1.60000000E+01  1.00800000E+00
  1.00800000E+00  0.00000000E+00  1.60000000E+01  1.00800000E+00  1.00800000E+00
  0.00000000E+00  1.60000000E+01  1.00800000E+00  1.00800000E+00  0.00000000E+00
  1.60000000E+01  1.00800000E+00  1.00800000E+00  0.00000000E+00  1.60000000E+01
  1.00800000E+00  1.00800000E+00  0.00000000E+00  1.60000000E+01  1.00800000E+00
  1.00800000E+00  0.00000000E+00  1.60000000E+01  1.00800000E+00  1.00800000E+00
  0.00000000E+00  1.60000000E+01  1.00800000E+00  1.00800000E+00  0.00000000E+00
  1.60000000E+01  1.00800000E+00  1.00800000E+00  0.00000000E+00  1.60000000E+01
  1.00800000E+00  1.00800000E+00  0.00000000E+00  1.60000000E+01  1.00800000E+00
  1.00800000E+00  0.00000000E+00  1.60000000E+01  1.00800000E+00  1.00800000E+00
  0.00000000E+00  1.60000000E+01  1.00800000E+00  1.00800000E+00  0.00000000E+00
  1.60000000E+01  1.00800000E+00  1.00800000E+00  0.00000000E+00  1.60000000E+01
  1.00800000E+00  1.00800000E+00  0.00000000E+00  1.60000000E+01  1.00800000E+00
  1.00800000E+00  0.00000000E+00  1.60000000E+01  1.00800000E+00  1.00800000E+00
  0.00000000E+00  1.60000000E+01  1.00800000E+00  1.00800000E+00  0.00000000E+00
  1.60000000E+01  1.00800000E+00  1.00800000E+00  0.00000000E+00  1.60000000E+01
  1.00800000E+00  1.00800000E+00  0.00000000E+00  1.60000000E+01  1.00800000E+00
  1.00800000E+00  0.00000000E+00  1.60000000E+01  1.00800000E+00  1.00800000E+00
  0.00000000E+00  1.60000000E+01  1.00800000E+00  1.00800000E+00  0.00000000E+00
  1.60000000E+01  1.00800000E+00  1.00800000E+00  0.00000000E+00  1.60000000E+01
  1.00800000E+00  1.00800000E+00  0.00000000E+00  1.60000000E+01  1.00800000E+00
  1.00800000E+00  0.00000000E+00  1.60000000E+01  1.00800000E+00  1.00800000E+00
  0.00000000E+00  1.60000000E+01  1.00800000E+00  1.00800000E+00  0.00000000E+00
  1.60000000E+01  1.00800000E+00  1.00800000E+00  0.00000000E+00  1.60000000E+01
  1.00800000E+00  1.00800000E+00  0.00000000E+00  1.60000000E+01  1.00800000E+00
  1.00800000E+00  0.00000000E+00  1.60000000E+01  1.00800000E+00  1.00800000E+00
  0.00000000E+00  1.60000000E+01  1.00800000E+00  1.00800000E+00  0.00000000E+00
  1.60000000E+01  1.00800000E+00  1.00800000E+00  0.00000000E+00  1.60000000E+01
  1.00800000E+00  1.00800000E+00  0.00000000E+00  1.60000000E+01  1.00800000E+00
  1.00800000E+00  0.00000000E+00  1.60000000E+01  1.00800000E+00  1.00800000E+00
  0.00000000E+00  1.60000000E+01  1.00800000E+00  1.00800000E+00  0.00000000E+00
  1.60000000E+01  1.00800000E+00  1.00800000E+00  0.00000000E+00  1.60000000E+01
  1.00800000E+00  1.00800000E+00  0.00000000E+00  1.60000000E+01  1.00800000E+00
  1.00800000E+00  0.00000000E+00  1.60000000E+01  1.00800000E+00  1.00800000E+00
  0.00000000E+00  1.60000000E+01  1.00800000E+00  1.00800000E+00  0.00000000E+00
  1.60000000E+01  1.00800000E+00  1.00800000E+00  0.00000000E+00  1.60000000E+01
  1.00800000E+00  1.00800000E+00  0.00000000E+00  1.60000000E+01  1.00800000E+00
  1.00800000E+00  0.00000000E+00  1.60000000E+01  1.00800000E+00  1.00800000E+00
  0.00000000E+00  1.60000000E+01  1.00800000E+00  1.00800000E+00  0.00000000E+00
  1.60000000E+01  1.00800000E+00  1.00800000E+00  0.00000000E+00  1.60000000E+01
  1.00800000E+00  1.00800000E+00  0.00000000E+00  1.60000000E+01  1.00800000E+00
  1.00800000E+00  0.00000000E+00  1.60000000E+01  1.00800000E+00  1.00800000E+00
  0.00000000E+00  1.60000000E+01  1.00800000E+00  1.00800000E+00  0.00000000E+00
  1.60000000E+01  1.00800000E+00  1.00800000E+00  0.00000000E+00  1.60000000E+01
  1.00800000E+00  1.00800000E+00  0.00000000E+00  1.60000000E+01  1.00800000E+00
  1.00800000E+00  0.00000000E+00  1.60000000E+01  1.00800000E+00  1.00800000E+00
  0.00000000E+00  1.60000000E+01  1.00800000E+00  1.00800000E+00  0.00000000E+00
  1.60000000E+01  1.00800000E+00  1.00800000E+00  0.00000000E+00  1.60000000E+01
  1.00800000E+00  1.00800000E+00  0.00000000E+00  1.60000000E+01  1.00800000E+00
  1.00800000E+00  0.00000000E+00  1.60000000E+01  1.00800000E+00  1.00800000E+00
  0.00000000E+00  1.60000000E+01  1.00800000E+00  1.00800000E+00  0.00000000E+00
  1.60000000E+01  1.00800000E+00  1.00800000E+00  0.00000000E+00  1.60000000E+01
  1.00800000E+00  1.00800000E+00  0.00000000E+00  1.60000000E+01  1.00800000E+00
  1.00800000E+00  0.00000000E+00  1.60000000E+01  1.00800000E+00  1.00800000E+00
  0.00000000E+00  1.60000000E+01  1.00800000E+00  1.00800000E+00  0.00000000E+00
  1.60000000E+01  1.00800000E+00  1.00800000E+00  0.00000000E+00  1.60000000E+01
  1.00800000E+00  1.00800000E+00  0.00000000E+00  1.60000000E+01  1.00800000E+00
  1.00800000E+00  0.00000000E+00  1.60000000E+01  1.00800000E+00  1.00800000E+00
  0.00000000E+00  1.60000000E+01  1.00800000E+00  1.00800000E+00  0.00000000E+00
  1.60000000E+01  1.00800000E+00  1.00800000E+00  0.00000000E+00  1.60000000E+01
  1.00800000E+00  1.00800000E+00  0.00000000E+00  1.60000000E+01  1.00800000E+00
  1.00800000E+00  0.00000000E+00  1.60000000E+01  1.00800000E+00  1.00800000E+00
  0.00000000E+00  1.60000000E+01  1.00800000E+00  1.00800000E+00  0.00000000E+00
  1.60000000E+01  1.00800000E+00  1.00800000E+00  0.00000000E+00  1.60000000E+01
  1.00800000E+00  1.00800000E+00  0.00000000E+00  1.60000000E+01  1.00800000E+00
  1.00800000E+00  0.00000000E+00  1.60000000E+01  1.00800000E+00  1.00800000E+00
  0.00000000E+00  1.60000000E+01  1.00800000E+00  1.00800000E+00  0.00000000E+00
  1.60000000E+01  1.00800000E+00  1.00800000E+00  0.00000000E+00  1.60000000E+01
  1.00800000E+00  1.00800000E+00  0.00000000E+00  1.60000000E+01  1.00800000E+00
  1.00800000E+00  0.00000000E+00  1.60000000E+01  1.00800000E+00  1.00800000E+00
  0.00000000E+00  1.60000000E+01  1.00800000E+00  1.00800000E+00  0.00000000E+00
  1.60000000E+01  1.00800000E+00  1.00800000E+00  0.00000000E+00  1.60000000E+01
  1.00800000E+00  1.00800000E+00  0.00000000E+00  1.60000000E+01  1.00800000E+00
  1.00800000E+00  0.00000000E+00  1.60000000E+01  1.00800000E+00  1.00800000E+00
  0.00000000E+00  1.60000000E+01  1.00800000E+00  1.00800000E+00  0.00000000E+00
  1.60000000E+01  1.00800000E+00  1.00800000E+00  0.00000000E+00  1.60000000E+01
  1.00800000E+00  1.00800000E+00  0.00000000E+00  1.60000000E+01  1.00800000E+00
  1.00800000E+00  0.00000000E+00  1.60000000E+01  1.00800000E+00  1.00800000E+00
  0.00000000E+00  1.60000000E+01  1.00800000E+00  1.00800000E+00  0.00000000E+00
  1.60000000E+01  1.00800000E+00  1.00800000E+00  0.00000000E+00  1.60000000E+01
  1.00800000E+00  1.00800000E+00  0.00000000E+00  1.60000000E+01  1.00800000E+00
  1.00800000E+00  0.00000000E+00  1.60000000E+01  1.00800000E+00  1.00800000E+00
  0.00000000E+00  1.60000000E+01  1.00800000E+00  1.00800000E+00  0.00000000E+00
  1.60000000E+01  1.00800000E+00  1.00800000E+00  0.00000000E+00  1.60000000E+01
  1.00800000E+00  1.00800000E+00  0.00000000E+00  1.60000000E+01  1.00800000E+00
  1.00800000E+00  0.00000000E+00  1.60000000E+01  1.00800000E+00  1.00800000E+00
  0.00000000E+00  1.60000000E+01  1.00800000E+00  1.00800000E+00  0.00000000E+00
  1.60000000E+01  1.00800000E+00  1.00800000E+00  0.00000000E+00  1.60000000E+01
  1.00800000E+00  1.00800000E+00  0.00000000E+00  1.60000000E+01  1.00800000E+00
  1.00800000E+00  0.00000000E+00  1.60000000E+01  1.00800000E+00  1.00800000E+00
  0.00000000E+00  1.60000000E+01  1.00800000E+00  1.00800000E+00  0.00000000E+00
  1.60000000E+01  1.00800000E+00  1.00800000E+00  0.00000000E+00  1.60000000E+01
  1.00800000E+00  1.00800000E+00  0.00000000E+00  1.60000000E+01  1.00800000E+00
  1.00800000E+00  0.00000000E+00  1.60000000E+01  1.00800000E+00  1.00800000E+00
  0.00000000E+00  1.60000000E+01  1.00800000E+00  1.00800000E+00  0.00000000E+00
  1.60000000E+01  1.00800000E+00  1.00800000E+00  0.00000000E+00  1.60000000E+01
  1.00800000E+00  1.00800000E+00  0.00000000E+00  1.60000000E+01  1.00800000E+00
  1.00800000E+00  0.00000000E+00  1.60000000E+01  1.00800000E+00  1.00800000E+00
  0.00000000E+00  1.60000000E+01  1.00800000E+00  1.00800000E+00  0.00000000E+00
  1.60000000E+01  1.00800000E+00  1.00800000E+00  0.00000000E+00  1.60000000E+01
  1.00800000E+00  1.00800000E+00  0.00000000E+00  1.60000000E+01  1.00800000E+00
  1.00800000E+00  0.00000000E+00  1.60000000E+01  1.00800000E+00  1.00800000E+00
  0.00000000E+00  1.60000000E+01  1.00800000E+00  1.00800000E+00  0.00000000E+00
  1.60000000E+01  1.00800000E+00  1.00800000E+00  0.00000000E+00  1.60000000E+01
  1.00800000E+00  1.00800000E+00  0.00000000E+00  1.60000000E+01  1.00800000E+00
  1.00800000E+00  0.00000000E+00  1.60000000E+01  1.00800000E+00  1.00800000E+00
  0.00000000E+00  1.60000000E+01  1.00800000E+00  1.00800000E+00  0.00000000E+00
  1.60000000E+01  1.00800000E+00  1.00800000E+00  0.00000000E+00  1.60000000E+01
  1.00800000E+00  1.00800000E+00  0.00000000E+00  1.60000000E+01  1.00800000E+00
  1.00800000E+00  0.00000000E+00  1.60000000E+01  1.00800000E+00  1.00800000E+00
  0.00000000E+00  1.60000000E+01  1.00800000E+00  1.00800000E+00  0.00000000E+00
  1.60000000E+01  1.00800000E+00  1.00800000E+00  0.00000000E+00  1.60000000E+01
  1.00800000E+00  1.00800000E+00  0.00000000E+00  1.60000000E+01  1.00800000E+00
  1.00800000E+00  0.00000000E+00  1.60000000E+01  1.00800000E+00  1.00800000E+00
  0.00000000E+00  1.60000000E+01  1.00800000E+00  1.00800000E+00  0.00000000E+00
  1.60000000E+01  1.00800000E+00  1.00800000E+00  0.00000000E+00  1.60000000E+01
  1.00800000E+00  1.00800000E+00  0.00000000E+00  1.60000000E+01  1.00800000E+00
  1.00800000E+00  0.00000000E+00  1.60000000E+01  1.00800000E+00  1.00800000E+00
  0.00000000E+00  1.60000000E+01  1.00800000E+00  1.00800000E+00  0.00000000E+00
  1.60000000E+01  1.00800000E+00  1.00800000E+00  0.00000000E+00  1.60000000E+01
  1.00800000E+00  1.00800000E+00  0.00000000E+00  1.60000000E+01  1.00800000E+00
  1.00800000E+00  0.00000000E+00  1.60000000E+01  1.00800000E+00  1.00800000E+00
  0.00000000E+00  1.60000000E+01  1.00800000E+00  1.00800000E+00  0.00000000E+00
  1.60000000E+01  1.00800000E+00  1.00800000E+00  0.00000000E+00  1.60000000E+01
  1.00800000E+00  1.00800000E+00  0.00000000E+00  1.60000000E+01  1.00800000E+00
  1.00800000E+00  0.00000000E+00  1.60000000E+01  1.00800000E+00  1.00800000E+00
  0.00000000E+00  1.60000000E+01  1.00800000E+00  1.00800000E+00  0.00000000E+00
  1.60000000E+01  1.00800000E+00  1.00800000E+00  0.00000000E+00  1.60000000E+01
  1.00800000E+00  1.00800000E+00  0.00000000E+00  1.60000000E+01  1.00800000E+00
  1.00800000E+00  0.00000000E+00  1.60000000E+01  1.00800000E+00  1.00800000E+00
  0.00000000E+00  1.60000000E+01  1.00800000E+00  1.00800000E+00  0.00000000E+00
  1.60000000E+01  1.00800000E+00  1.00800000E+00  0.00000000E+00  1.60000000E+01
  1.00800000E+00  1.00800000E+00  0.00000000E+00  1.60000000E+01  1.00800000E+00
  1.00800000E+00  0.00000000E+00  1.60000000E+01  1.00800000E+00  1.00800000E+00
  0.00000000E+00  1.60000000E+01  1.00800000E+00  1.00800000E+00  0.00000000E+00
  1.60000000E+01  1.00800000E+00  1.00800000E+00  0.00000000E+00  1.60000000E+01
  1.00800000E+00  1.00800000E+00  0.00000000E+00  1.60000000E+01  1.00800000E+00
  1.00800000E+00  0.00000000E+00  1.60000000E+01  1.00800000E+00  1.00800000E+00
  0.00000000E+00  1.60000000E+01  1.00800000E+00  1.00800000E+00  0.00000000E+00
  1.60000000E+01  1.00800000E+00  1.00800000E+00  0.00000000E+00  1.60000000E+01
  1.00800000E+00  1.00800000E+00  0.00000000E+00  1.60000000E+01  1.00800000E+00
  1.00800000E+00  0.00000000E+00  1.60000000E+01  1.00800000E+00  1.00800000E+00
  0.00000000E+00  1.60000000E+01  1.00800000E+00  1.00800000E+00  0.00000000E+00
  1.60000000E+01  1.00800000E+00  1.00800000E+00  0.00000000E+00  1.60000000E+01
  1.00800000E+00  1.00800000E+00  0.00000000E+00  1.60000000E+01  1.00800000E+00
  1.00800000E+00  0.00000000E+00  1.60000000E+01  1.00800000E+00  1.00800000E+00
  0.00000000E+00  1.60000000E+01  1.00800000E+00  1.00800000E+00  0.00000000E+00
  1.60000000E+01  1.00800000E+00  1.00800000E+00  0.00000000E+00  1.60000000E+01
  1.00800000E+00  1.00800000E+00  0.00000000E+00  1.60000000E+01  1.00800000E+00
  1.00800000E+00  0.00000000E+00  1.60000000E+01  1.00800000E+00  1.00800000E+00
  0.00000000E+00  1.60000000E+01  1.00800000E+00  1.00800000E+00  0.00000000E+00
  1.60000000E+01  1.00800000E+00  1.00800000E+00  0.00000000E+00  1.60000000E+01
  1.00800000E+00  1.00800000E+00  0.00000000E+00  1.60000000E+01  1.00800000E+00
  1.00800000E+00  0.00000000E+00  1.60000000E+01  1.00800000E+00  1.00800000E+00
  0.00000000E+00  1.60000000E+01  1.00800000E+00  1.00800000E+00  0.00000000E+00
  1.60000000E+01  1.00800000E+00  1.00800000E+00  0.00000000E+00  1.60000000E+01
  1.00800000E+00  1.00800000E+00  0.00000000E+00  1.60000000E+01  1.00800000E+00
  1.00800000E+00  0.00000000E+00  1.60000000E+01  1.00800000E+00  1.00800000E+00
  0.00000000E+00  1.60000000E+01  1.00800000E+00  1.00800000E+00  0.00000000E+00
  1.60000000E+01  1.00800000E+00  1.00800000E+00  0.00000000E+00  1.60000000E+01
  1.00800000E+00  1.00800000E+00  0.00000000E+00  1.60000000E+01  1.00800000E+00
  1.00800000E+00  0.00000000E+00  1.60000000E+01  1.00800000E+00  1.00800000E+00
  0.00000000E+00  1.60000000E+01  1.00800000E+00  1.00800000E+00  0.00000000E+00
  1.60000000E+01  1.00800000E+00  1.00800000E+00  0.00000000E+00  1.60000000E+01
  1.00800000E+00  1.00800000E+00  0.00000000E+00  1.60000000E+01  1.00800000E+00
  1.00800000E+00  0.00000000E+00  1.60000000E+01  1.00800000E+00  1.00800000E+00
  0.00000000E+00  1.60000000E+01  1.00800000E+00  1.00800000E+00  0.00000000E+00
  1.60000000E+01  1.00800000E+00  1.00800000E+00  0.00000000E+00  1.60000000E+01
  1.00800000E+00  1.00800000E+00  0.00000000E+00  1.60000000E+01  1.00800000E+00
  1.00800000E+00  0.00000000E+00  1.60000000E+01  1.00800000E+00  1.00800000E+00
  0.00000000E+00  1.60000000E+01  1.00800000E+00  1.00800000E+00  0.00000000E+00
  1.60000000E+01  1.00800000E+00  1.00800000E+00  0.00000000E+00  1.60000000E+01
  1.00800000E+00  1.00800000E+00  0.00000000E+00  1.60000000E+01  1.00800000E+00
  1.00800000E+00  0.00000000E+00  1.60000000E+01  1.00800000E+00  1.00800000E+00
  0.00000000E+00  1.60000000E+01  1.00800000E+00  1.00800000E+00  0.00000000E+00
  1.60000000E+01  1.00800000E+00  1.00800000E+00  0.00000000E+00  1.60000000E+01
  1.00800000E+00  1.00800000E+00  0.00000000E+00  1.60000000E+01  1.00800000E+00
  1.00800000E+00  0.00000000E+00  1.60000000E+01  1.00800000E+00  1.00800000E+00
  0.00000000E+00  1.60000000E+01  1.00800000E+00  1.00800000E+00  0.00000000E+00
  1.60000000E+01  1.00800000E+00  1.00800000E+00  0.00000000E+00  1.60000000E+01
  1.00800000E+00  1.00800000E+00  0.00000000E+00  1.60000000E+01  1.00800000E+00
  1.00800000E+00  0.00000000E+00  1.60000000E+01  1.00800000E+00  1.00800000E+00
  0.00000000E+00  1.60000000E+01  1.00800000E+00  1.00800000E+00  0.00000000E+00
  1.60000000E+01  1.00800000E+00  1.00800000E+00  0.00000000E+00  1.60000000E+01
  1.00800000E+00  1.00800000E+00  0.00000000E+00  1.60000000E+01  1.00800000E+00
  1.00800000E+00  0.00000000E+00  1.60000000E+01  1.00800000E+00  1.00800000E+00
  0.00000000E+00  1.60000000E+01  1.00800000E+00  1.00800000E+00  0.00000000E+00
  1.60000000E+01  1.00800000E+00  1.00800000E+00  0.00000000E+00  1.60000000E+01
  1.00800000E+00  1.00800000E+00  0.00000000E+00  1.60000000E+01  1.00800000E+00
  1.00800000E+00  0.00000000E+00  1.60000000E+01  1.00800000E+00  1.00800000E+00
  0.00000000E+00  1.60000000E+01  1.00800000E+00  1.00800000E+00  0.00000000E+00
  1.60000000E+01  1.00800000E+00  1.00800000E+00  0.00000000E+00  1.60000000E+01
  1.00800000E+00  1.00800000E+00  0.00000000E+00  1.60000000E+01  1.00800000E+00
  1.00800000E+00  0.00000000E+00  1.60000000E+01  1.00800000E+00  1.00800000E+00
  0.00000000E+00  1.60000000E+01  1.00800000E+00  1.00800000E+00  0.00000000E+00
  1.60000000E+01  1.00800000E+00  1.00800000E+00  0.00000000E+00  1.60000000E+01
  1.00800000E+00  1.00800000E+00  0.00000000E+00  1.60000000E+01  1.00800000E+00
  1.00800000E+00  0.00000000E+00  1.60000000E+01  1.00800000E+00  1.00800000E+00
  0.00000000E+00  1.60000000E+01  1.00800000E+00  1.00800000E+00  0.00000000E+00
  1.60000000E+01  1.00800000E+00  1.00800000E+00  0.00000000E+00  1.60000000E+01
  1.00800000E+00  1.00800000E+00  0.00000000E+00  1.60000000E+01  1.00800000E+00
  1.00800000E+00  0.00000000E+00  1.60000000E+01  1.00800000E+00  1.00800000E+00
  0.00000000E+00  1.60000000E+01  1.00800000E+00  1.00800000E+00  0.00000000E+00
  1.60000000E+01  1.00800000E+00  1.00800000E+00  0.00000000E+00  1.60000000E+01
  1.00800000E+00  1.00800000E+00  0.00000000E+00  1.60000000E+01  1.00800000E+00
  1.00800000E+00  0.00000000E+00  1.60000000E+01  1.00800000E+00  1.00800000E+00
  0.00000000E+00  1.60000000E+01  1.00800000E+00  1.00800000E+00  0.00000000E+00
  1.60000000E+01  1.00800000E+00  1.00800000E+00  0.00000000E+00  1.60000000E+01
  1.00800000E+00  1.00800000E+00  0.00000000E+00  1.60000000E+01  1.00800000E+00
  1.00800000E+00  0.00000000E+00  1.60000000E+01  1.00800000E+00  1.00800000E+00
  0.00000000E+00  1.60000000E+01  1.00800000E+00  1.00800000E+00  0.00000000E+00
  1.60000000E+01  1.00800000E+00  1.00800000E+00  0.00000000E+00  1.60000000E+01
  1.00800000E+00  1.00800000E+00  0.00000000E+00  1.60000000E+01  1.00800000E+00
  1.00800000E+00  0.00000000E+00  1.60000000E+01  1.00800000E+00  1.00800000E+00
  0.00000000E+00  1.60000000E+01  1.00800000E+00  1.00800000E+00  0.00000000E+00
  1.60000000E+01  1.00800000E+00  1.00800000E+00  0.00000000E+00  1.60000000E+01
  1.00800000E+00  1.00800000E+00  0.00000000E+00  1.60000000E+01  1.00800000E+00
  1.00800000E+00  0.00000000E+00  1.60000000E+01  1.00800000E+00  1.00800000E+00
  0.00000000E+00  1.60000000E+01  1.00800000E+00  1.00800000E+00  0.00000000E+00
  1.60000000E+01  1.00800000E+00  1.00800000E+00  0.00000000E+00  1.60000000E+01
  1.00800000E+00  1.00800000E+00  0.00000000E+00  1.60000000E+01  1.00800000E+00
  1.00800000E+00  0.00000000E+00  1.60000000E+01  1.00800000E+00  1.00800000E+00
  0.00000000E+00  1.60000000E+01  1.00800000E+00  1.00800000E+00  0.00000000E+00
  1.60000000E+01  1.00800000E+00  1.00800000E+00  0.00000000E+00  1.60000000E+01
  1.00800000E+00  1.00800000E+00  0.00000000E+00  1.60000000E+01  1.00800000E+00
  1.00800000E+00  0.00000000E+00  1.60000000E+01  1.00800000E+00  1.00800000E+00
  0.00000000E+00  1.60000000E+01  1.00800000E+00  1.00800000E+00  0.00000000E+00
  1.60000000E+01  1.00800000E+00  1.00800000E+00  0.00000000E+00  1.60000000E+01
  1.00800000E+00  1.00800000E+00  0.00000000E+00  1.60000000E+01  1.00800000E+00
  1.00800000E+00  0.00000000E+00  1.60000000E+01  1.00800000E+00  1.00800000E+00
  0.00000000E+00  1.60000000E+01  1.00800000E+00  1.00800000E+00  0.00000000E+00
  1.60000000E+01  1.00800000E+00  1.00800000E+00  0.00000000E+00  1.60000000E+01
  1.00800000E+00  1.00800000E+00  0.00000000E+00  1.60000000E+01  1.00800000E+00
  1.00800000E+00  0.00000000E+00  1.60000000E+01  1.00800000E+00  1.00800000E+00
  0.00000000E+00  1.60000000E+01  1.00800000E+00  1.00800000E+00  0.00000000E+00
  1.60000000E+01  1.00800000E+00  1.00800000E+00  0.00000000E+00  1.60000000E+01
  1.00800000E+00  1.00800000E+00  0.00000000E+00  1.60000000E+01  1.00800000E+00
  1.00800000E+00  0.00000000E+00  1.60000000E+01  1.00800000E+00  1.00800000E+00
  0.00000000E+00  1.60000000E+01  1.00800000E+00  1.00800000E+00  0.00000000E+00
  1.60000000E+01  1.00800000E+00  1.00800000E+00  0.00000000E+00  1.60000000E+01
  1.00800000E+00  1.00800000E+00  0.00000000E+00  1.60000000E+01  1.00800000E+00
  1.00800000E+00  0.00000000E+00  1.60000000E+01  1.00800000E+00  1.00800000E+00
  0.00000000E+00  1.60000000E+01  1.00800000E+00  1.00800000E+00  0.00000000E+00
  1.60000000E+01  1.00800000E+00  1.00800000E+00  0.00000000E+00  1.60000000E+01
  1.00800000E+00  1.00800000E+00  0.00000000E+00  1.60000000E+01  1.00800000E+00
  1.00800000E+00  0.00000000E+00  1.60000000E+01  1.00800000E+00  1.00800000E+00
  0.00000000E+00  1.60000000E+01  1.00800000E+00  1.00800000E+00  0.00000000E+00
  1.60000000E+01  1.00800000E+00  1.00800000E+00  0.00000000E+00  1.60000000E+01
  1.00800000E+00  1.00800000E+00  0.00000000E+00  1.60000000E+01  1.00800000E+00
  1.00800000E+00  0.00000000E+00  1.60000000E+01  1.00800000E+00  1.00800000E+00
  0.00000000E+00  1.60000000E+01  1.00800000E+00  1.00800000E+00  0.00000000E+00
  1.60000000E+01  1.00800000E+00  1.00800000E+00  0.00000000E+00  1.60000000E+01
  1.00800000E+00  1.00800000E+00  0.00000000E+00  1.60000000E+01  1.00800000E+00
  1.00800000E+00  0.00000000E+00  1.60000000E+01  1.00800000E+00  1.00800000E+00
  0.00000000E+00  1.60000000E+01  1.00800000E+00  1.00800000E+00  0.00000000E+00
  1.60000000E+01  1.00800000E+00  1.00800000E+00  0.00000000E+00  1.60000000E+01
  1.00800000E+00  1.00800000E+00  0.00000000E+00  1.60000000E+01  1.00800000E+00
  1.00800000E+00  0.00000000E+00  1.60000000E+01  1.00800000E+00  1.00800000E+00
  0.00000000E+00  1.60000000E+01  1.00800000E+00  1.00800000E+00  0.00000000E+00
  1.60000000E+01  1.00800000E+00  1.00800000E+00  0.00000000E+00  1.60000000E+01
  1.00800000E+00  1.00800000E+00  0.00000000E+00  1.60000000E+01  1.00800000E+00
  1.00800000E+00  0.00000000E+00  1.60000000E+01  1.00800000E+00  1.00800000E+00
  0.00000000E+00  1.60000000E+01  1.00800000E+00  1.00800000E+00  0.00000000E+00
  1.60000000E+01  1.00800000E+00  1.00800000E+00  0.00000000E+00  1.60000000E+01
  1.00800000E+00  1.00800000E+00  0.00000000E+00  1.60000000E+01  1.00800000E+00
  1.00800000E+00  0.00000000E+00  1.60000000E+01  1.00800000E+00  1.00800000E+00
  0.00000000E+00  1.60000000E+01  1.00800000E+00  1.00800000E+00  0.00000000E+00
  1.60000000E+01  1.00800000E+00  1.00800000E+00  0.00000000E+00  1.60000000E+01
  1.00800000E+00  1.00800000E+00  0.00000000E+00  1.60000000E+01  1.00800000E+00
  1.00800000E+00  0.00000000E+00  1.60000000E+01  1.00800000E+00  1.00800000E+00
  0.00000000E+00  1.60000000E+01  1.00800000E+00  1.00800000E+00  0.00000000E+00
  1.60000000E+01  1.00800000E+00  1.00800000E+00  0.00000000E+00  1.60000000E+01
  1.00800000E+00  1.00800000E+00  0.00000000E+00  1.60000000E+01  1.00800000E+00
  1.00800000E+00  0.00000000E+00  1.60000000E+01  1.00800000E+00  1.00800000E+00
  0.00000000E+00  1.60000000E+01  1.00800000E+00  1.00800000E+00  0.00000000E+00
  1.60000000E+01  1.00800000E+00  1.00800000E+00  0.00000000E+00  1.60000000E+01
  1.00800000E+00  1.00800000E+00  0.00000000E+00  1.60000000E+01  1.00800000E+00
  1.00800000E+00  0.00000000E+00  1.60000000E+01  1.00800000E+00  1.00800000E+00
  0.00000000E+00  1.60000000E+01  1.00800000E+00  1.00800000E+00  0.00000000E+00
  1.60000000E+01  1.00800000E+00  1.00800000E+00  0.00000000E+00  1.60000000E+01
  1.00800000E+00  1.00800000E+00  0.00000000E+00  1.60000000E+01  1.00800000E+00
  1.00800000E+00  0.00000000E+00  1.60000000E+01  1.00800000E+00  1.00800000E+00
  0.00000000E+00  1.60000000E+01  1.00800000E+00  1.00800000E+00  0.00000000E+00
  1.60000000E+01  1.00800000E+00  1.00800000E+00  0.00000000E+00  1.60000000E+01
  1.00800000E+00  1.00800000E+00  0.00000000E+00  1.60000000E+01  1.00800000E+00
  1.00800000E+00  0.00000000E+00  1.60000000E+01  1.00800000E+00  1.00800000E+00
  0.00000000E+00  1.60000000E+01  1.00800000E+00  1.00800000E+00  0.00000000E+00
  1.60000000E+01  1.00800000E+00  1.00800000E+00  0.00000000E+00  1.60000000E+01
  1.00800000E+00  1.00800000E+00  0.00000000E+00  1.60000000E+01  1.00800000E+00
  1.00800000E+00  0.00000000E+00  1.60000000E+01  1.00800000E+00  1.00800000E+00
  0.00000000E+00  1.60000000E+01  1.00800000E+00  1.00800000E+00  0.00000000E+00
  1.60000000E+01  1.00800000E+00  1.00800000E+00  0.00000000E+00  1.60000000E+01
  1.00800000E+00  1.00800000E+00  0.00000000E+00  1.60000000E+01  1.00800000E+00
  1.00800000E+00  0.00000000E+00  1.60000000E+01  1.00800000E+00  1.00800000E+00
  0.00000000E+00  1.60000000E+01  1.00800000E+00  1.00800000E+00  0.00000000E+00
  1.60000000E+01  1.00800000E+00  1.00800000E+00  0.00000000E+00  1.60000000E+01
  1.00800000E+00  1.00800000E+00  0.00000000E+00  1.60000000E+01  1.00800000E+00
  1.00800000E+00  0.00000000E+00  1.60000000E+01  1.00800000E+00  1.00800000E+00
  0.00000000E+00  1.60000000E+01  1.00800000E+00  1.00800000E+00  0.00000000E+00
  1.60000000E+01  1.00800000E+00  1.00800000E+00  0.00000000E+00  1.60000000E+01
  1.00800000E+00  1.00800000E+00  0.00000000E+00  1.60000000E+01  1.00800000E+00
  1.00800000E+00  0.00000000E+00  1.60000000E+01  1.00800000E+00  1.00800000E+00
  0.00000000E+00  1.60000000E+01  1.00800000E+00  1.00800000E+00  0.00000000E+00
  1.60000000E+01  1.00800000E+00  1.00800000E+00  0.00000000E+00  1.60000000E+01
  1.00800000E+00  1.00800000E+00  0.00000000E+00  1.60000000E+01  1.00800000E+00
  1.00800000E+00  0.00000000E+00  1.60000000E+01  1.00800000E+00  1.00800000E+00
  0.00000000E+00  1.60000000E+01  1.00800000E+00  1.00800000E+00  0.00000000E+00
  1.60000000E+01  1.00800000E+00  1.00800000E+00  0.00000000E+00  1.60000000E+01
  1.00800000E+00  1.00800000E+00  0.00000000E+00  1.60000000E+01  1.00800000E+00
  1.00800000E+00  0.00000000E+00  1.60000000E+01  1.00800000E+00  1.00800000E+00
  0.00000000E+00  1.60000000E+01  1.00800000E+00  1.00800000E+00  0.00000000E+00
  1.60000000E+01  1.00800000E+00  1.00800000E+00  0.00000000E+00  1.60000000E+01
  1.00800000E+00  1.00800000E+00  0.00000000E+00  1.60000000E+01  1.00800000E+00
  1.00800000E+00  0.00000000E+00  1.60000000E+01  1.00800000E+00  1.00800000E+00
  0.00000000E+00  1.60000000E+01  1.00800000E+00  1.00800000E+00  0.00000000E+00
  1.60000000E+01  1.00800000E+00  1.00800000E+00  0.00000000E+00  1.60000000E+01
  1.00800000E+00  1.00800000E+00  0.00000000E+00  1.60000000E+01  1.00800000E+00
  1.00800000E+00  0.00000000E+00  1.60000000E+01  1.00800000E+00  1.00800000E+00
  0.00000000E+00  1.60000000E+01  1.00800000E+00  1.00800000E+00  0.00000000E+00
  1.60000000E+01  1.00800000E+00  1.00800000E+00  0.00000000E+00  1.60000000E+01
  1.00800000E+00  1.00800000E+00  0.00000000E+00  1.60000000E+01  1.00800000E+00
  1.00800000E+00  0.00000000E+00  1.60000000E+01  1.00800000E+00  1.00800000E+00
  0.00000000E+00  1.60000000E+01  1.00800000E+00  1.00800000E+00  0.00000000E+00
  1.60000000E+01  1.00800000E+00  1.00800000E+00  0.00000000E+00  1.60000000E+01
  1.00800000E+00  1.00800000E+00  0.00000000E+00  1.60000000E+01  1.00800000E+00
  1.00800000E+00  0.00000000E+00  1.60000000E+01  1.00800000E+00  1.00800000E+00
  0.00000000E+00  1.60000000E+01  1.00800000E+00  1.00800000E+00  0.00000000E+00
  1.60000000E+01  1.00800000E+00  1.00800000E+00  0.00000000E+00  1.60000000E+01
  1.00800000E+00  1.00800000E+00  0.00000000E+00  1.60000000E+01  1.00800000E+00
  1.00800000E+00  0.00000000E+00  1.60000000E+01  1.00800000E+00  1.00800000E+00
  0.00000000E+00  1.60000000E+01  1.00800000E+00  1.00800000E+00  0.00000000E+00
  1.60000000E+01  1.00800000E+00  1.00800000E+00  0.00000000E+00  1.60000000E+01
  1.00800000E+00  1.00800000E+00  0.00000000E+00  1.60000000E+01  1.00800000E+00
  1.00800000E+00  0.00000000E+00  1.60000000E+01  1.00800000E+00  1.00800000E+00
  0.00000000E+00  1.60000000E+01  1.00800000E+00  1.00800000E+00  0.00000000E+00
  1.60000000E+01  1.00800000E+00  1.00800000E+00  0.00000000E+00  1.60000000E+01
  1.00800000E+00  1.00800000E+00  0.00000000E+00  1.60000000E+01  1.00800000E+00
  1.00800000E+00  0.00000000E+00  1.60000000E+01  1.00800000E+00  1.00800000E+00
  0.00000000E+00  1.60000000E+01  1.00800000E+00  1.00800000E+00  0.00000000E+00
  1.60000000E+01  1.00800000E+00  1.00800000E+00  0.00000000E+00  1.60000000E+01
  1.00800000E+00  1.00800000E+00  0.00000000E+00  1.60000000E+01  1.00800000E+00
  1.00800000E+00  0.00000000E+00  1.60000000E+01  1.00800000E+00  1.00800000E+00
  0.00000000E+00  1.60000000E+01  1.00800000E+00  1.00800000E+00  0.00000000E+00
  1.60000000E+01  1.00800000E+00  1.00800000E+00  0.00000000E+00  1.60000000E+01
  1.00800000E+00  1.00800000E+00  0.00000000E+00  1.60000000E+01  1.00800000E+00
  1.00800000E+00  0.00000000E+00  1.60000000E+01  1.00800000E+00  1.00800000E+00
  0.00000000E+00  1.60000000E+01  1.00800000E+00  1.00800000E+00  0.00000000E+00
  1.60000000E+01  1.00800000E+00  1.00800000E+00  0.00000000E+00  1.60000000E+01
  1.00800000E+00  1.00800000E+00  0.00000000E+00  1.60000000E+01  1.00800000E+00
  1.00800000E+00  0.00000000E+00  1.60000000E+01  1.00800000E+00  1.00800000E+00
  0.00000000E+00  1.60000000E+01  1.00800000E+00  1.00800000E+00  0.00000000E+00
  1.60000000E+01  1.00800000E+00  1.00800000E+00  0.00000000E+00  1.60000000E+01
  1.00800000E+00  1.00800000E+00  0.00000000E+00  1.60000000E+01  1.00800000E+00
  1.00800000E+00  0.00000000E+00  1.60000000E+01  1.00800000E+00  1.00800000E+00
  0.00000000E+00  1.60000000E+01  1.00800000E+00  1.00800000E+00  0.00000000E+00
  1.60000000E+01  1.00800000E+00  1.00800000E+00  0.00000000E+00  1.60000000E+01
  1.00800000E+00  1.00800000E+00  0.00000000E+00  1.60000000E+01  1.00800000E+00
  1.00800000E+00  0.00000000E+00  1.60000000E+01  1.00800000E+00  1.00800000E+00
  0.00000000E+00  1.60000000E+01  1.00800000E+00  1.00800000E+00  0.00000000E+00
  1.60000000E+01  1.00800000E+00  1.00800000E+00  0.00000000E+00  1.60000000E+01
  1.00800000E+00  1.00800000E+00  0.00000000E+00  1.60000000E+01  1.00800000E+00
  1.00800000E+00  0.00000000E+00  1.60000000E+01  1.00800000E+00  1.00800000E+00
  0.00000000E+00  1.60000000E+01  1.00800000E+00  1.00800000E+00  0.00000000E+00
  1.60000000E+01  1.00800000E+00  1.00800000E+00  0.00000000E+00  1.60000000E+01
  1.00800000E+00  1.00800000E+00  0.00000000E+00  1.60000000E+01  1.00800000E+00
  1.00800000E+00  0.00000000E+00  1.60000000E+01  1.00800000E+00  1.00800000E+00
  0.00000000E+00  1.60000000E+01  1.00800000E+00  1.00800000E+00  0.00000000E+00
  1.60000000E+01  1.00800000E+00  1.00800000E+00  0.00000000E+00  1.60000000E+01
  1.00800000E+00  1.00800000E+00  0.00000000E+00  1.60000000E+01  1.00800000E+00
  1.00800000E+00  0.00000000E+00  1.60000000E+01  1.00800000E+00  1.00800000E+00
  0.00000000E+00  1.60000000E+01  1.00800000E+00  1.00800000E+00  0.00000000E+00
  1.60000000E+01  1.00800000E+00  1.00800000E+00  0.00000000E+00  1.60000000E+01
  1.00800000E+00  1.00800000E+00  0.00000000E+00  1.60000000E+01  1.00800000E+00
  1.00800000E+00  0.00000000E+00  1.60000000E+01  1.00800000E+00  1.00800000E+00
  0.00000000E+00  1.60000000E+01  1.00800000E+00  1.00800000E+00  0.00000000E+00
  1.60000000E+01  1.00800000E+00  1.00800000E+00  0.00000000E+00  1.60000000E+01
  1.00800000E+00  1.00800000E+00  0.00000000E+00  1.60000000E+01  1.00800000E+00
  1.00800000E+00  0.00000000E+00  1.60000000E+01  1.00800000E+00  1.00800000E+00
  0.00000000E+00  1.60000000E+01  1.00800000E+00  1.00800000E+00  0.00000000E+00
  1.60000000E+01  1.00800000E+00  1.00800000E+00  0.00000000E+00  1.60000000E+01
  1.00800000E+00  1.00800000E+00  0.00000000E+00  1.60000000E+01  1.00800000E+00
  1.00800000E+00  0.00000000E+00  1.60000000E+01  1.00800000E+00  1.00800000E+00
  0.00000000E+00  1.60000000E+01  1.00800000E+00  1.00800000E+00  0.00000000E+00
  1.60000000E+01  1.00800000E+00  1.00800000E+00  0.00000000E+00  1.60000000E+01
  1.00800000E+00  1.00800000E+00  0.00000000E+00  1.60000000E+01  1.00800000E+00
  1.00800000E+00  0.00000000E+00  1.60000000E+01  1.00800000E+00  1.00800000E+00
  0.00000000E+00  1.60000000E+01  1.00800000E+00  1.00800000E+00  0.00000000E+00
  1.60000000E+01  1.00800000E+00  1.00800000E+00  0.00000000E+00  1.60000000E+01
  1.00800000E+00  1.00800000E+00  0.00000000E+00  1.60000000E+01  1.00800000E+00
  1.00800000E+00  0.00000000E+00  1.60000000E+01  1.00800000E+00  1.00800000E+00
  0.00000000E+00  1.60000000E+01  1.00800000E+00  1.00800000E+00  0.00000000E+00
  1.60000000E+01  1.00800000E+00  1.00800000E+00  0.00000000E+00  1.60000000E+01
  1.00800000E+00  1.00800000E+00  0.00000000E+00  1.60000000E+01  1.00800000E+00
  1.00800000E+00  0.00000000E+00  1.60000000E+01  1.00800000E+00  1.00800000E+00
  0.00000000E+00  1.60000000E+01  1.00800000E+00  1.00800000E+00  0.00000000E+00
  1.60000000E+01  1.00800000E+00  1.00800000E+00  0.00000000E+00  1.60000000E+01
  1.00800000E+00  1.00800000E+00  0.00000000E+00  1.60000000E+01  1.00800000E+00
  1.00800000E+00  0.00000000E+00  1.60000000E+01  1.00800000E+00  1.00800000E+00
  0.00000000E+00  1.60000000E+01  1.00800000E+00  1.00800000E+00  0.00000000E+00
  1.60000000E+01  1.00800000E+00  1.00800000E+00  0.00000000E+00  1.60000000E+01
  1.00800000E+00  1.00800000E+00  0.00000000E+00  1.60000000E+01  1.00800000E+00
  1.00800000E+00  0.00000000E+00  1.60000000E+01  1.00800000E+00  1.00800000E+00
  0.00000000E+00  1.60000000E+01  1.00800000E+00  1.00800000E+00  0.00000000E+00
  1.60000000E+01  1.00800000E+00  1.00800000E+00  0.00000000E+00  1.60000000E+01
  1.00800000E+00  1.00800000E+00  0.00000000E+00  1.60000000E+01  1.00800000E+00
  1.00800000E+00  0.00000000E+00  1.60000000E+01  1.00800000E+00  1.00800000E+00
  0.00000000E+00  1.60000000E+01  1.00800000E+00  1.00800000E+00  0.00000000E+00
  1.60000000E+01  1.00800000E+00  1.00800000E+00  0.00000000E+00  1.60000000E+01
  1.00800000E+00  1.00800000E+00  0.00000000E+00  1.60000000E+01  1.00800000E+00
  1.00800000E+00  0.00000000E+00  1.60000000E+01  1.00800000E+00  1.00800000E+00
  0.00000000E+00  1.60000000E+01  1.00800000E+00  1.00800000E+00  0.00000000E+00
  1.60000000E+01  1.00800000E+00  1.00800000E+00  0.00000000E+00  1.60000000E+01
  1.00800000E+00  1.00800000E+00  0.00000000E+00  1.60000000E+01  1.00800000E+00
  1.00800000E+00  0.00000000E+00  1.60000000E+01  1.00800000E+00  1.00800000E+00
  0.00000000E+00  1.60000000E+01  1.00800000E+00  1.00800000E+00  0.00000000E+00
  1.60000000E+01  1.00800000E+00  1.00800000E+00  0.00000000E+00  1.60000000E+01
  1.00800000E+00  1.00800000E+00  0.00000000E+00  1.60000000E+01  1.00800000E+00
  1.00800000E+00  0.00000000E+00  1.60000000E+01  1.00800000E+00  1.00800000E+00
  0.00000000E+00  1.60000000E+01  1.00800000E+00  1.00800000E+00  0.00000000E+00
  1.60000000E+01  1.00800000E+00  1.00800000E+00  0.00000000E+00  1.60000000E+01
  1.00800000E+00  1.00800000E+00  0.00000000E+00  1.60000000E+01  1.00800000E+00
  1.00800000E+00  0.00000000E+00  1.60000000E+01  1.00800000E+00  1.00800000E+00
  0.00000000E+00  1.60000000E+01  1.00800000E+00  1.00800000E+00  0.00000000E+00
  1.60000000E+01  1.00800000E+00  1.00800000E+00  0.00000000E+00  1.60000000E+01
  1.00800000E+00  1.00800000E+00  0.00000000E+00  1.60000000E+01  1.00800000E+00
  1.00800000E+00  0.00000000E+00  1.60000000E+01  1.00800000E+00  1.00800000E+00
  0.00000000E+00  1.60000000E+01  1.00800000E+00  1.00800000E+00  0.00000000E+00
  1.60000000E+01  1.00800000E+00  1.00800000E+00  0.00000000E+00  1.60000000E+01
  1.00800000E+00  1.00800000E+00  0.00000000E+00  1.60000000E+01  1.00800000E+00
  1.00800000E+00  0.00000000E+00  1.60000000E+01  1.00800000E+00  1.00800000E+00
  0.00000000E+00  1.60000000E+01  1.00800000E+00  1.00800000E+00  0.00000000E+00
  1.60000000E+01  1.00800000E+00  1.00800000E+00  0.00000000E+00  1.60000000E+01
  1.00800000E+00  1.00800000E+00  0.00000000E+00  1.60000000E+01  1.00800000E+00
  1.00800000E+00  0.00000000E+00  1.60000000E+01  1.00800000E+00  1.00800000E+00
  0.00000000E+00  1.60000000E+01  1.00800000E+00  1.00800000E+00  0.00000000E+00
  1.60000000E+01  1.00800000E+00  1.00800000E+00  0.00000000E+00  1.60000000E+01
  1.00800000E+00  1.00800000E+00  0.00000000E+00  1.60000000E+01  1.00800000E+00
  1.00800000E+00  0.00000000E+00  1.60000000E+01  1.00800000E+00  1.00800000E+00
  0.00000000E+00  1.60000000E+01  1.00800000E+00  1.00800000E+00  0.00000000E+00
  1.60000000E+01  1.00800000E+00  1.00800000E+00  0.00000000E+00  1.60000000E+01
  1.00800000E+00  1.00800000E+00  0.00000000E+00  1.60000000E+01  1.00800000E+00
  1.00800000E+00  0.00000000E+00  1.60000000E+01  1.00800000E+00  1.00800000E+00
  0.00000000E+00  1.60000000E+01  1.00800000E+00  1.00800000E+00  0.00000000E+00
  1.60000000E+01  1.00800000E+00  1.00800000E+00  0.00000000E+00  1.60000000E+01
  1.00800000E+00  1.00800000E+00  0.00000000E+00  1.60000000E+01  1.00800000E+00
  1.00800000E+00  0.00000000E+00  1.60000000E+01  1.00800000E+00  1.00800000E+00
  0.00000000E+00  1.60000000E+01  1.00800000E+00  1.00800000E+00  0.00000000E+00
  1.60000000E+01  1.00800000E+00  1.00800000E+00  0.00000000E+00  1.60000000E+01
  1.00800000E+00  1.00800000E+00  0.00000000E+00  1.60000000E+01  1.00800000E+00
  1.00800000E+00  0.00000000E+00  1.60000000E+01  1.00800000E+00  1.00800000E+00
  0.00000000E+00  1.60000000E+01  1.00800000E+00  1.00800000E+00  0.00000000E+00
  1.60000000E+01  1.00800000E+00  1.00800000E+00  0.00000000E+00  1.60000000E+01
  1.00800000E+00  1.00800000E+00  0.00000000E+00  1.60000000E+01  1.00800000E+00
  1.00800000E+00  0.00000000E+00  1.60000000E+01  1.00800000E+00  1.00800000E+00
  0.00000000E+00  1.60000000E+01  1.00800000E+00  1.00800000E+00  0.00000000E+00
  1.60000000E+01  1.00800000E+00  1.00800000E+00  0.00000000E+00  1.60000000E+01
  1.00800000E+00  1.00800000E+00  0.00000000E+00  1.60000000E+01  1.00800000E+00
  1.00800000E+00  0.00000000E+00  1.60000000E+01  1.00800000E+00  1.00800000E+00
  0.00000000E+00  1.60000000E+01  1.00800000E+00  1.00800000E+00  0.00000000E+00
  1.60000000E+01  1.00800000E+00  1.00800000E+00  0.00000000E+00  1.60000000E+01
  1.00800000E+00  1.00800000E+00  0.00000000E+00  1.60000000E+01  1.00800000E+00
  1.00800000E+00  0.00000000E+00  1.60000000E+01  1.00800000E+00  1.00800000E+00
  0.00000000E+00  1.60000000E+01  1.00800000E+00  1.00800000E+00  0.00000000E+00
  1.60000000E+01  1.00800000E+00  1.00800000E+00  0.00000000E+00  1.60000000E+01
  1.00800000E+00  1.00800000E+00  0.00000000E+00  1.60000000E+01  1.00800000E+00
  1.00800000E+00  0.00000000E+00  1.60000000E+01  1.00800000E+00  1.00800000E+00
  0.00000000E+00  1.60000000E+01  1.00800000E+00  1.00800000E+00  0.00000000E+00
  1.60000000E+01  1.00800000E+00  1.00800000E+00  0.00000000E+00  1.60000000E+01
  1.00800000E+00  1.00800000E+00  0.00000000E+00  1.60000000E+01  1.00800000E+00
  1.00800000E+00  0.00000000E+00  1.60000000E+01  1.00800000E+00  1.00800000E+00
  0.00000000E+00  1.60000000E+01  1.00800000E+00  1.00800000E+00  0.00000000E+00
  1.60000000E+01  1.00800000E+00  1.00800000E+00  0.00000000E+00  1.60000000E+01
  1.00800000E+00  1.00800000E+00  0.00000000E+00  1.60000000E+01  1.00800000E+00
  1.00800000E+00  0.00000000E+00  1.60000000E+01  1.00800000E+00  1.00800000E+00
  0.00000000E+00  1.60000000E+01  1.00800000E+00  1.00800000E+00  0.00000000E+00
  1.60000000E+01  1.00800000E+00  1.00800000E+00  0.00000000E+00  1.60000000E+01
  1.00800000E+00  1.00800000E+00  0.00000000E+00  1.60000000E+01  1.00800000E+00
  1.00800000E+00  0.00000000E+00  1.60000000E+01  1.00800000E+00  1.00800000E+00
  0.00000000E+00  1.60000000E+01  1.00800000E+00  1.00800000E+00  0.00000000E+00
  1.60000000E+01  1.00800000E+00  1.00800000E+00  0.00000000E+00  1.60000000E+01
  1.00800000E+00  1.00800000E+00  0.00000000E+00  1.60000000E+01  1.00800000E+00
  1.00800000E+00  0.00000000E+00  1.60000000E+01  1.00800000E+00  1.00800000E+00
  0.00000000E+00  1.60000000E+01  1.00800000E+00  1.00800000E+00  0.00000000E+00
  1.60000000E+01  1.00800000E+00  1.00800000E+00  0.00000000E+00  1.60000000E+01
  1.00800000E+00  1.00800000E+00  0.00000000E+00  1.60000000E+01  1.00800000E+00
  1.00800000E+00  0.00000000E+00  1.60000000E+01  1.00800000E+00  1.00800000E+00
  0.00000000E+00  1.60000000E+01  1.00800000E+00  1.00800000E+00  0.00000000E+00
  1.60000000E+01  1.00800000E+00  1.00800000E+00  0.00000000E+00  1.60000000E+01
  1.00800000E+00  1.00800000E+00  0.00000000E+00  1.60000000E+01  1.00800000E+00
  1.00800000E+00  0.00000000E+00  1.60000000E+01  1.00800000E+00  1.00800000E+00
  0.00000000E+00  1.60000000E+01  1.00800000E+00  1.00800000E+00  0.00000000E+00
  1.60000000E+01  1.00800000E+00  1.00800000E+00  0.00000000E+00  1.60000000E+01
  1.00800000E+00  1.00800000E+00  0.00000000E+00  1.60000000E+01  1.00800000E+00
  1.00800000E+00  0.00000000E+00  1.60000000E+01  1.00800000E+00  1.00800000E+00
  0.00000000E+00  1.60000000E+01  1.00800000E+00  1.00800000E+00  0.00000000E+00
  1.60000000E+01  1.00800000E+00  1.00800000E+00  0.00000000E+00  1.60000000E+01
  1.00800000E+00  1.00800000E+00  0.00000000E+00  1.60000000E+01  1.00800000E+00
  1.00800000E+00  0.00000000E+00  1.60000000E+01  1.00800000E+00  1.00800000E+00
  0.00000000E+00  1.60000000E+01  1.00800000E+00  1.00800000E+00  0.00000000E+00
  1.60000000E+01  1.00800000E+00  1.00800000E+00  0.00000000E+00  1.60000000E+01
  1.00800000E+00  1.00800000E+00  0.00000000E+00  1.60000000E+01  1.00800000E+00
  1.00800000E+00  0.00000000E+00  1.60000000E+01  1.00800000E+00  1.00800000E+00
  0.00000000E+00  1.60000000E+01  1.00800000E+00  1.00800000E+00  0.00000000E+00
  1.60000000E+01  1.00800000E+00  1.00800000E+00  0.00000000E+00  1.60000000E+01
  1.00800000E+00  1.00800000E+00  0.00000000E+00  1.60000000E+01  1.00800000E+00
  1.00800000E+00  0.00000000E+00  1.60000000E+01  1.00800000E+00  1.00800000E+00
  0.00000000E+00  1.60000000E+01  1.00800000E+00  1.00800000E+00  0.00000000E+00
  1.60000000E+01  1.00800000E+00  1.00800000E+00  0.00000000E+00  1.60000000E+01
  1.00800000E+00  1.00800000E+00  0.00000000E+00  1.60000000E+01  1.00800000E+00
  1.00800000E+00  0.00000000E+00  1.60000000E+01  1.00800000E+00  1.00800000E+00
  0.00000000E+00  1.60000000E+01  1.00800000E+00  1.00800000E+00  0.00000000E+00
  1.60000000E+01  1.00800000E+00  1.00800000E+00  0.00000000E+00  1.60000000E+01
  1.00800000E+00  1.00800000E+00  0.00000000E+00  1.60000000E+01  1.00800000E+00
  1.00800000E+00  0.00000000E+00  1.60000000E+01  1.00800000E+00  1.00800000E+00
  0.00000000E+00  1.60000000E+01  1.00800000E+00  1.00800000E+00  0.00000000E+00
  1.60000000E+01  1.00800000E+00  1.00800000E+00  0.00000000E+00  1.60000000E+01
  1.00800000E+00  1.00800000E+00  0.00000000E+00  1.60000000E+01  1.00800000E+00
  1.00800000E+00  0.00000000E+00  1.60000000E+01  1.00800000E+00  1.00800000E+00
  0.00000000E+00  1.60000000E+01  1.00800000E+00  1.00800000E+00  0.00000000E+00
  1.60000000E+01  1.00800000E+00  1.00800000E+00  0.00000000E+00  1.60000000E+01
  1.00800000E+00  1.00800000E+00  0.00000000E+00  1.60000000E+01  1.00800000E+00
  1.00800000E+00  0.00000000E+00  1.60000000E+01  1.00800000E+00  1.00800000E+00
  0.00000000E+00  1.60000000E+01  1.00800000E+00  1.00800000E+00  0.00000000E+00
  1.60000000E+01  1.00800000E+00  1.00800000E+00  0.00000000E+00  1.60000000E+01
  1.00800000E+00  1.00800000E+00  0.00000000E+00  1.60000000E+01  1.00800000E+00
  1.00800000E+00  0.00000000E+00  1.60000000E+01  1.00800000E+00  1.00800000E+00
  0.00000000E+00  1.60000000E+01  1.00800000E+00  1.00800000E+00  0.00000000E+00
  1.60000000E+01  1.00800000E+00  1.00800000E+00  0.00000000E+00  1.60000000E+01
  1.00800000E+00  1.00800000E+00  0.00000000E+00  1.60000000E+01  1.00800000E+00
  1.00800000E+00  0.00000000E+00  1.60000000E+01  1.00800000E+00  1.00800000E+00
  0.00000000E+00  1.60000000E+01  1.00800000E+00  1.00800000E+00  0.00000000E+00
  1.60000000E+01  1.00800000E+00  1.00800000E+00  0.00000000E+00  1.60000000E+01
  1.00800000E+00  1.00800000E+00  0.00000000E+00  1.60000000E+01  1.00800000E+00
  1.00800000E+00  0.00000000E+00  1.60000000E+01  1.00800000E+00  1.00800000E+00
  0.00000000E+00  1.60000000E+01  1.00800000E+00  1.00800000E+00  0.00000000E+00
  1.60000000E+01  1.00800000E+00  1.00800000E+00  0.00000000E+00  1.60000000E+01
  1.00800000E+00  1.00800000E+00  0.00000000E+00  1.60000000E+01  1.00800000E+00
  1.00800000E+00  0.00000000E+00  1.60000000E+01  1.00800000E+00  1.00800000E+00
  0.00000000E+00  1.60000000E+01  1.00800000E+00  1.00800000E+00  0.00000000E+00
  1.60000000E+01  1.00800000E+00  1.00800000E+00  0.00000000E+00  1.60000000E+01
  1.00800000E+00  1.00800000E+00  0.00000000E+00  1.60000000E+01  1.00800000E+00
  1.00800000E+00  0.00000000E+00  1.60000000E+01  1.00800000E+00  1.00800000E+00
  0.00000000E+00  1.60000000E+01  1.00800000E+00  1.00800000E+00  0.00000000E+00
  1.60000000E+01  1.00800000E+00  1.00800000E+00  0.00000000E+00  1.60000000E+01
  1.00800000E+00  1.00800000E+00  0.00000000E+00  1.60000000E+01  1.00800000E+00
  1.00800000E+00  0.00000000E+00  1.60000000E+01  1.00800000E+00  1.00800000E+00
  0.00000000E+00  1.60000000E+01  1.00800000E+00  1.00800000E+00  0.00000000E+00
  1.60000000E+01  1.00800000E+00  1.00800000E+00  0.00000000E+00  1.60000000E+01
  1.00800000E+00  1.00800000E+00  0.00000000E+00  1.60000000E+01  1.00800000E+00
  1.00800000E+00  0.00000000E+00  1.60000000E+01  1.00800000E+00  1.00800000E+00
  0.00000000E+00  1.60000000E+01  1.00800000E+00  1.00800000E+00  0.00000000E+00
  1.60000000E+01  1.00800000E+00  1.00800000E+00  0.00000000E+00  1.60000000E+01
  1.00800000E+00  1.00800000E+00  0.00000000E+00  1.60000000E+01  1.00800000E+00
  1.00800000E+00  0.00000000E+00  1.60000000E+01  1.00800000E+00  1.00800000E+00
  0.00000000E+00  1.60000000E+01  1.00800000E+00  1.00800000E+00  0.00000000E+00
  1.60000000E+01  1.00800000E+00  1.00800000E+00  0.00000000E+00  1.60000000E+01
  1.00800000E+00  1.00800000E+00  0.00000000E+00  1.60000000E+01  1.00800000E+00
  1.00800000E+00  0.00000000E+00  1.60000000E+01  1.00800000E+00  1.00800000E+00
  0.00000000E+00  1.60000000E+01  1.00800000E+00  1.00800000E+00  0.00000000E+00
  1.60000000E+01  1.00800000E+00  1.00800000E+00  0.00000000E+00  1.60000000E+01
  1.00800000E+00  1.00800000E+00  0.00000000E+00  1.60000000E+01  1.00800000E+00
  1.00800000E+00  0.00000000E+00  1.60000000E+01  1.00800000E+00  1.00800000E+00
  0.00000000E+00  1.60000000E+01  1.00800000E+00  1.00800000E+00  0.00000000E+00
  1.60000000E+01  1.00800000E+00  1.00800000E+00  0.00000000E+00  1.60000000E+01
  1.00800000E+00  1.00800000E+00  0.00000000E+00  1.60000000E+01  1.00800000E+00
  1.00800000E+00  0.00000000E+00  1.60000000E+01  1.00800000E+00  1.00800000E+00
  0.00000000E+00  1.60000000E+01  1.00800000E+00  1.00800000E+00  0.00000000E+00
  1.60000000E+01  1.00800000E+00  1.00800000E+00  0.00000000E+00  1.60000000E+01
  1.00800000E+00  1.00800000E+00  0.00000000E+00  1.60000000E+01  1.00800000E+00
  1.00800000E+00  0.00000000E+00  1.60000000E+01  1.00800000E+00  1.00800000E+00
  0.00000000E+00  1.60000000E+01  1.00800000E+00  1.00800000E+00  0.00000000E+00
  1.60000000E+01  1.00800000E+00  1.00800000E+00  0.00000000E+00  1.60000000E+01
  1.00800000E+00  1.00800000E+00  0.00000000E+00  1.60000000E+01  1.00800000E+00
  1.00800000E+00  0.00000000E+00  1.60000000E+01  1.00800000E+00  1.00800000E+00
  0.00000000E+00  1.60000000E+01  1.00800000E+00  1.00800000E+00  0.00000000E+00
  1.60000000E+01  1.00800000E+00  1.00800000E+00  0.00000000E+00  1.60000000E+01
  1.00800000E+00  1.00800000E+00  0.00000000E+00  1.60000000E+01  1.00800000E+00
  1.00800000E+00  0.00000000E+00  1.60000000E+01  1.00800000E+00  1.00800000E+00
  0.00000000E+00  1.60000000E+01  1.00800000E+00  1.00800000E+00  0.00000000E+00
  1.60000000E+01  1.00800000E+00  1.00800000E+00  0.00000000E+00  1.60000000E+01
  1.00800000E+00  1.00800000E+00  0.00000000E+00  1.60000000E+01  1.00800000E+00
  1.00800000E+00  0.00000000E+00  1.60000000E+01  1.00800000E+00  1.00800000E+00
  0.00000000E+00  1.60000000E+01  1.00800000E+00  1.00800000E+00  0.00000000E+00
  1.60000000E+01  1.00800000E+00  1.00800000E+00  0.00000000E+00  1.60000000E+01
  1.00800000E+00  1.00800000E+00  0.00000000E+00  1.60000000E+01  1.00800000E+00
  1.00800000E+00  0.00000000E+00  1.60000000E+01  1.00800000E+00  1.00800000E+00
  0.00000000E+00  1.60000000E+01  1.00800000E+00  1.00800000E+00  0.00000000E+00
  1.60000000E+01  1.00800000E+00  1.00800000E+00  0.00000000E+00  1.60000000E+01
  1.00800000E+00  1.00800000E+00  0.00000000E+00  1.60000000E+01  1.00800000E+00
  1.00800000E+00  0.00000000E+00  1.60000000E+01  1.00800000E+00  1.00800000E+00
  0.00000000E+00  1.60000000E+01  1.00800000E+00  1.00800000E+00  0.00000000E+00
  1.60000000E+01  1.00800000E+00  1.00800000E+00  0.00000000E+00  1.60000000E+01
  1.00800000E+00  1.00800000E+00  0.00000000E+00  1.60000000E+01  1.00800000E+00
  1.00800000E+00  0.00000000E+00  1.60000000E+01  1.00800000E+00  1.00800000E+00
  0.00000000E+00  1.60000000E+01  1.00800000E+00  1.00800000E+00  0.00000000E+00
  1.60000000E+01  1.00800000E+00  1.00800000E+00  0.00000000E+00  1.60000000E+01
  1.00800000E+00  1.00800000E+00  0.00000000E+00  1.60000000E+01  1.00800000E+00
  1.00800000E+00  0.00000000E+00  1.60000000E+01  1.00800000E+00  1.00800000E+00
  0.00000000E+00  1.60000000E+01  1.00800000E+00  1.00800000E+00  0.00000000E+00
  1.60000000E+01  1.00800000E+00  1.00800000E+00  0.00000000E+00  1.60000000E+01
  1.00800000E+00  1.00800000E+00  0.00000000E+00  1.60000000E+01  1.00800000E+00
  1.00800000E+00  0.00000000E+00  1.60000000E+01  1.00800000E+00  1.00800000E+00
  0.00000000E+00  1.60000000E+01  1.00800000E+00  1.00800000E+00  0.00000000E+00
  1.60000000E+01  1.00800000E+00  1.00800000E+00  0.00000000E+00  1.60000000E+01
  1.00800000E+00  1.00800000E+00  0.00000000E+00  1.60000000E+01  1.00800000E+00
  1.00800000E+00  0.00000000E+00  1.60000000E+01  1.00800000E+00  1.00800000E+00
  0.00000000E+00  1.60000000E+01  1.00800000E+00  1.00800000E+00  0.00000000E+00
  1.60000000E+01  1.00800000E+00  1.00800000E+00  0.00000000E+00  1.60000000E+01
  1.00800000E+00  1.00800000E+00  0.00000000E+00  1.60000000E+01  1.00800000E+00
  1.00800000E+00  0.00000000E+00  1.60000000E+01  1.00800000E+00  1.00800000E+00
  0.00000000E+00  1.60000000E+01  1.00800000E+00  1.00800000E+00  0.00000000E+00
  1.60000000E+01  1.00800000E+00  1.00800000E+00  0.00000000E+00  1.60000000E+01
  1.00800000E+00  1.00800000E+00  0.00000000E+00  1.60000000E+01  1.00800000E+00
  1.00800000E+00  0.00000000E+00  1.60000000E+01  1.00800000E+00  1.00800000E+00
  0.00000000E+00  1.60000000E+01  1.00800000E+00  1.00800000E+00  0.00000000E+00
  1.60000000E+01  1.00800000E+00  1.00800000E+00  0.00000000E+00  1.60000000E+01
  1.00800000E+00  1.00800000E+00  0.00000000E+00  1.60000000E+01  1.00800000E+00
  1.00800000E+00  0.00000000E+00  1.60000000E+01  1.00800000E+00  1.00800000E+00
  0.00000000E+00  1.60000000E+01  1.00800000E+00  1.00800000E+00  0.00000000E+00
  1.60000000E+01  1.00800000E+00  1.00800000E+00  0.00000000E+00  1.60000000E+01
  1.00800000E+00  1.00800000E+00  0.00000000E+00  1.60000000E+01  1.00800000E+00
  1.00800000E+00  0.00000000E+00  1.60000000E+01  1.00800000E+00  1.00800000E+00
  0.00000000E+00  1.60000000E+01  1.00800000E+00  1.00800000E+00  0.00000000E+00
  1.60000000E+01  1.00800000E+00  1.00800000E+00  0.00000000E+00  1.60000000E+01
  1.00800000E+00  1.00800000E+00  0.00000000E+00  1.60000000E+01  1.00800000E+00
  1.00800000E+00  0.00000000E+00  1.60000000E+01  1.00800000E+00  1.00800000E+00
  0.00000000E+00  1.60000000E+01  1.00800000E+00  1.00800000E+00  0.00000000E+00
  1.60000000E+01  1.00800000E+00  1.00800000E+00  0.00000000E+00  1.60000000E+01
  1.00800000E+00  1.00800000E+00  0.00000000E+00  1.60000000E+01  1.00800000E+00
  1.00800000E+00  0.00000000E+00  1.60000000E+01  1.00800000E+00  1.00800000E+00
  0.00000000E+00  1.60000000E+01  1.00800000E+00  1.00800000E+00  0.00000000E+00
  1.60000000E+01  1.00800000E+00  1.00800000E+00  0.00000000E+00  1.60000000E+01
  1.00800000E+00  1.00800000E+00  0.00000000E+00  1.60000000E+01  1.00800000E+00
  1.00800000E+00  0.00000000E+00  1.60000000E+01  1.00800000E+00  1.00800000E+00
  0.00000000E+00  1.60000000E+01  1.00800000E+00  1.00800000E+00  0.00000000E+00
  1.60000000E+01  1.00800000E+00  1.00800000E+00  0.00000000E+00  1.60000000E+01
  1.00800000E+00  1.00800000E+00  0.00000000E+00  1.60000000E+01  1.00800000E+00
  1.00800000E+00  0.00000000E+00  1.60000000E+01  1.00800000E+00  1.00800000E+00
  0.00000000E+00  1.60000000E+01  1.00800000E+00  1.00800000E+00  0.00000000E+00
  1.60000000E+01  1.00800000E+00  1.00800000E+00  0.00000000E+00  1.60000000E+01
  1.00800000E+00  1.00800000E+00  0.00000000E+00  1.60000000E+01  1.00800000E+00
  1.00800000E+00  0.00000000E+00  1.60000000E+01  1.00800000E+00  1.00800000E+00
  0.00000000E+00  1.60000000E+01  1.00800000E+00  1.00800000E+00  0.00000000E+00
  1.60000000E+01  1.00800000E+00  1.00800000E+00  0.00000000E+00  1.60000000E+01
  1.00800000E+00  1.00800000E+00  0.00000000E+00  1.60000000E+01  1.00800000E+00
  1.00800000E+00  0.00000000E+00  1.60000000E+01  1.00800000E+00  1.00800000E+00
  0.00000000E+00  1.60000000E+01  1.00800000E+00  1.00800000E+00  0.00000000E+00
  1.60000000E+01  1.00800000E+00  1.00800000E+00  0.00000000E+00  1.60000000E+01
  1.00800000E+00  1.00800000E+00  0.00000000E+00  1.60000000E+01  1.00800000E+00
  1.00800000E+00  0.00000000E+00  1.60000000E+01  1.00800000E+00  1.00800000E+00
  0.00000000E+00  1.60000000E+01  1.00800000E+00  1.00800000E+00  0.00000000E+00
  1.60000000E+01  1.00800000E+00  1.00800000E+00  0.00000000E+00  1.60000000E+01
  1.00800000E+00  1.00800000E+00  0.00000000E+00  1.60000000E+01  1.00800000E+00
  1.00800000E+00  0.00000000E+00  1.60000000E+01  1.00800000E+00  1.00800000E+00
  0.00000000E+00  1.60000000E+01  1.00800000E+00  1.00800000E+00  0.00000000E+00
  1.60000000E+01  1.00800000E+00  1.00800000E+00  0.00000000E+00  1.60000000E+01
  1.00800000E+00  1.00800000E+00  0.00000000E+00  1.60000000E+01  1.00800000E+00
  1.00800000E+00  0.00000000E+00  1.60000000E+01  1.00800000E+00  1.00800000E+00
  0.00000000E+00  1.60000000E+01  1.00800000E+00  1.00800000E+00  0.00000000E+00
  1.60000000E+01  1.00800000E+00  1.00800000E+00  0.00000000E+00  1.60000000E+01
  1.00800000E+00  1.00800000E+00  0.00000000E+00  1.60000000E+01  1.00800000E+00
  1.00800000E+00  0.00000000E+00  1.60000000E+01  1.00800000E+00  1.00800000E+00
  0.00000000E+00  1.60000000E+01  1.00800000E+00  1.00800000E+00  0.00000000E+00
  1.60000000E+01  1.00800000E+00  1.00800000E+00  0.00000000E+00  1.60000000E+01
  1.00800000E+00  1.00800000E+00  0.00000000E+00  1.60000000E+01  1.00800000E+00
  1.00800000E+00  0.00000000E+00  1.60000000E+01  1.00800000E+00  1.00800000E+00
  0.00000000E+00  1.60000000E+01  1.00800000E+00  1.00800000E+00  0.00000000E+00
  1.60000000E+01  1.00800000E+00  1.00800000E+00  0.00000000E+00  1.60000000E+01
  1.00800000E+00  1.00800000E+00  0.00000000E+00  1.60000000E+01  1.00800000E+00
  1.00800000E+00  0.00000000E+00  1.60000000E+01  1.00800000E+00  1.00800000E+00
  0.00000000E+00  1.60000000E+01  1.00800000E+00  1.00800000E+00  0.00000000E+00
  1.60000000E+01  1.00800000E+00  1.00800000E+00  0.00000000E+00  1.60000000E+01
  1.00800000E+00  1.00800000E+00  0.00000000E+00  1.60000000E+01  1.00800000E+00
  1.00800000E+00  0.00000000E+00  1.60000000E+01  1.00800000E+00  1.00800000E+00
  0.00000000E+00  1.60000000E+01  1.00800000E+00  1.00800000E+00  0.00000000E+00
  1.60000000E+01  1.00800000E+00  1.00800000E+00  0.00000000E+00  1.60000000E+01
  1.00800000E+00  1.00800000E+00  0.00000000E+00  1.60000000E+01  1.00800000E+00
  1.00800000E+00  0.00000000E+00  1.60000000E+01  1.00800000E+00  1.00800000E+00
  0.00000000E+00  1.60000000E+01  1.00800000E+00  1.00800000E+00  0.00000000E+00
  1.60000000E+01  1.00800000E+00  1.00800000E+00  0.00000000E+00  1.60000000E+01
  1.00800000E+00  1.00800000E+00  0.00000000E+00  1.60000000E+01  1.00800000E+00
  1.00800000E+00  0.00000000E+00  1.60000000E+01  1.00800000E+00  1.00800000E+00
  0.00000000E+00  1.60000000E+01  1.00800000E+00  1.00800000E+00  0.00000000E+00
  1.60000000E+01  1.00800000E+00  1.00800000E+00  0.00000000E+00  1.60000000E+01
  1.00800000E+00  1.00800000E+00  0.00000000E+00  1.60000000E+01  1.00800000E+00
  1.00800000E+00  0.00000000E+00  1.60000000E+01  1.00800000E+00  1.00800000E+00
  0.00000000E+00  1.60000000E+01  1.00800000E+00  1.00800000E+00  0.00000000E+00
  1.60000000E+01  1.00800000E+00  1.00800000E+00  0.00000000E+00  1.60000000E+01
  1.00800000E+00  1.00800000E+00  0.00000000E+00  1.60000000E+01  1.00800000E+00
  1.00800000E+00  0.00000000E+00  1.60000000E+01  1.00800000E+00  1.00800000E+00
  0.00000000E+00  1.60000000E+01  1.00800000E+00  1.00800000E+00  0.00000000E+00
  1.60000000E+01  1.00800000E+00  1.00800000E+00  0.00000000E+00  1.60000000E+01
  1.00800000E+00  1.00800000E+00  0.00000000E+00  1.60000000E+01  1.00800000E+00
  1.00800000E+00  0.00000000E+00  1.60000000E+01  1.00800000E+00  1.00800000E+00
  0.00000000E+00  1.60000000E+01  1.00800000E+00  1.00800000E+00  0.00000000E+00
  1.60000000E+01  1.00800000E+00  1.00800000E+00  0.00000000E+00  1.60000000E+01
  1.00800000E+00  1.00800000E+00  0.00000000E+00  1.60000000E+01  1.00800000E+00
  1.00800000E+00  0.00000000E+00  1.60000000E+01  1.00800000E+00  1.00800000E+00
  0.00000000E+00  1.60000000E+01  1.00800000E+00  1.00800000E+00  0.00000000E+00
  1.60000000E+01  1.00800000E+00  1.00800000E+00  0.00000000E+00  1.60000000E+01
  1.00800000E+00  1.00800000E+00  0.00000000E+00  1.60000000E+01  1.00800000E+00
  1.00800000E+00  0.00000000E+00  1.60000000E+01  1.00800000E+00  1.00800000E+00
  0.00000000E+00  1.60000000E+01  1.00800000E+00  1.00800000E+00  0.00000000E+00
  1.60000000E+01  1.00800000E+00  1.00800000E+00  0.00000000E+00  1.60000000E+01
  1.00800000E+00  1.00800000E+00  0.00000000E+00  1.60000000E+01  1.00800000E+00
  1.00800000E+00  0.00000000E+00  1.60000000E+01  1.00800000E+00  1.00800000E+00
  0.00000000E+00  1.60000000E+01  1.00800000E+00  1.00800000E+00  0.00000000E+00
  1.60000000E+01  1.00800000E+00  1.00800000E+00  0.00000000E+00  1.60000000E+01
  1.00800000E+00  1.00800000E+00  0.00000000E+00  1.60000000E+01  1.00800000E+00
  1.00800000E+00  0.00000000E+00  1.60000000E+01  1.00800000E+00  1.00800000E+00
  0.00000000E+00  1.60000000E+01  1.00800000E+00  1.00800000E+00  0.00000000E+00
  1.60000000E+01  1.00800000E+00  1.00800000E+00  0.00000000E+00  1.60000000E+01
  1.00800000E+00  1.00800000E+00  0.00000000E+00  1.60000000E+01  1.00800000E+00
  1.00800000E+00  0.00000000E+00  1.60000000E+01  1.00800000E+00  1.00800000E+00
  0.00000000E+00  1.60000000E+01  1.00800000E+00  1.00800000E+00  0.00000000E+00
  1.60000000E+01  1.00800000E+00  1.00800000E+00  0.00000000E+00  1.60000000E+01
  1.00800000E+00  1.00800000E+00  0.00000000E+00  1.60000000E+01  1.00800000E+00
  1.00800000E+00  0.00000000E+00  1.60000000E+01  1.00800000E+00  1.00800000E+00
  0.00000000E+00  1.60000000E+01  1.00800000E+00  1.00800000E+00  0.00000000E+00
  1.60000000E+01  1.00800000E+00  1.00800000E+00  0.00000000E+00  1.60000000E+01
  1.00800000E+00  1.00800000E+00  0.00000000E+00  1.60000000E+01  1.00800000E+00
  1.00800000E+00  0.00000000E+00  1.60000000E+01  1.00800000E+00  1.00800000E+00
  0.00000000E+00  1.60000000E+01  1.00800000E+00  1.00800000E+00  0.00000000E+00
  1.60000000E+01  1.00800000E+00  1.00800000E+00  0.00000000E+00  1.60000000E+01
  1.00800000E+00  1.00800000E+00  0.00000000E+00  1.60000000E+01  1.00800000E+00
  1.00800000E+00  0.00000000E+00  1.60000000E+01  1.00800000E+00  1.00800000E+00
  0.00000000E+00  1.60000000E+01  1.00800000E+00  1.00800000E+00  0.00000000E+00
  1.60000000E+01  1.00800000E+00  1.00800000E+00  0.00000000E+00  1.60000000E+01
  1.00800000E+00  1.00800000E+00  0.00000000E+00  1.60000000E+01  1.00800000E+00
  1.00800000E+00  0.00000000E+00  1.60000000E+01  1.00800000E+00  1.00800000E+00
  0.00000000E+00  1.60000000E+01  1.00800000E+00  1.00800000E+00  0.00000000E+00
  1.60000000E+01  1.00800000E+00  1.00800000E+00  0.00000000E+00  1.60000000E+01
  1.00800000E+00  1.00800000E+00  0.00000000E+00  1.60000000E+01  1.00800000E+00
  1.00800000E+00  0.00000000E+00  1.60000000E+01  1.00800000E+00  1.00800000E+00
  0.00000000E+00  1.60000000E+01  1.00800000E+00  1.00800000E+00  0.00000000E+00
  1.60000000E+01  1.00800000E+00  1.00800000E+00  0.00000000E+00  1.60000000E+01
  1.00800000E+00  1.00800000E+00  0.00000000E+00  1.60000000E+01  1.00800000E+00
  1.00800000E+00  0.00000000E+00  1.60000000E+01  1.00800000E+00  1.00800000E+00
  0.00000000E+00  1.60000000E+01  1.00800000E+00  1.00800000E+00  0.00000000E+00
  1.60000000E+01  1.00800000E+00  1.00800000E+00  0.00000000E+00  1.60000000E+01
  1.00800000E+00  1.00800000E+00  0.00000000E+00  1.60000000E+01  1.00800000E+00
  1.00800000E+00  0.00000000E+00  1.60000000E+01  1.00800000E+00  1.00800000E+00
  0.00000000E+00  1.60000000E+01  1.00800000E+00  1.00800000E+00  0.00000000E+00
  1.60000000E+01  1.00800000E+00  1.00800000E+00  0.00000000E+00  1.60000000E+01
  1.00800000E+00  1.00800000E+00  0.00000000E+00  1.60000000E+01  1.00800000E+00
  1.00800000E+00  0.00000000E+00  1.60000000E+01  1.00800000E+00  1.00800000E+00
  0.00000000E+00  1.60000000E+01  1.00800000E+00  1.00800000E+00  0.00000000E+00
  1.60000000E+01  1.00800000E+00  1.00800000E+00  0.00000000E+00  1.60000000E+01
  1.00800000E+00  1.00800000E+00  0.00000000E+00  1.60000000E+01  1.00800000E+00
  1.00800000E+00  0.00000000E+00  1.60000000E+01  1.00800000E+00  1.00800000E+00
  0.00000000E+00  1.60000000E+01  1.00800000E+00  1.00800000E+00  0.00000000E+00
  1.60000000E+01  1.00800000E+00  1.00800000E+00  0.00000000E+00  1.60000000E+01
  1.00800000E+00  1.00800000E+00  0.00000000E+00  1.60000000E+01  1.00800000E+00
  1.00800000E+00  0.00000000E+00  1.60000000E+01  1.00800000E+00  1.00800000E+00
  0.00000000E+00  1.60000000E+01  1.00800000E+00  1.00800000E+00  0.00000000E+00
  1.60000000E+01  1.00800000E+00  1.00800000E+00  0.00000000E+00  1.60000000E+01
  1.00800000E+00  1.00800000E+00  0.00000000E+00  1.60000000E+01  1.00800000E+00
  1.00800000E+00  0.00000000E+00  1.60000000E+01  1.00800000E+00  1.00800000E+00
  0.00000000E+00  1.60000000E+01  1.00800000E+00  1.00800000E+00  0.00000000E+00
  1.60000000E+01  1.00800000E+00  1.00800000E+00  0.00000000E+00  1.60000000E+01
  1.00800000E+00  1.00800000E+00  0.00000000E+00  1.60000000E+01  1.00800000E+00
  1.00800000E+00  0.00000000E+00  1.60000000E+01  1.00800000E+00  1.00800000E+00
  0.00000000E+00  1.60000000E+01  1.00800000E+00  1.00800000E+00  0.00000000E+00
  1.60000000E+01  1.00800000E+00  1.00800000E+00  0.00000000E+00  1.60000000E+01
  1.00800000E+00  1.00800000E+00  0.00000000E+00  1.60000000E+01  1.00800000E+00
  1.00800000E+00  0.00000000E+00  1.60000000E+01  1.00800000E+00  1.00800000E+00
  0.00000000E+00  1.60000000E+01  1.00800000E+00  1.00800000E+00  0.00000000E+00
  1.60000000E+01  1.00800000E+00  1.00800000E+00  0.00000000E+00  1.60000000E+01
  1.00800000E+00  1.00800000E+00  0.00000000E+00  1.60000000E+01  1.00800000E+00
  1.00800000E+00  0.00000000E+00  1.60000000E+01  1.00800000E+00  1.00800000E+00
  0.00000000E+00  1.60000000E+01  1.00800000E+00  1.00800000E+00  0.00000000E+00
  1.60000000E+01  1.00800000E+00  1.00800000E+00  0.00000000E+00  1.60000000E+01
  1.00800000E+00  1.00800000E+00  0.00000000E+00  1.60000000E+01  1.00800000E+00
  1.00800000E+00  0.00000000E+00  1.60000000E+01  1.00800000E+00  1.00800000E+00
  0.00000000E+00  1.60000000E+01  1.00800000E+00  1.00800000E+00  0.00000000E+00
  1.60000000E+01  1.00800000E+00  1.00800000E+00  0.00000000E+00  1.60000000E+01
  1.00800000E+00  1.00800000E+00  0.00000000E+00  1.60000000E+01  1.00800000E+00
  1.00800000E+00  0.00000000E+00  1.60000000E+01  1.00800000E+00  1.00800000E+00
  0.00000000E+00  1.60000000E+01  1.00800000E+00  1.00800000E+00  0.00000000E+00
  1.60000000E+01  1.00800000E+00  1.00800000E+00  0.00000000E+00  1.60000000E+01
  1.00800000E+00  1.00800000E+00  0.00000000E+00  1.60000000E+01  1.00800000E+00
  1.00800000E+00  0.00000000E+00  1.60000000E+01  1.00800000E+00  1.00800000E+00
  0.00000000E+00  1.60000000E+01  1.00800000E+00  1.00800000E+00  0.00000000E+00
  1.60000000E+01  1.00800000E+00  1.00800000E+00  0.00000000E+00  1.60000000E+01
  1.00800000E+00  1.00800000E+00  0.00000000E+00  1.60000000E+01  1.00800000E+00
  1.00800000E+00  0.00000000E+00  1.60000000E+01  1.00800000E+00  1.00800000E+00
  0.00000000E+00  1.60000000E+01  1.00800000E+00  1.00800000E+00  0.00000000E+00
  1.60000000E+01  1.00800000E+00  1.00800000E+00  0.00000000E+00  1.60000000E+01
  1.00800000E+00  1.00800000E+00  0.00000000E+00  1.60000000E+01  1.00800000E+00
  1.00800000E+00  0.00000000E+00  1.60000000E+01  1.00800000E+00  1.00800000E+00
  0.00000000E+00  1.60000000E+01  1.00800000E+00  1.00800000E+00  0.00000000E+00
  1.60000000E+01  1.00800000E+00  1.00800000E+00  0.00000000E+00  1.60000000E+01
  1.00800000E+00  1.00800000E+00  0.00000000E+00  1.60000000E+01  1.00800000E+00
  1.00800000E+00  0.00000000E+00  1.60000000E+01  1.00800000E+00  1.00800000E+00
  0.00000000E+00  1.60000000E+01  1.00800000E+00  1.00800000E+00  0.00000000E+00
  1.60000000E+01  1.00800000E+00  1.00800000E+00  0.00000000E+00  1.60000000E+01
  1.00800000E+00  1.00800000E+00  0.00000000E+00  1.60000000E+01  1.00800000E+00
  1.00800000E+00  0.00000000E+00  1.60000000E+01  1.00800000E+00  1.00800000E+00
  0.00000000E+00  1.60000000E+01  1.00800000E+00  1.00800000E+00  0.00000000E+00
  1.60000000E+01  1.00800000E+00  1.00800000E+00  0.00000000E+00  1.60000000E+01
  1.00800000E+00  1.00800000E+00  0.00000000E+00  1.60000000E+01  1.00800000E+00
  1.00800000E+00  0.00000000E+00  1.60000000E+01  1.00800000E+00  1.00800000E+00
  0.00000000E+00  1.60000000E+01  1.00800000E+00  1.00800000E+00  0.00000000E+00
  1.60000000E+01  1.00800000E+00  1.00800000E+00  0.00000000E+00  1.60000000E+01
  1.00800000E+00  1.00800000E+00  0.00000000E+00  1.60000000E+01  1.00800000E+00
  1.00800000E+00  0.00000000E+00  1.60000000E+01  1.00800000E+00  1.00800000E+00
  0.00000000E+00  1.60000000E+01  1.00800000E+00  1.00800000E+00  0.00000000E+00
  1.60000000E+01  1.00800000E+00  1.00800000E+00  0.00000000E+00  1.60000000E+01
  1.00800000E+00  1.00800000E+00  0.00000000E+00  1.60000000E+01  1.00800000E+00
  1.00800000E+00  0.00000000E+00  1.60000000E+01  1.00800000E+00  1.00800000E+00
  0.00000000E+00  1.60000000E+01  1.00800000E+00  1.00800000E+00  0.00000000E+00
  1.60000000E+01  1.00800000E+00  1.00800000E+00  0.00000000E+00  1.60000000E+01
  1.00800000E+00  1.00800000E+00  0.00000000E+00  1.60000000E+01  1.00800000E+00
  1.00800000E+00  0.00000000E+00  1.60000000E+01  1.00800000E+00  1.00800000E+00
  0.00000000E+00  1.60000000E+01  1.00800000E+00  1.00800000E+00  0.00000000E+00
  1.60000000E+01  1.00800000E+00  1.00800000E+00  0.00000000E+00  1.60000000E+01
  1.00800000E+00  1.00800000E+00  0.00000000E+00  1.60000000E+01  1.00800000E+00
  1.00800000E+00  0.00000000E+00  1.60000000E+01  1.00800000E+00  1.00800000E+00
  0.00000000E+00  1.60000000E+01  1.00800000E+00  1.00800000E+00  0.00000000E+00
  1.60000000E+01  1.00800000E+00  1.00800000E+00  0.00000000E+00  1.60000000E+01
  1.00800000E+00  1.00800000E+00  0.00000000E+00  1.60000000E+01  1.00800000E+00
  1.00800000E+00  0.00000000E+00  1.60000000E+01  1.00800000E+00  1.00800000E+00
  0.00000000E+00  1.60000000E+01  1.00800000E+00  1.00800000E+00  0.00000000E+00
  1.60000000E+01  1.00800000E+00  1.00800000E+00  0.00000000E+00  1.60000000E+01
  1.00800000E+00  1.00800000E+00  0.00000000E+00  1.60000000E+01  1.00800000E+00
  1.00800000E+00  0.00000000E+00  1.60000000E+01  1.00800000E+00  1.00800000E+00
  0.00000000E+00  1.60000000E+01  1.00800000E+00  1.00800000E+00  0.00000000E+00
  1.60000000E+01  1.00800000E+00  1.00800000E+00  0.00000000E+00  1.60000000E+01
  1.00800000E+00  1.00800000E+00  0.00000000E+00  1.60000000E+01  1.00800000E+00
  1.00800000E+00  0.00000000E+00  1.60000000E+01  1.00800000E+00  1.00800000E+00
  0.00000000E+00  1.60000000E+01  1.00800000E+00  1.00800000E+00  0.00000000E+00
  1.60000000E+01  1.00800000E+00  1.00800000E+00  0.00000000E+00  1.60000000E+01
  1.00800000E+00  1.00800000E+00  0.00000000E+00  1.60000000E+01  1.00800000E+00
  1.00800000E+00  0.00000000E+00  1.60000000E+01  1.00800000E+00  1.00800000E+00
  0.00000000E+00  1.60000000E+01  1.00800000E+00  1.00800000E+00  0.00000000E+00
  1.60000000E+01  1.00800000E+00  1.00800000E+00  0.00000000E+00  1.60000000E+01
  1.00800000E+00  1.00800000E+00  0.00000000E+00  1.60000000E+01  1.00800000E+00
  1.00800000E+00  0.00000000E+00  1.60000000E+01  1.00800000E+00  1.00800000E+00
  0.00000000E+00  1.60000000E+01  1.00800000E+00  1.00800000E+00  0.00000000E+00
  1.60000000E+01  1.00800000E+00  1.00800000E+00  0.00000000E+00  1.60000000E+01
  1.00800000E+00  1.00800000E+00  0.00000000E+00  1.60000000E+01  1.00800000E+00
  1.00800000E+00  0.00000000E+00  1.60000000E+01  1.00800000E+00  1.00800000E+00
  0.00000000E+00  1.60000000E+01  1.00800000E+00  1.00800000E+00  0.00000000E+00
  1.60000000E+01  1.00800000E+00  1.00800000E+00  0.00000000E+00  1.60000000E+01
  1.00800000E+00  1.00800000E+00  0.00000000E+00  1.60000000E+01  1.00800000E+00
  1.00800000E+00  0.00000000E+00  1.60000000E+01  1.00800000E+00  1.00800000E+00
  0.00000000E+00  1.60000000E+01  1.00800000E+00  1.00800000E+00  0.00000000E+00
  1.60000000E+01  1.00800000E+00  1.00800000E+00  0.00000000E+00  1.60000000E+01
  1.00800000E+00  1.00800000E+00  0.00000000E+00  1.60000000E+01  1.00800000E+00
  1.00800000E+00  0.00000000E+00  1.60000000E+01  1.00800000E+00  1.00800000E+00
  0.00000000E+00  1.60000000E+01  1.00800000E+00  1.00800000E+00  0.00000000E+00
  1.60000000E+01  1.00800000E+00  1.00800000E+00  0.00000000E+00  1.60000000E+01
  1.00800000E+00  1.00800000E+00  0.00000000E+00  1.60000000E+01  1.00800000E+00
  1.00800000E+00  0.00000000E+00  1.60000000E+01  1.00800000E+00  1.00800000E+00
  0.00000000E+00  1.60000000E+01  1.00800000E+00  1.00800000E+00  0.00000000E+00
  1.60000000E+01  1.00800000E+00  1.00800000E+00  0.00000000E+00  1.60000000E+01
  1.00800000E+00  1.00800000E+00  0.00000000E+00  1.60000000E+01  1.00800000E+00
  1.00800000E+00  0.00000000E+00  1.60000000E+01  1.00800000E+00  1.00800000E+00
  0.00000000E+00  1.60000000E+01  1.00800000E+00  1.00800000E+00  0.00000000E+00
  1.60000000E+01  1.00800000E+00  1.00800000E+00  0.00000000E+00  1.60000000E+01
  1.00800000E+00  1.00800000E+00  0.00000000E+00  1.60000000E+01  1.00800000E+00
  1.00800000E+00  0.00000000E+00  1.60000000E+01  1.00800000E+00  1.00800000E+00
  0.00000000E+00  1.60000000E+01  1.00800000E+00  1.00800000E+00  0.00000000E+00
  1.60000000E+01  1.00800000E+00  1.00800000E+00  0.00000000E+00  1.60000000E+01
  1.00800000E+00  1.00800000E+00  0.00000000E+00  1.60000000E+01  1.00800000E+00
  1.00800000E+00  0.00000000E+00  1.60000000E+01  1.00800000E+00  1.00800000E+00
  0.00000000E+00  1.60000000E+01  1.00800000E+00  1.00800000E+00  0.00000000E+00
  1.60000000E+01  1.00800000E+00  1.00800000E+00  0.00000000E+00  1.60000000E+01
  1.00800000E+00  1.00800000E+00  0.00000000E+00  1.60000000E+01  1.00800000E+00
  1.00800000E+00  0.00000000E+00  1.60000000E+01  1.00800000E+00  1.00800000E+00
  0.00000000E+00  1.60000000E+01  1.00800000E+00  1.00800000E+00  0.00000000E+00
  1.60000000E+01  1.00800000E+00  1.00800000E+00  0.00000000E+00  1.60000000E+01
  1.00800000E+00  1.00800000E+00  0.00000000E+00  1.60000000E+01  1.00800000E+00
  1.00800000E+00  0.00000000E+00  1.60000000E+01  1.00800000E+00  1.00800000E+00
  0.00000000E+00  1.60000000E+01  1.00800000E+00  1.00800000E+00  0.00000000E+00
  1.60000000E+01  1.00800000E+00  1.00800000E+00  0.00000000E+00  1.60000000E+01
  1.00800000E+00  1.00800000E+00  0.00000000E+00  1.60000000E+01  1.00800000E+00
  1.00800000E+00  0.00000000E+00  1.60000000E+01  1.00800000E+00  1.00800000E+00
  0.00000000E+00  1.60000000E+01  1.00800000E+00  1.00800000E+00  0.00000000E+00
  1.60000000E+01  1.00800000E+00  1.00800000E+00  0.00000000E+00  1.60000000E+01
  1.00800000E+00  1.00800000E+00  0.00000000E+00  1.60000000E+01  1.00800000E+00
  1.00800000E+00  0.00000000E+00  1.60000000E+01  1.00800000E+00  1.00800000E+00
  0.00000000E+00  1.60000000E+01  1.00800000E+00  1.00800000E+00  0.00000000E+00
  1.60000000E+01  1.00800000E+00  1.00800000E+00  0.00000000E+00  1.60000000E+01
  1.00800000E+00  1.00800000E+00  0.00000000E+00  1.60000000E+01  1.00800000E+00
  1.00800000E+00  0.00000000E+00  1.60000000E+01  1.00800000E+00  1.00800000E+00
  0.00000000E+00  1.60000000E+01  1.00800000E+00  1.00800000E+00  0.00000000E+00
  1.60000000E+01  1.00800000E+00  1.00800000E+00  0.00000000E+00  1.60000000E+01
  1.00800000E+00  1.00800000E+00  0.00000000E+00  1.60000000E+01  1.00800000E+00
  1.00800000E+00  0.00000000E+00  1.60000000E+01  1.00800000E+00  1.00800000E+00
  0.00000000E+00  1.60000000E+01  1.00800000E+00  1.00800000E+00  0.00000000E+00
  1.60000000E+01  1.00800000E+00  1.00800000E+00  0.00000000E+00  1.60000000E+01
  1.00800000E+00  1.00800000E+00  0.00000000E+00  1.60000000E+01  1.00800000E+00
  1.00800000E+00  0.00000000E+00  1.60000000E+01  1.00800000E+00  1.00800000E+00
  0.00000000E+00  1.60000000E+01  1.00800000E+00  1.00800000E+00  0.00000000E+00
  1.60000000E+01  1.00800000E+00  1.00800000E+00  0.00000000E+00  1.60000000E+01
  1.00800000E+00  1.00800000E+00  0.00000000E+00  1.60000000E+01  1.00800000E+00
  1.00800000E+00  0.00000000E+00  1.60000000E+01  1.00800000E+00  1.00800000E+00
  0.00000000E+00  1.60000000E+01  1.00800000E+00  1.00800000E+00  0.00000000E+00
  1.60000000E+01  1.00800000E+00  1.00800000E+00  0.00000000E+00  1.60000000E+01
  1.00800000E+00  1.00800000E+00  0.00000000E+00  1.60000000E+01  1.00800000E+00
  1.00800000E+00  0.00000000E+00  1.60000000E+01  1.00800000E+00  1.00800000E+00
  0.00000000E+00  1.60000000E+01  1.00800000E+00  1.00800000E+00  0.00000000E+00
  1.60000000E+01  1.00800000E+00  1.00800000E+00  0.00000000E+00  1.60000000E+01
  1.00800000E+00  1.00800000E+00  0.00000000E+00  1.60000000E+01  1.00800000E+00
  1.00800000E+00  0.00000000E+00  1.60000000E+01  1.00800000E+00  1.00800000E+00
  0.00000000E+00  1.60000000E+01  1.00800000E+00  1.00800000E+00  0.00000000E+00
  1.60000000E+01  1.00800000E+00  1.00800000E+00  0.00000000E+00  1.60000000E+01
  1.00800000E+00  1.00800000E+00  0.00000000E+00  1.60000000E+01  1.00800000E+00
  1.00800000E+00  0.00000000E+00  1.60000000E+01  1.00800000E+00  1.00800000E+00
  0.00000000E+00  1.60000000E+01  1.00800000E+00  1.00800000E+00  0.00000000E+00
  1.60000000E+01  1.00800000E+00  1.00800000E+00  0.00000000E+00  1.60000000E+01
  1.00800000E+00  1.00800000E+00  0.00000000E+00  1.60000000E+01  1.00800000E+00
  1.00800000E+00  0.00000000E+00  1.60000000E+01  1.00800000E+00  1.00800000E+00
  0.00000000E+00  1.60000000E+01  1.00800000E+00  1.00800000E+00  0.00000000E+00
  1.60000000E+01  1.00800000E+00  1.00800000E+00  0.00000000E+00  1.60000000E+01
  1.00800000E+00  1.00800000E+00  0.00000000E+00  1.60000000E+01  1.00800000E+00
  1.00800000E+00  0.00000000E+00  1.60000000E+01  1.00800000E+00  1.00800000E+00
  0.00000000E+00  1.60000000E+01  1.00800000E+00  1.00800000E+00  0.00000000E+00
  1.60000000E+01  1.00800000E+00  1.00800000E+00  0.00000000E+00  1.60000000E+01
  1.00800000E+00  1.00800000E+00  0.00000000E+00  1.60000000E+01  1.00800000E+00
  1.00800000E+00  0.00000000E+00  1.60000000E+01  1.00800000E+00  1.00800000E+00
  0.00000000E+00  1.60000000E+01  1.00800000E+00  1.00800000E+00  0.00000000E+00
  1.60000000E+01  1.00800000E+00  1.00800000E+00  0.00000000E+00  1.60000000E+01
  1.00800000E+00  1.00800000E+00  0.00000000E+00  1.60000000E+01  1.00800000E+00
  1.00800000E+00  0.00000000E+00  1.60000000E+01  1.00800000E+00  1.00800000E+00
  0.00000000E+00  1.60000000E+01  1.00800000E+00  1.00800000E+00  0.00000000E+00
  1.60000000E+01  1.00800000E+00  1.00800000E+00  0.00000000E+00  1.60000000E+01
  1.00800000E+00  1.00800000E+00  0.00000000E+00  1.60000000E+01  1.00800000E+00
  1.00800000E+00  0.00000000E+00  1.60000000E+01  1.00800000E+00  1.00800000E+00
  0.00000000E+00  1.60000000E+01  1.00800000E+00  1.00800000E+00  0.00000000E+00
  1.60000000E+01  1.00800000E+00  1.00800000E+00  0.00000000E+00  1.60000000E+01
  1.00800000E+00  1.00800000E+00  0.00000000E+00  1.60000000E+01  1.00800000E+00
  1.00800000E+00  0.00000000E+00  1.60000000E+01  1.00800000E+00  1.00800000E+00
  0.00000000E+00  1.60000000E+01  1.00800000E+00  1.00800000E+00  0.00000000E+00
  1.60000000E+01  1.00800000E+00  1.00800000E+00  0.00000000E+00  1.60000000E+01
  1.00800000E+00  1.00800000E+00  0.00000000E+00  1.60000000E+01  1.00800000E+00
  1.00800000E+00  0.00000000E+00  1.60000000E+01  1.00800000E+00  1.00800000E+00
  0.00000000E+00  1.60000000E+01  1.00800000E+00  1.00800000E+00  0.00000000E+00
  1.60000000E+01  1.00800000E+00  1.00800000E+00  0.00000000E+00  1.60000000E+01
  1.00800000E+00  1.00800000E+00  0.00000000E+00  1.60000000E+01  1.00800000E+00
  1.00800000E+00  0.00000000E+00  1.60000000E+01  1.00800000E+00  1.00800000E+00
  0.00000000E+00  1.60000000E+01  1.00800000E+00  1.00800000E+00  0.00000000E+00
  1.60000000E+01  1.00800000E+00  1.00800000E+00  0.00000000E+00  1.60000000E+01
  1.00800000E+00  1.00800000E+00  0.00000000E+00  1.60000000E+01  1.00800000E+00
  1.00800000E+00  0.00000000E+00  1.60000000E+01  1.00800000E+00  1.00800000E+00
  0.00000000E+00  1.60000000E+01  1.00800000E+00  1.00800000E+00  0.00000000E+00
  1.60000000E+01  1.00800000E+00  1.00800000E+00  0.00000000E+00  1.60000000E+01
  1.00800000E+00  1.00800000E+00  0.00000000E+00  1.60000000E+01  1.00800000E+00
  1.00800000E+00  0.00000000E+00  1.60000000E+01  1.00800000E+00  1.00800000E+00
  0.00000000E+00  1.60000000E+01  1.00800000E+00  1.00800000E+00  0.00000000E+00
  1.60000000E+01  1.00800000E+00  1.00800000E+00  0.00000000E+00  1.60000000E+01
  1.00800000E+00  1.00800000E+00  0.00000000E+00  1.60000000E+01  1.00800000E+00
  1.00800000E+00  0.00000000E+00  1.60000000E+01  1.00800000E+00  1.00800000E+00
  0.00000000E+00  1.60000000E+01  1.00800000E+00  1.00800000E+00  0.00000000E+00
  1.60000000E+01  1.00800000E+00  1.00800000E+00  0.00000000E+00  1.60000000E+01
  1.00800000E+00  1.00800000E+00  0.00000000E+00  1.60000000E+01  1.00800000E+00
  1.00800000E+00  0.00000000E+00  1.60000000E+01  1.00800000E+00  1.00800000E+00
  0.00000000E+00  1.60000000E+01  1.00800000E+00  1.00800000E+00  0.00000000E+00
  1.60000000E+01  1.00800000E+00  1.00800000E+00  0.00000000E+00  1.60000000E+01
  1.00800000E+00  1.00800000E+00  0.00000000E+00  1.60000000E+01  1.00800000E+00
  1.00800000E+00  0.00000000E+00  1.60000000E+01  1.00800000E+00  1.00800000E+00
  0.00000000E+00  1.60000000E+01  1.00800000E+00  1.00800000E+00  0.00000000E+00
  1.60000000E+01  1.00800000E+00  1.00800000E+00  0.00000000E+00  1.60000000E+01
  1.00800000E+00  1.00800000E+00  0.00000000E+00  1.60000000E+01  1.00800000E+00
  1.00800000E+00  0.00000000E+00  1.60000000E+01  1.00800000E+00  1.00800000E+00
  0.00000000E+00  1.60000000E+01  1.00800000E+00  1.00800000E+00  0.00000000E+00
  1.60000000E+01  1.00800000E+00  1.00800000E+00  0.00000000E+00  1.60000000E+01
  1.00800000E+00  1.00800000E+00  0.00000000E+00  1.60000000E+01  1.00800000E+00
  1.00800000E+00  0.00000000E+00  1.60000000E+01  1.00800000E+00  1.00800000E+00
  0.00000000E+00  1.60000000E+01  1.00800000E+00  1.00800000E+00  0.00000000E+00
  1.60000000E+01  1.00800000E+00  1.00800000E+00  0.00000000E+00  1.60000000E+01
  1.00800000E+00  1.00800000E+00  0.00000000E+00  1.60000000E+01  1.00800000E+00
  1.00800000E+00  0.00000000E+00  1.60000000E+01  1.00800000E+00  1.00800000E+00
  0.00000000E+00  1.60000000E+01  1.00800000E+00  1.00800000E+00  0.00000000E+00
  1.60000000E+01  1.00800000E+00  1.00800000E+00  0.00000000E+00  1.60000000E+01
  1.00800000E+00  1.00800000E+00  0.00000000E+00  1.60000000E+01  1.00800000E+00
  1.00800000E+00  0.00000000E+00  1.60000000E+01  1.00800000E+00  1.00800000E+00
  0.00000000E+00  1.60000000E+01  1.00800000E+00  1.00800000E+00  0.00000000E+00
  1.60000000E+01  1.00800000E+00  1.00800000E+00  0.00000000E+00  1.60000000E+01
  1.00800000E+00  1.00800000E+00  0.00000000E+00  1.60000000E+01  1.00800000E+00
  1.00800000E+00  0.00000000E+00  1.60000000E+01  1.00800000E+00  1.00800000E+00
  0.00000000E+00  1.60000000E+01  1.00800000E+00  1.00800000E+00  0.00000000E+00
  1.60000000E+01  1.00800000E+00  1.00800000E+00  0.00000000E+00  1.60000000E+01
  1.00800000E+00  1.00800000E+00  0.00000000E+00  1.60000000E+01  1.00800000E+00
  1.00800000E+00  0.00000000E+00  1.60000000E+01  1.00800000E+00  1.00800000E+00
  0.00000000E+00  1.60000000E+01  1.00800000E+00  1.00800000E+00  0.00000000E+00
  1.60000000E+01  1.00800000E+00  1.00800000E+00  0.00000000E+00  1.60000000E+01
  1.00800000E+00  1.00800000E+00  0.00000000E+00  1.60000000E+01  1.00800000E+00
  1.00800000E+00  0.00000000E+00  1.60000000E+01  1.00800000E+00  1.00800000E+00
  0.00000000E+00  1.60000000E+01  1.00800000E+00  1.00800000E+00  0.00000000E+00
  1.60000000E+01  1.00800000E+00  1.00800000E+00  0.00000000E+00  1.60000000E+01
  1.00800000E+00  1.00800000E+00  0.00000000E+00  1.60000000E+01  1.00800000E+00
  1.00800000E+00  0.00000000E+00  1.60000000E+01  1.00800000E+00  1.00800000E+00
  0.00000000E+00  1.60000000E+01  1.00800000E+00  1.00800000E+00  0.00000000E+00
  1.60000000E+01  1.00800000E+00  1.00800000E+00  0.00000000E+00  1.60000000E+01
  1.00800000E+00  1.00800000E+00  0.00000000E+00  1.60000000E+01  1.00800000E+00
  1.00800000E+00  0.00000000E+00  1.60000000E+01  1.00800000E+00  1.00800000E+00
  0.00000000E+00  1.60000000E+01  1.00800000E+00  1.00800000E+00  0.00000000E+00
  1.60000000E+01  1.00800000E+00  1.00800000E+00  0.00000000E+00  1.60000000E+01
  1.00800000E+00  1.00800000E+00  0.00000000E+00  1.60000000E+01  1.00800000E+00
  1.00800000E+00  0.00000000E+00  1.60000000E+01  1.00800000E+00  1.00800000E+00
  0.00000000E+00  1.60000000E+01  1.00800000E+00  1.00800000E+00  0.00000000E+00
  1.60000000E+01  1.00800000E+00  1.00800000E+00  0.00000000E+00  1.60000000E+01
  1.00800000E+00  1.00800000E+00  0.00000000E+00  1.60000000E+01  1.00800000E+00
  1.00800000E+00  0.00000000E+00  1.60000000E+01  1.00800000E+00  1.00800000E+00
  0.00000000E+00  1.60000000E+01  1.00800000E+00  1.00800000E+00  0.00000000E+00
  1.60000000E+01  1.00800000E+00  1.00800000E+00  0.00000000E+00  1.60000000E+01
  1.00800000E+00  1.00800000E+00  0.00000000E+00  1.60000000E+01  1.00800000E+00
  1.00800000E+00  0.00000000E+00  1.60000000E+01  1.00800000E+00  1.00800000E+00
  0.00000000E+00  1.60000000E+01  1.00800000E+00  1.00800000E+00  0.00000000E+00
  1.60000000E+01  1.00800000E+00  1.00800000E+00  0.00000000E+00  1.60000000E+01
  1.00800000E+00  1.00800000E+00  0.00000000E+00  1.60000000E+01  1.00800000E+00
  1.00800000E+00  0.00000000E+00  1.60000000E+01  1.00800000E+00  1.00800000E+00
  0.00000000E+00  1.60000000E+01  1.00800000E+00  1.00800000E+00  0.00000000E+00
  1.60000000E+01  1.00800000E+00  1.00800000E+00  0.00000000E+00  1.60000000E+01
  1.00800000E+00  1.00800000E+00  0.00000000E+00  1.60000000E+01  1.00800000E+00
  1.00800000E+00  0.00000000E+00  1.60000000E+01  1.00800000E+00  1.00800000E+00
  0.00000000E+00  1.60000000E+01  1.00800000E+00  1.00800000E+00  0.00000000E+00
  1.60000000E+01  1.00800000E+00  1.00800000E+00  0.00000000E+00  1.60000000E+01
  1.00800000E+00  1.00800000E+00  0.00000000E+00  1.60000000E+01  1.00800000E+00
  1.00800000E+00  0.00000000E+00  1.60000000E+01  1.00800000E+00  1.00800000E+00
  0.00000000E+00  1.60000000E+01  1.00800000E+00  1.00800000E+00  0.00000000E+00
  1.60000000E+01  1.00800000E+00  1.00800000E+00  0.00000000E+00  1.60000000E+01
  1.00800000E+00  1.00800000E+00  0.00000000E+00  1.60000000E+01  1.00800000E+00
  1.00800000E+00  0.00000000E+00  1.60000000E+01  1.00800000E+00  1.00800000E+00
  0.00000000E+00  1.60000000E+01  1.00800000E+00  1.00800000E+00  0.00000000E+00
  1.60000000E+01  1.00800000E+00  1.00800000E+00  0.00000000E+00  1.60000000E+01
  1.00800000E+00  1.00800000E+00  0.00000000E+00  1.60000000E+01  1.00800000E+00
  1.00800000E+00  0.00000000E+00  1.60000000E+01  1.00800000E+00  1.00800000E+00
  0.00000000E+00  1.60000000E+01  1.00800000E+00  1.00800000E+00  0.00000000E+00
  1.60000000E+01  1.00800000E+00  1.00800000E+00  0.00000000E+00  1.60000000E+01
  1.00800000E+00  1.00800000E+00  0.00000000E+00  1.60000000E+01  1.00800000E+00
  1.00800000E+00  0.00000000E+00  1.60000000E+01  1.00800000E+00  1.00800000E+00
  0.00000000E+00  1.60000000E+01  1.00800000E+00  1.00800000E+00  0.00000000E+00
  1.60000000E+01  1.00800000E+00  1.00800000E+00  0.00000000E+00  1.60000000E+01
  1.00800000E+00  1.00800000E+00  0.00000000E+00  1.60000000E+01  1.00800000E+00
  1.00800000E+00  0.00000000E+00  1.60000000E+01  1.00800000E+00  1.00800000E+00
  0.00000000E+00  1.60000000E+01  1.00800000E+00  1.00800000E+00  0.00000000E+00
  1.60000000E+01  1.00800000E+00  1.00800000E+00  0.00000000E+00  1.60000000E+01
  1.00800000E+00  1.00800000E+00  0.00000000E+00  1.60000000E+01  1.00800000E+00
  1.00800000E+00  0.00000000E+00  1.60000000E+01  1.00800000E+00  1.00800000E+00
  0.00000000E+00  1.60000000E+01  1.00800000E+00  1.00800000E+00  0.00000000E+00
  1.60000000E+01  1.00800000E+00  1.00800000E+00  0.00000000E+00  1.60000000E+01
  1.00800000E+00  1.00800000E+00  0.00000000E+00  1.60000000E+01  1.00800000E+00
  1.00800000E+00  0.00000000E+00  1.60000000E+01  1.00800000E+00  1.00800000E+00
  0.00000000E+00  1.60000000E+01  1.00800000E+00  1.00800000E+00  0.00000000E+00
  1.60000000E+01  1.00800000E+00  1.00800000E+00  0.00000000E+00  1.60000000E+01
  1.00800000E+00  1.00800000E+00  0.00000000E+00  1.60000000E+01  1.00800000E+00
  1.00800000E+00  0.00000000E+00  1.60000000E+01  1.00800000E+00  1.00800000E+00
  0.00000000E+00  1.60000000E+01  1.00800000E+00  1.00800000E+00  0.00000000E+00
  1.60000000E+01  1.00800000E+00  1.00800000E+00  0.00000000E+00  1.60000000E+01
  1.00800000E+00  1.00800000E+00  0.00000000E+00  1.60000000E+01  1.00800000E+00
  1.00800000E+00  0.00000000E+00  1.60000000E+01  1.00800000E+00  1.00800000E+00
  0.00000000E+00  1.60000000E+01  1.00800000E+00  1.00800000E+00  0.00000000E+00
  1.60000000E+01  1.00800000E+00  1.00800000E+00  0.00000000E+00  1.60000000E+01
  1.00800000E+00  1.00800000E+00  0.00000000E+00  1.60000000E+01  1.00800000E+00
  1.00800000E+00  0.00000000E+00  1.60000000E+01  1.00800000E+00  1.00800000E+00
  0.00000000E+00  1.60000000E+01  1.00800000E+00  1.00800000E+00  0.00000000E+00
  1.60000000E+01  1.00800000E+00  1.00800000E+00  0.00000000E+00  1.60000000E+01
  1.00800000E+00  1.00800000E+00  0.00000000E+00  1.60000000E+01  1.00800000E+00
  1.00800000E+00  0.00000000E+00  1.60000000E+01  1.00800000E+00  1.00800000E+00
  0.00000000E+00  1.60000000E+01  1.00800000E+00  1.00800000E+00  0.00000000E+00
  1.60000000E+01  1.00800000E+00  1.00800000E+00  0.00000000E+00  1.60000000E+01
  1.00800000E+00  1.00800000E+00  0.00000000E+00  1.60000000E+01  1.00800000E+00
  1.00800000E+00  0.00000000E+00  1.60000000E+01  1.00800000E+00  1.00800000E+00
  0.00000000E+00  1.60000000E+01  1.00800000E+00  1.00800000E+00  0.00000000E+00
  1.60000000E+01  1.00800000E+00  1.00800000E+00  0.00000000E+00  1.60000000E+01
  1.00800000E+00  1.00800000E+00  0.00000000E+00  1.60000000E+01  1.00800000E+00
  1.00800000E+00  0.00000000E+00  1.60000000E+01  1.00800000E+00  1.00800000E+00
  0.00000000E+00  1.60000000E+01  1.00800000E+00  1.00800000E+00  0.00000000E+00
  1.60000000E+01  1.00800000E+00  1.00800000E+00  0.00000000E+00  1.60000000E+01
  1.00800000E+00  1.00800000E+00  0.00000000E+00  1.60000000E+01  1.00800000E+00
  1.00800000E+00  0.00000000E+00  1.60000000E+01  1.00800000E+00  1.00800000E+00
  0.00000000E+00  1.60000000E+01  1.00800000E+00  1.00800000E+00  0.00000000E+00
  1.60000000E+01  1.00800000E+00  1.00800000E+00  0.00000000E+00  1.60000000E+01
  1.00800000E+00  1.00800000E+00  0.00000000E+00  1.60000000E+01  1.00800000E+00
  1.00800000E+00  0.00000000E+00  1.60000000E+01  1.00800000E+00  1.00800000E+00
  0.00000000E+00  1.60000000E+01  1.00800000E+00  1.00800000E+00  0.00000000E+00
  1.60000000E+01  1.00800000E+00  1.00800000E+00  0.00000000E+00  1.60000000E+01
  1.00800000E+00  1.00800000E+00  0.00000000E+00  1.60000000E+01  1.00800000E+00
  1.00800000E+00  0.00000000E+00  1.60000000E+01  1.00800000E+00  1.00800000E+00
  0.00000000E+00  1.60000000E+01  1.00800000E+00  1.00800000E+00  0.00000000E+00
  1.60000000E+01  1.00800000E+00  1.00800000E+00  0.00000000E+00  1.60000000E+01
  1.00800000E+00  1.00800000E+00  0.00000000E+00  1.60000000E+01  1.00800000E+00
  1.00800000E+00  0.00000000E+00  1.60000000E+01  1.00800000E+00  1.00800000E+00
  0.00000000E+00  1.60000000E+01  1.00800000E+00  1.00800000E+00  0.00000000E+00
  1.60000000E+01  1.00800000E+00  1.00800000E+00  0.00000000E+00  1.60000000E+01
  1.00800000E+00  1.00800000E+00  0.00000000E+00  1.60000000E+01  1.00800000E+00
  1.00800000E+00  0.00000000E+00  1.60000000E+01  1.00800000E+00  1.00800000E+00
  0.00000000E+00  1.60000000E+01  1.00800000E+00  1.00800000E+00  0.00000000E+00
  1.60000000E+01  1.00800000E+00  1.00800000E+00  0.00000000E+00  1.60000000E+01
  1.00800000E+00  1.00800000E+00  0.00000000E+00  1.60000000E+01  1.00800000E+00
  1.00800000E+00  0.00000000E+00  1.60000000E+01  1.00800000E+00  1.00800000E+00
  0.00000000E+00  1.60000000E+01  1.00800000E+00  1.00800000E+00  0.00000000E+00
  1.60000000E+01  1.00800000E+00  1.00800000E+00  0.00000000E+00  1.60000000E+01
  1.00800000E+00  1.00800000E+00  0.00000000E+00  1.60000000E+01  1.00800000E+00
  1.00800000E+00  0.00000000E+00  1.60000000E+01  1.00800000E+00  1.00800000E+00
  0.00000000E+00  1.60000000E+01  1.00800000E+00  1.00800000E+00  0.00000000E+00
  1.60000000E+01  1.00800000E+00  1.00800000E+00  0.00000000E+00  1.60000000E+01
  1.00800000E+00  1.00800000E+00  0.00000000E+00  1.60000000E+01  1.00800000E+00
  1.00800000E+00  0.00000000E+00  1.60000000E+01  1.00800000E+00  1.00800000E+00
  0.00000000E+00  1.60000000E+01  1.00800000E+00  1.00800000E+00  0.00000000E+00
  1.60000000E+01  1.00800000E+00  1.00800000E+00  0.00000000E+00  1.60000000E+01
  1.00800000E+00  1.00800000E+00  0.00000000E+00  1.60000000E+01  1.00800000E+00
  1.00800000E+00  0.00000000E+00  1.60000000E+01  1.00800000E+00  1.00800000E+00
  0.00000000E+00  1.60000000E+01  1.00800000E+00  1.00800000E+00  0.00000000E+00
  1.60000000E+01  1.00800000E+00  1.00800000E+00  0.00000000E+00  1.60000000E+01
  1.00800000E+00  1.00800000E+00  0.00000000E+00  1.60000000E+01  1.00800000E+00
  1.00800000E+00  0.00000000E+00  1.60000000E+01  1.00800000E+00  1.00800000E+00
  0.00000000E+00  1.60000000E+01  1.00800000E+00  1.00800000E+00  0.00000000E+00
  1.60000000E+01  1.00800000E+00  1.00800000E+00  0.00000000E+00  1.60000000E+01
  1.00800000E+00  1.00800000E+00  0.00000000E+00  1.60000000E+01  1.00800000E+00
  1.00800000E+00  0.00000000E+00  1.60000000E+01  1.00800000E+00  1.00800000E+00
  0.00000000E+00  1.60000000E+01  1.00800000E+00  1.00800000E+00  0.00000000E+00
  1.60000000E+01  1.00800000E+00  1.00800000E+00  0.00000000E+00  1.60000000E+01
  1.00800000E+00  1.00800000E+00  0.00000000E+00  1.60000000E+01  1.00800000E+00
  1.00800000E+00  0.00000000E+00  1.60000000E+01  1.00800000E+00  1.00800000E+00
  0.00000000E+00  1.60000000E+01  1.00800000E+00  1.00800000E+00  0.00000000E+00
  1.60000000E+01  1.00800000E+00  1.00800000E+00  0.00000000E+00  1.60000000E+01
  1.00800000E+00  1.00800000E+00  0.00000000E+00  1.60000000E+01  1.00800000E+00
  1.00800000E+00  0.00000000E+00  1.60000000E+01  1.00800000E+00  1.00800000E+00
  0.00000000E+00  1.60000000E+01  1.00800000E+00  1.00800000E+00  0.00000000E+00
  1.60000000E+01  1.00800000E+00  1.00800000E+00  0.00000000E+00  1.60000000E+01
  1.00800000E+00  1.00800000E+00  0.00000000E+00  1.60000000E+01  1.00800000E+00
  1.00800000E+00  0.00000000E+00  1.60000000E+01  1.00800000E+00  1.00800000E+00
  0.00000000E+00  1.60000000E+01  1.00800000E+00  1.00800000E+00  0.00000000E+00
  1.60000000E+01  1.00800000E+00  1.00800000E+00  0.00000000E+00  1.60000000E+01
  1.00800000E+00  1.00800000E+00  0.00000000E+00  1.60000000E+01  1.00800000E+00
  1.00800000E+00  0.00000000E+00  1.60000000E+01  1.00800000E+00  1.00800000E+00
  0.00000000E+00  1.60000000E+01  1.00800000E+00  1.00800000E+00  0.00000000E+00
  1.60000000E+01  1.00800000E+00  1.00800000E+00  0.00000000E+00  1.60000000E+01
  1.00800000E+00  1.00800000E+00  0.00000000E+00  1.60000000E+01  1.00800000E+00
  1.00800000E+00  0.00000000E+00  1.60000000E+01  1.00800000E+00  1.00800000E+00
  0.00000000E+00  1.60000000E+01  1.00800000E+00  1.00800000E+00  0.00000000E+00
  1.60000000E+01  1.00800000E+00  1.00800000E+00  0.00000000E+00  1.60000000E+01
  1.00800000E+00  1.00800000E+00  0.00000000E+00  1.60000000E+01  1.00800000E+00
  1.00800000E+00  0.00000000E+00  1.60000000E+01  1.00800000E+00  1.00800000E+00
  0.00000000E+00  1.60000000E+01  1.00800000E+00  1.00800000E+00  0.00000000E+00
  1.60000000E+01  1.00800000E+00  1.00800000E+00  0.00000000E+00  1.60000000E+01
  1.00800000E+00  1.00800000E+00  0.00000000E+00  1.60000000E+01  1.00800000E+00
  1.00800000E+00  0.00000000E+00  1.60000000E+01  1.00800000E+00  1.00800000E+00
  0.00000000E+00  1.60000000E+01  1.00800000E+00  1.00800000E+00  0.00000000E+00
  1.60000000E+01  1.00800000E+00  1.00800000E+00  0.00000000E+00  1.60000000E+01
  1.00800000E+00  1.00800000E+00  0.00000000E+00  1.60000000E+01  1.00800000E+00
  1.00800000E+00  0.00000000E+00  1.60000000E+01  1.00800000E+00  1.00800000E+00
  0.00000000E+00  1.60000000E+01  1.00800000E+00  1.00800000E+00  0.00000000E+00
  1.60000000E+01  1.00800000E+00  1.00800000E+00  0.00000000E+00  1.60000000E+01
  1.00800000E+00  1.00800000E+00  0.00000000E+00  1.60000000E+01  1.00800000E+00
  1.00800000E+00  0.00000000E+00  1.60000000E+01  1.00800000E+00  1.00800000E+00
  0.00000000E+00  1.60000000E+01  1.00800000E+00  1.00800000E+00  0.00000000E+00
  1.60000000E+01  1.00800000E+00  1.00800000E+00  0.00000000E+00  1.60000000E+01
  1.00800000E+00  1.00800000E+00  0.00000000E+00  1.60000000E+01  1.00800000E+00
  1.00800000E+00  0.00000000E+00  1.60000000E+01  1.00800000E+00  1.00800000E+00
  0.00000000E+00  1.60000000E+01  1.00800000E+00  1.00800000E+00  0.00000000E+00
  1.60000000E+01  1.00800000E+00  1.00800000E+00  0.00000000E+00  1.60000000E+01
  1.00800000E+00  1.00800000E+00  0.00000000E+00  1.60000000E+01  1.00800000E+00
  1.00800000E+00  0.00000000E+00  1.60000000E+01  1.00800000E+00  1.00800000E+00
  0.00000000E+00  1.60000000E+01  1.00800000E+00  1.00800000E+00  0.00000000E+00
  1.60000000E+01  1.00800000E+00  1.00800000E+00  0.00000000E+00  1.60000000E+01
  1.00800000E+00  1.00800000E+00  0.00000000E+00  1.60000000E+01  1.00800000E+00
  1.00800000E+00  0.00000000E+00  1.60000000E+01  1.00800000E+00  1.00800000E+00
  0.00000000E+00  1.60000000E+01  1.00800000E+00  1.00800000E+00  0.00000000E+00
  1.60000000E+01  1.00800000E+00  1.00800000E+00  0.00000000E+00  1.60000000E+01
  1.00800000E+00  1.00800000E+00  0.00000000E+00  1.60000000E+01  1.00800000E+00
  1.00800000E+00  0.00000000E+00  1.60000000E+01  1.00800000E+00  1.00800000E+00
  0.00000000E+00  1.60000000E+01  1.00800000E+00  1.00800000E+00  0.00000000E+00
  1.60000000E+01  1.00800000E+00  1.00800000E+00  0.00000000E+00  1.60000000E+01
  1.00800000E+00  1.00800000E+00  0.00000000E+00  1.60000000E+01  1.00800000E+00
  1.00800000E+00  0.00000000E+00  1.60000000E+01  1.00800000E+00  1.00800000E+00
  0.00000000E+00  1.60000000E+01  1.00800000E+00  1.00800000E+00  0.00000000E+00
  1.60000000E+01  1.00800000E+00  1.00800000E+00  0.00000000E+00  1.60000000E+01
  1.00800000E+00  1.00800000E+00  0.00000000E+00  1.60000000E+01  1.00800000E+00
  1.00800000E+00  0.00000000E+00  1.60000000E+01  1.00800000E+00  1.00800000E+00
  0.00000000E+00  1.60000000E+01  1.00800000E+00  1.00800000E+00  0.00000000E+00
  1.60000000E+01  1.00800000E+00  1.00800000E+00  0.00000000E+00  1.60000000E+01
  1.00800000E+00  1.00800000E+00  0.00000000E+00  1.60000000E+01  1.00800000E+00
  1.00800000E+00  0.00000000E+00  1.60000000E+01  1.00800000E+00  1.00800000E+00
  0.00000000E+00  1.60000000E+01  1.00800000E+00  1.00800000E+00  0.00000000E+00
  1.60000000E+01  1.00800000E+00  1.00800000E+00  0.00000000E+00  1.60000000E+01
  1.00800000E+00  1.00800000E+00  0.00000000E+00  1.60000000E+01  1.00800000E+00
  1.00800000E+00  0.00000000E+00  1.60000000E+01  1.00800000E+00  1.00800000E+00
  0.00000000E+00  1.60000000E+01  1.00800000E+00  1.00800000E+00  0.00000000E+00
  1.60000000E+01  1.00800000E+00  1.00800000E+00  0.00000000E+00  1.60000000E+01
  1.00800000E+00  1.00800000E+00  0.00000000E+00  1.60000000E+01  1.00800000E+00
  1.00800000E+00  0.00000000E+00  1.60000000E+01  1.00800000E+00  1.00800000E+00
  0.00000000E+00  1.60000000E+01  1.00800000E+00  1.00800000E+00  0.00000000E+00
  1.60000000E+01  1.00800000E+00  1.00800000E+00  0.00000000E+00  1.60000000E+01
  1.00800000E+00  1.00800000E+00  0.00000000E+00  1.60000000E+01  1.00800000E+00
  1.00800000E+00  0.00000000E+00  1.60000000E+01  1.00800000E+00  1.00800000E+00
  0.00000000E+00  1.60000000E+01  1.00800000E+00  1.00800000E+00  0.00000000E+00
  1.60000000E+01  1.00800000E+00  1.00800000E+00  0.00000000E+00  1.60000000E+01
  1.00800000E+00  1.00800000E+00  0.00000000E+00  1.60000000E+01  1.00800000E+00
  1.00800000E+00  0.00000000E+00  1.60000000E+01  1.00800000E+00  1.00800000E+00
  0.00000000E+00  1.60000000E+01  1.00800000E+00  1.00800000E+00  0.00000000E+00
  1.60000000E+01  1.00800000E+00  1.00800000E+00  0.00000000E+00  1.60000000E+01
  1.00800000E+00  1.00800000E+00  0.00000000E+00  1.60000000E+01  1.00800000E+00
  1.00800000E+00  0.00000000E+00  1.60000000E+01  1.00800000E+00  1.00800000E+00
  0.00000000E+00  1.60000000E+01  1.00800000E+00  1.00800000E+00  0.00000000E+00
  1.60000000E+01  1.00800000E+00  1.00800000E+00  0.00000000E+00  1.60000000E+01
  1.00800000E+00  1.00800000E+00  0.00000000E+00  1.60000000E+01  1.00800000E+00
  1.00800000E+00  0.00000000E+00  1.60000000E+01  1.00800000E+00  1.00800000E+00
  0.00000000E+00  1.60000000E+01  1.00800000E+00  1.00800000E+00  0.00000000E+00
  1.60000000E+01  1.00800000E+00  1.00800000E+00  0.00000000E+00  1.60000000E+01
  1.00800000E+00  1.00800000E+00  0.00000000E+00  1.60000000E+01  1.00800000E+00
  1.00800000E+00  0.00000000E+00  1.60000000E+01  1.00800000E+00  1.00800000E+00
  0.00000000E+00  1.60000000E+01  1.00800000E+00  1.00800000E+00  0.00000000E+00
  1.60000000E+01  1.00800000E+00  1.00800000E+00  0.00000000E+00  1.60000000E+01
  1.00800000E+00  1.00800000E+00  0.00000000E+00  1.60000000E+01  1.00800000E+00
  1.00800000E+00  0.00000000E+00  1.60000000E+01  1.00800000E+00  1.00800000E+00
  0.00000000E+00  1.60000000E+01  1.00800000E+00  1.00800000E+00  0.00000000E+00
  1.60000000E+01  1.00800000E+00  1.00800000E+00  0.00000000E+00  1.60000000E+01
  1.00800000E+00  1.00800000E+00  0.00000000E+00  1.60000000E+01  1.00800000E+00
  1.00800000E+00  0.00000000E+00  1.60000000E+01  1.00800000E+00  1.00800000E+00
  0.00000000E+00  1.60000000E+01  1.00800000E+00  1.00800000E+00  0.00000000E+00
  1.60000000E+01  1.00800000E+00  1.00800000E+00  0.00000000E+00  1.60000000E+01
  1.00800000E+00  1.00800000E+00  0.00000000E+00  1.60000000E+01  1.00800000E+00
  1.00800000E+00  0.00000000E+00  1.60000000E+01  1.00800000E+00  1.00800000E+00
  0.00000000E+00  1.60000000E+01  1.00800000E+00  1.00800000E+00  0.00000000E+00
  1.60000000E+01  1.00800000E+00  1.00800000E+00  0.00000000E+00  1.60000000E+01
  1.00800000E+00  1.00800000E+00  0.00000000E+00  1.60000000E+01  1.00800000E+00
  1.00800000E+00  0.00000000E+00  1.60000000E+01  1.00800000E+00  1.00800000E+00
  0.00000000E+00  1.60000000E+01  1.00800000E+00  1.00800000E+00  0.00000000E+00
  1.60000000E+01  1.00800000E+00  1.00800000E+00  0.00000000E+00  1.60000000E+01
  1.00800000E+00  1.00800000E+00  0.00000000E+00  1.60000000E+01  1.00800000E+00
  1.00800000E+00  0.00000000E+00  1.60000000E+01  1.00800000E+00  1.00800000E+00
  0.00000000E+00  1.60000000E+01  1.00800000E+00  1.00800000E+00  0.00000000E+00
  1.60000000E+01  1.00800000E+00  1.00800000E+00  0.00000000E+00  1.60000000E+01
  1.00800000E+00  1.00800000E+00  0.00000000E+00  1.60000000E+01  1.00800000E+00
  1.00800000E+00  0.00000000E+00  1.60000000E+01  1.00800000E+00  1.00800000E+00
  0.00000000E+00  1.60000000E+01  1.00800000E+00  1.00800000E+00  0.00000000E+00
  1.60000000E+01  1.00800000E+00  1.00800000E+00  0.00000000E+00  1.60000000E+01
  1.00800000E+00  1.00800000E+00  0.00000000E+00  1.60000000E+01  1.00800000E+00
  1.00800000E+00  0.00000000E+00  1.60000000E+01  1.00800000E+00  1.00800000E+00
  0.00000000E+00  1.60000000E+01  1.00800000E+00  1.00800000E+00  0.00000000E+00
  1.60000000E+01  1.00800000E+00  1.00800000E+00  0.00000000E+00  1.60000000E+01
  1.00800000E+00  1.00800000E+00  0.00000000E+00  1.60000000E+01  1.00800000E+00
  1.00800000E+00  0.00000000E+00  1.60000000E+01  1.00800000E+00  1.00800000E+00
  0.00000000E+00  1.60000000E+01  1.00800000E+00  1.00800000E+00  0.00000000E+00
  1.60000000E+01  1.00800000E+00  1.00800000E+00  0.00000000E+00  1.60000000E+01
  1.00800000E+00  1.00800000E+00  0.00000000E+00  1.60000000E+01  1.00800000E+00
  1.00800000E+00  0.00000000E+00  1.60000000E+01  1.00800000E+00  1.00800000E+00
  0.00000000E+00  1.60000000E+01  1.00800000E+00  1.00800000E+00  0.00000000E+00
  1.60000000E+01  1.00800000E+00  1.00800000E+00  0.00000000E+00  1.60000000E+01
  1.00800000E+00  1.00800000E+00  0.00000000E+00  1.60000000E+01  1.00800000E+00
  1.00800000E+00  0.00000000E+00  1.60000000E+01  1.00800000E+00  1.00800000E+00
  0.00000000E+00  1.60000000E+01  1.00800000E+00  1.00800000E+00  0.00000000E+00
  1.60000000E+01  1.00800000E+00  1.00800000E+00  0.00000000E+00  1.60000000E+01
  1.00800000E+00  1.00800000E+00  0.00000000E+00  1.60000000E+01  1.00800000E+00
  1.00800000E+00  0.00000000E+00  1.60000000E+01  1.00800000E+00  1.00800000E+00
  0.00000000E+00  1.60000000E+01  1.00800000E+00  1.00800000E+00  0.00000000E+00
  1.60000000E+01  1.00800000E+00  1.00800000E+00  0.00000000E+00  1.60000000E+01
  1.00800000E+00  1.00800000E+00  0.00000000E+00  1.60000000E+01  1.00800000E+00
  1.00800000E+00  0.00000000E+00  1.60000000E+01  1.00800000E+00  1.00800000E+00
  0.00000000E+00  1.60000000E+01  1.00800000E+00  1.00800000E+00  0.00000000E+00
  1.60000000E+01  1.00800000E+00  1.00800000E+00  0.00000000E+00  1.60000000E+01
  1.00800000E+00  1.00800000E+00  0.00000000E+00  1.60000000E+01  1.00800000E+00
  1.00800000E+00  0.00000000E+00  1.60000000E+01  1.00800000E+00  1.00800000E+00
  0.00000000E+00  1.60000000E+01  1.00800000E+00  1.00800000E+00  0.00000000E+00
  1.60000000E+01  1.00800000E+00  1.00800000E+00  0.00000000E+00  1.60000000E+01
  1.00800000E+00  1.00800000E+00  0.00000000E+00  1.60000000E+01  1.00800000E+00
  1.00800000E+00  0.00000000E+00  1.60000000E+01  1.00800000E+00  1.00800000E+00
  0.00000000E+00  1.60000000E+01  1.00800000E+00  1.00800000E+00  0.00000000E+00
  1.60000000E+01  1.00800000E+00  1.00800000E+00  0.00000000E+00  1.60000000E+01
  1.00800000E+00  1.00800000E+00  0.00000000E+00  1.60000000E+01  1.00800000E+00
  1.00800000E+00  0.00000000E+00  1.60000000E+01  1.00800000E+00  1.00800000E+00
  0.00000000E+00  1.60000000E+01  1.00800000E+00  1.00800000E+00  0.00000000E+00
  1.60000000E+01  1.00800000E+00  1.00800000E+00  0.00000000E+00  1.60000000E+01
  1.00800000E+00  1.00800000E+00  0.00000000E+00  1.60000000E+01  1.00800000E+00
  1.00800000E+00  0.00000000E+00  1.60000000E+01  1.00800000E+00  1.00800000E+00
  0.00000000E+00  1.60000000E+01  1.00800000E+00  1.00800000E+00  0.00000000E+00
  1.60000000E+01  1.00800000E+00  1.00800000E+00  0.00000000E+00  1.60000000E+01
  1.00800000E+00  1.00800000E+00  0.00000000E+00  1.60000000E+01  1.00800000E+00
  1.00800000E+00  0.00000000E+00  1.60000000E+01  1.00800000E+00  1.00800000E+00
  0.00000000E+00  1.60000000E+01  1.00800000E+00  1.00800000E+00  0.00000000E+00
  1.60000000E+01  1.00800000E+00  1.00800000E+00  0.00000000E+00  1.60000000E+01
  1.00800000E+00  1.00800000E+00  0.00000000E+00  1.60000000E+01  1.00800000E+00
  1.00800000E+00  0.00000000E+00  1.60000000E+01  1.00800000E+00  1.00800000E+00
  0.00000000E+00  1.60000000E+01  1.00800000E+00  1.00800000E+00  0.00000000E+00
  1.60000000E+01  1.00800000E+00  1.00800000E+00  0.00000000E+00  1.60000000E+01
  1.00800000E+00  1.00800000E+00  0.00000000E+00  1.60000000E+01  1.00800000E+00
  1.00800000E+00  0.00000000E+00  1.60000000E+01  1.00800000E+00  1.00800000E+00
  0.00000000E+00  1.60000000E+01  1.00800000E+00  1.00800000E+00  0.00000000E+00
  1.60000000E+01  1.00800000E+00  1.00800000E+00  0.00000000E+00  1.60000000E+01
  1.00800000E+00  1.00800000E+00  0.00000000E+00  1.60000000E+01  1.00800000E+00
  1.00800000E+00  0.00000000E+00  1.60000000E+01  1.00800000E+00  1.00800000E+00
  0.00000000E+00  1.60000000E+01  1.00800000E+00  1.00800000E+00  0.00000000E+00
  1.60000000E+01  1.00800000E+00  1.00800000E+00  0.00000000E+00  1.60000000E+01
  1.00800000E+00  1.00800000E+00  0.00000000E+00  1.60000000E+01  1.00800000E+00
  1.00800000E+00  0.00000000E+00  1.60000000E+01  1.00800000E+00  1.00800000E+00
  0.00000000E+00  1.60000000E+01  1.00800000E+00  1.00800000E+00  0.00000000E+00
  1.60000000E+01  1.00800000E+00  1.00800000E+00  0.00000000E+00  1.60000000E+01
  1.00800000E+00  1.00800000E+00  0.00000000E+00  1.60000000E+01  1.00800000E+00
  1.00800000E+00  0.00000000E+00  1.60000000E+01  1.00800000E+00  1.00800000E+00
  0.00000000E+00  1.60000000E+01  1.00800000E+00  1.00800000E+00  0.00000000E+00
  1.60000000E+01  1.00800000E+00  1.00800000E+00  0.00000000E+00  1.60000000E+01
  1.00800000E+00  1.00800000E+00  0.00000000E+00  1.60000000E+01  1.00800000E+00
  1.00800000E+00  0.00000000E+00  1.60000000E+01  1.00800000E+00  1.00800000E+00
  0.00000000E+00  1.60000000E+01  1.00800000E+00  1.00800000E+00  0.00000000E+00
  1.60000000E+01  1.00800000E+00  1.00800000E+00  0.00000000E+00  1.60000000E+01
  1.00800000E+00  1.00800000E+00  0.00000000E+00  1.60000000E+01  1.00800000E+00
  1.00800000E+00  0.00000000E+00  1.60000000E+01  1.00800000E+00  1.00800000E+00
  0.00000000E+00  1.60000000E+01  1.00800000E+00  1.00800000E+00  0.00000000E+00
  1.60000000E+01  1.00800000E+00  1.00800000E+00  0.00000000E+00  1.60000000E+01
  1.00800000E+00  1.00800000E+00  0.00000000E+00  1.60000000E+01  1.00800000E+00
  1.00800000E+00  0.00000000E+00  1.60000000E+01  1.00800000E+00  1.00800000E+00
  0.00000000E+00  1.60000000E+01  1.00800000E+00  1.00800000E+00  0.00000000E+00
  1.60000000E+01  1.00800000E+00  1.00800000E+00  0.00000000E+00  1.60000000E+01
  1.00800000E+00  1.00800000E+00  0.00000000E+00  1.60000000E+01  1.00800000E+00
  1.00800000E+00  0.00000000E+00  1.60000000E+01  1.00800000E+00  1.00800000E+00
  0.00000000E+00  1.60000000E+01  1.00800000E+00  1.00800000E+00  0.00000000E+00
  1.60000000E+01  1.00800000E+00  1.00800000E+00  0.00000000E+00  1.60000000E+01
  1.00800000E+00  1.00800000E+00  0.00000000E+00  1.60000000E+01  1.00800000E+00
  1.00800000E+00  0.00000000E+00  1.60000000E+01  1.00800000E+00  1.00800000E+00
  0.00000000E+00  1.60000000E+01  1.00800000E+00  1.00800000E+00  0.00000000E+00
  1.60000000E+01  1.00800000E+00  1.00800000E+00  0.00000000E+00  1.60000000E+01
  1.00800000E+00  1.00800000E+00  0.00000000E+00  1.60000000E+01  1.00800000E+00
  1.00800000E+00  0.00000000E+00  1.60000000E+01  1.00800000E+00  1.00800000E+00
  0.00000000E+00  1.60000000E+01  1.00800000E+00  1.00800000E+00  0.00000000E+00
  1.60000000E+01  1.00800000E+00  1.00800000E+00  0.00000000E+00  1.60000000E+01
  1.00800000E+00  1.00800000E+00  0.00000000E+00  1.60000000E+01  1.00800000E+00
  1.00800000E+00  0.00000000E+00  1.60000000E+01  1.00800000E+00  1.00800000E+00
  0.00000000E+00  1.60000000E+01  1.00800000E+00  1.00800000E+00  0.00000000E+00
  1.60000000E+01  1.00800000E+00  1.00800000E+00  0.00000000E+00  1.60000000E+01
  1.00800000E+00  1.00800000E+00  0.00000000E+00  1.60000000E+01  1.00800000E+00
  1.00800000E+00  0.00000000E+00  1.60000000E+01  1.00800000E+00  1.00800000E+00
  0.00000000E+00  1.60000000E+01  1.00800000E+00  1.00800000E+00  0.00000000E+00
  1.60000000E+01  1.00800000E+00  1.00800000E+00  0.00000000E+00  1.60000000E+01
  1.00800000E+00  1.00800000E+00  0.00000000E+00  1.60000000E+01  1.00800000E+00
  1.00800000E+00  0.00000000E+00  1.60000000E+01  1.00800000E+00  1.00800000E+00
  0.00000000E+00  1.60000000E+01  1.00800000E+00  1.00800000E+00  0.00000000E+00
  1.60000000E+01  1.00800000E+00  1.00800000E+00  0.00000000E+00  1.60000000E+01
  1.00800000E+00  1.00800000E+00  0.00000000E+00  1.60000000E+01  1.00800000E+00
  1.00800000E+00  0.00000000E+00  1.60000000E+01  1.00800000E+00  1.00800000E+00
  0.00000000E+00  1.60000000E+01  1.00800000E+00  1.00800000E+00  0.00000000E+00
  1.60000000E+01  1.00800000E+00  1.00800000E+00  0.00000000E+00  1.60000000E+01
  1.00800000E+00  1.00800000E+00  0.00000000E+00  1.60000000E+01  1.00800000E+00
  1.00800000E+00  0.00000000E+00  1.60000000E+01  1.00800000E+00  1.00800000E+00
  0.00000000E+00  1.60000000E+01  1.00800000E+00  1.00800000E+00  0.00000000E+00
  1.60000000E+01  1.00800000E+00  1.00800000E+00  0.00000000E+00  1.60000000E+01
  1.00800000E+00  1.00800000E+00  0.00000000E+00  1.60000000E+01  1.00800000E+00
  1.00800000E+00  0.00000000E+00  1.60000000E+01  1.00800000E+00  1.00800000E+00
  0.00000000E+00  1.60000000E+01  1.00800000E+00  1.00800000E+00  0.00000000E+00
  1.60000000E+01  1.00800000E+00  1.00800000E+00  0.00000000E+00  1.60000000E+01
  1.00800000E+00  1.00800000E+00  0.00000000E+00  1.60000000E+01  1.00800000E+00
  1.00800000E+00  0.00000000E+00  1.60000000E+01  1.00800000E+00  1.00800000E+00
  0.00000000E+00  1.60000000E+01  1.00800000E+00  1.00800000E+00  0.00000000E+00
  1.60000000E+01  1.00800000E+00  1.00800000E+00  0.00000000E+00  1.60000000E+01
  1.00800000E+00  1.00800000E+00  0.00000000E+00  1.60000000E+01  1.00800000E+00
  1.00800000E+00  0.00000000E+00  1.60000000E+01  1.00800000E+00  1.00800000E+00
  0.00000000E+00  1.60000000E+01  1.00800000E+00  1.00800000E+00  0.00000000E+00
  1.60000000E+01  1.00800000E+00  1.00800000E+00  0.00000000E+00  1.60000000E+01
  1.00800000E+00  1.00800000E+00  0.00000000E+00  1.60000000E+01  1.00800000E+00
  1.00800000E+00  0.00000000E+00  1.60000000E+01  1.00800000E+00  1.00800000E+00
  0.00000000E+00  1.60000000E+01  1.00800000E+00  1.00800000E+00  0.00000000E+00
  1.60000000E+01  1.00800000E+00  1.00800000E+00  0.00000000E+00  1.60000000E+01
  1.00800000E+00  1.00800000E+00  0.00000000E+00  1.60000000E+01  1.00800000E+00
  1.00800000E+00  0.00000000E+00  1.60000000E+01  1.00800000E+00  1.00800000E+00
  0.00000000E+00  1.60000000E+01  1.00800000E+00  1.00800000E+00  0.00000000E+00
  1.60000000E+01  1.00800000E+00  1.00800000E+00  0.00000000E+00  1.60000000E+01
  1.00800000E+00  1.00800000E+00  0.00000000E+00  1.60000000E+01  1.00800000E+00
  1.00800000E+00  0.00000000E+00  1.60000000E+01  1.00800000E+00  1.00800000E+00
  0.00000000E+00  1.60000000E+01  1.00800000E+00  1.00800000E+00  0.00000000E+00
  1.60000000E+01  1.00800000E+00  1.00800000E+00  0.00000000E+00  1.60000000E+01
  1.00800000E+00  1.00800000E+00  0.00000000E+00  1.60000000E+01  1.00800000E+00
  1.00800000E+00  0.00000000E+00  1.60000000E+01  1.00800000E+00  1.00800000E+00
  0.00000000E+00  1.60000000E+01  1.00800000E+00  1.00800000E+00  0.00000000E+00
  1.60000000E+01  1.00800000E+00  1.00800000E+00  0.00000000E+00  1.60000000E+01
  1.00800000E+00  1.00800000E+00  0.00000000E+00  1.60000000E+01  1.00800000E+00
  1.00800000E+00  0.00000000E+00  1.60000000E+01  1.00800000E+00  1.00800000E+00
  0.00000000E+00  1.60000000E+01  1.00800000E+00  1.00800000E+00  0.00000000E+00
  1.60000000E+01  1.00800000E+00  1.00800000E+00  0.00000000E+00  1.60000000E+01
  1.00800000E+00  1.00800000E+00  0.00000000E+00  1.60000000E+01  1.00800000E+00
  1.00800000E+00  0.00000000E+00  1.60000000E+01  1.00800000E+00  1.00800000E+00
  0.00000000E+00  1.60000000E+01  1.00800000E+00  1.00800000E+00  0.00000000E+00
  1.60000000E+01  1.00800000E+00  1.00800000E+00  0.00000000E+00  1.60000000E+01
  1.00800000E+00  1.00800000E+00  0.00000000E+00  1.60000000E+01  1.00800000E+00
  1.00800000E+00  0.00000000E+00  1.60000000E+01  1.00800000E+00  1.00800000E+00
  0.00000000E+00  1.60000000E+01  1.00800000E+00  1.00800000E+00  0.00000000E+00
  1.60000000E+01  1.00800000E+00  1.00800000E+00  0.00000000E+00  1.60000000E+01
  1.00800000E+00  1.00800000E+00  0.00000000E+00  1.60000000E+01  1.00800000E+00
  1.00800000E+00  0.00000000E+00  1.60000000E+01  1.00800000E+00  1.00800000E+00
  0.00000000E+00  1.60000000E+01  1.00800000E+00  1.00800000E+00  0.00000000E+00
  1.60000000E+01  1.00800000E+00  1.00800000E+00  0.00000000E+00  1.60000000E+01
  1.00800000E+00  1.00800000E+00  0.00000000E+00  1.60000000E+01  1.00800000E+00
  1.00800000E+00  0.00000000E+00  1.60000000E+01  1.00800000E+00  1.00800000E+00
  0.00000000E+00  1.60000000E+01  1.00800000E+00  1.00800000E+00  0.00000000E+00
  1.60000000E+01  1.00800000E+00  1.00800000E+00  0.00000000E+00  1.60000000E+01
  1.00800000E+00  1.00800000E+00  0.00000000E+00  1.60000000E+01  1.00800000E+00
  1.00800000E+00  0.00000000E+00  1.60000000E+01  1.00800000E+00  1.00800000E+00
  0.00000000E+00  1.60000000E+01  1.00800000E+00  1.00800000E+00  0.00000000E+00
  1.60000000E+01  1.00800000E+00  1.00800000E+00  0.00000000E+00  1.60000000E+01
  1.00800000E+00  1.00800000E+00  0.00000000E+00  1.60000000E+01  1.00800000E+00
  1.00800000E+00  0.00000000E+00  1.60000000E+01  1.00800000E+00  1.00800000E+00
  0.00000000E+00  1.60000000E+01  1.00800000E+00  1.00800000E+00  0.00000000E+00
  1.60000000E+01  1.00800000E+00  1.00800000E+00  0.00000000E+00  1.60000000E+01
  1.00800000E+00  1.00800000E+00  0.00000000E+00  1.60000000E+01  1.00800000E+00
  1.00800000E+00  0.00000000E+00  1.60000000E+01  1.00800000E+00  1.00800000E+00
  0.00000000E+00  1.60000000E+01  1.00800000E+00  1.00800000E+00  0.00000000E+00
  1.60000000E+01  1.00800000E+00  1.00800000E+00  0.00000000E+00  1.60000000E+01
  1.00800000E+00  1.00800000E+00  0.00000000E+00  1.60000000E+01  1.00800000E+00
  1.00800000E+00  0.00000000E+00  1.60000000E+01  1.00800000E+00  1.00800000E+00
  0.00000000E+00  1.60000000E+01  1.00800000E+00  1.00800000E+00  0.00000000E+00
  1.60000000E+01  1.00800000E+00  1.00800000E+00  0.00000000E+00  1.60000000E+01
  1.00800000E+00  1.00800000E+00  0.00000000E+00  1.60000000E+01  1.00800000E+00
  1.00800000E+00  0.00000000E+00  1.60000000E+01  1.00800000E+00  1.00800000E+00
  0.00000000E+00  1.60000000E+01  1.00800000E+00  1.00800000E+00  0.00000000E+00
  1.60000000E+01  1.00800000E+00  1.00800000E+00  0.00000000E+00  1.60000000E+01
  1.00800000E+00  1.00800000E+00  0.00000000E+00  1.60000000E+01  1.00800000E+00
  1.00800000E+00  0.00000000E+00  1.60000000E+01  1.00800000E+00  1.00800000E+00
  0.00000000E+00  1.60000000E+01  1.00800000E+00  1.00800000E+00  0.00000000E+00
  1.60000000E+01  1.00800000E+00  1.00800000E+00  0.00000000E+00  1.60000000E+01
  1.00800000E+00  1.00800000E+00  0.00000000E+00  1.60000000E+01  1.00800000E+00
  1.00800000E+00  0.00000000E+00  1.60000000E+01  1.00800000E+00  1.00800000E+00
  0.00000000E+00  1.60000000E+01  1.00800000E+00  1.00800000E+00  0.00000000E+00
  1.60000000E+01  1.00800000E+00  1.00800000E+00  0.00000000E+00  1.60000000E+01
  1.00800000E+00  1.00800000E+00  0.00000000E+00  1.60000000E+01  1.00800000E+00
  1.00800000E+00  0.00000000E+00  1.60000000E+01  1.00800000E+00  1.00800000E+00
  0.00000000E+00  1.60000000E+01  1.00800000E+00  1.00800000E+00  0.00000000E+00
  1.60000000E+01  1.00800000E+00  1.00800000E+00  0.00000000E+00  1.60000000E+01
  1.00800000E+00  1.00800000E+00  0.00000000E+00  1.60000000E+01  1.00800000E+00
  1.00800000E+00  0.00000000E+00  1.60000000E+01  1.00800000E+00  1.00800000E+00
  0.00000000E+00  1.60000000E+01  1.00800000E+00  1.00800000E+00  0.00000000E+00
  1.60000000E+01  1.00800000E+00  1.00800000E+00  0.00000000E+00  1.60000000E+01
  1.00800000E+00  1.00800000E+00  0.00000000E+00  1.60000000E+01  1.00800000E+00
  1.00800000E+00  0.00000000E+00  1.60000000E+01  1.00800000E+00  1.00800000E+00
  0.00000000E+00  1.60000000E+01  1.00800000E+00  1.00800000E+00  0.00000000E+00
  1.60000000E+01  1.00800000E+00  1.00800000E+00  0.00000000E+00  1.60000000E+01
  1.00800000E+00  1.00800000E+00  0.00000000E+00  1.60000000E+01  1.00800000E+00
  1.00800000E+00  0.00000000E+00  1.60000000E+01  1.00800000E+00  1.00800000E+00
  0.00000000E+00  1.60000000E+01  1.00800000E+00  1.00800000E+00  0.00000000E+00
  1.60000000E+01  1.00800000E+00  1.00800000E+00  0.00000000E+00  1.60000000E+01
  1.00800000E+00  1.00800000E+00  0.00000000E+00  1.60000000E+01  1.00800000E+00
  1.00800000E+00  0.00000000E+00  1.60000000E+01  1.00800000E+00  1.00800000E+00
  0.00000000E+00  1.60000000E+01  1.00800000E+00  1.00800000E+00  0.00000000E+00
  1.60000000E+01  1.00800000E+00  1.00800000E+00  0.00000000E+00  1.60000000E+01
  1.00800000E+00  1.00800000E+00  0.00000000E+00  1.60000000E+01  1.00800000E+00
  1.00800000E+00  0.00000000E+00  1.60000000E+01  1.00800000E+00  1.00800000E+00
  0.00000000E+00  1.60000000E+01  1.00800000E+00  1.00800000E+00  0.00000000E+00
  1.60000000E+01  1.00800000E+00  1.00800000E+00  0.00000000E+00  1.60000000E+01
  1.00800000E+00  1.00800000E+00  0.00000000E+00  1.60000000E+01  1.00800000E+00
  1.00800000E+00  0.00000000E+00  1.60000000E+01  1.00800000E+00  1.00800000E+00
  0.00000000E+00  1.60000000E+01  1.00800000E+00  1.00800000E+00  0.00000000E+00
  1.60000000E+01  1.00800000E+00  1.00800000E+00  0.00000000E+00  1.60000000E+01
  1.00800000E+00  1.00800000E+00  0.00000000E+00  1.60000000E+01  1.00800000E+00
  1.00800000E+00  0.00000000E+00  1.60000000E+01  1.00800000E+00  1.00800000E+00
  0.00000000E+00  1.60000000E+01  1.00800000E+00  1.00800000E+00  0.00000000E+00
  1.60000000E+01  1.00800000E+00  1.00800000E+00  0.00000000E+00  1.60000000E+01
  1.00800000E+00  1.00800000E+00  0.00000000E+00  1.60000000E+01  1.00800000E+00
  1.00800000E+00  0.00000000E+00  1.60000000E+01  1.00800000E+00  1.00800000E+00
  0.00000000E+00  1.60000000E+01  1.00800000E+00  1.00800000E+00  0.00000000E+00
  1.60000000E+01  1.00800000E+00  1.00800000E+00  0.00000000E+00  1.60000000E+01
  1.00800000E+00  1.00800000E+00  0.00000000E+00  1.60000000E+01  1.00800000E+00
  1.00800000E+00  0.00000000E+00  1.60000000E+01  1.00800000E+00  1.00800000E+00
  0.00000000E+00  1.60000000E+01  1.00800000E+00  1.00800000E+00  0.00000000E+00
  1.60000000E+01  1.00800000E+00  1.00800000E+00  0.00000000E+00  1.60000000E+01
  1.00800000E+00  1.00800000E+00  0.00000000E+00  1.60000000E+01  1.00800000E+00
  1.00800000E+00  0.00000000E+00  1.60000000E+01  1.00800000E+00  1.00800000E+00
  0.00000000E+00  1.60000000E+01  1.00800000E+00  1.00800000E+00  0.00000000E+00
  1.60000000E+01  1.00800000E+00  1.00800000E+00  0.00000000E+00  1.60000000E+01
  1.00800000E+00  1.00800000E+00  0.00000000E+00  1.60000000E+01  1.00800000E+00
  1.00800000E+00  0.00000000E+00  1.60000000E+01  1.00800000E+00  1.00800000E+00
  0.00000000E+00  1.60000000E+01  1.00800000E+00  1.00800000E+00  0.00000000E+00
  1.60000000E+01  1.00800000E+00  1.00800000E+00  0.00000000E+00  1.60000000E+01
  1.00800000E+00  1.00800000E+00  0.00000000E+00  1.60000000E+01  1.00800000E+00
  1.00800000E+00  0.00000000E+00  1.60000000E+01  1.00800000E+00  1.00800000E+00
  0.00000000E+00  1.60000000E+01  1.00800000E+00  1.00800000E+00  0.00000000E+00
  1.60000000E+01  1.00800000E+00  1.00800000E+00  0.00000000E+00  1.60000000E+01
  1.00800000E+00  1.00800000E+00  0.00000000E+00  1.60000000E+01  1.00800000E+00
  1.00800000E+00  0.00000000E+00  1.60000000E+01  1.00800000E+00  1.00800000E+00
  0.00000000E+00  1.60000000E+01  1.00800000E+00  1.00800000E+00  0.00000000E+00
  1.60000000E+01  1.00800000E+00  1.00800000E+00  0.00000000E+00  1.60000000E+01
  1.00800000E+00  1.00800000E+00  0.00000000E+00  1.60000000E+01  1.00800000E+00
  1.00800000E+00  0.00000000E+00  1.60000000E+01  1.00800000E+00  1.00800000E+00
  0.00000000E+00  1.60000000E+01  1.00800000E+00  1.00800000E+00  0.00000000E+00
  1.60000000E+01  1.00800000E+00  1.00800000E+00  0.00000000E+00  1.60000000E+01
  1.00800000E+00  1.00800000E+00  0.00000000E+00  1.60000000E+01  1.00800000E+00
  1.00800000E+00  0.00000000E+00  1.60000000E+01  1.00800000E+00  1.00800000E+00
  0.00000000E+00  1.60000000E+01  1.00800000E+00  1.00800000E+00  0.00000000E+00
  1.60000000E+01  1.00800000E+00  1.00800000E+00  0.00000000E+00  1.60000000E+01
  1.00800000E+00  1.00800000E+00  0.00000000E+00  1.60000000E+01  1.00800000E+00
  1.00800000E+00  0.00000000E+00  1.60000000E+01  1.00800000E+00  1.00800000E+00
  0.00000000E+00  1.60000000E+01  1.00800000E+00  1.00800000E+00  0.00000000E+00
  1.60000000E+01  1.00800000E+00  1.00800000E+00  0.00000000E+00  1.60000000E+01
  1.00800000E+00  1.00800000E+00  0.00000000E+00  1.60000000E+01  1.00800000E+00
  1.00800000E+00  0.00000000E+00  1.60000000E+01  1.00800000E+00  1.00800000E+00
  0.00000000E+00  1.60000000E+01  1.00800000E+00  1.00800000E+00  0.00000000E+00
  1.60000000E+01  1.00800000E+00  1.00800000E+00  0.00000000E+00  1.60000000E+01
  1.00800000E+00  1.00800000E+00  0.00000000E+00  1.60000000E+01  1.00800000E+00
  1.00800000E+00  0.00000000E+00  1.60000000E+01  1.00800000E+00  1.00800000E+00
  0.00000000E+00  1.60000000E+01  1.00800000E+00  1.00800000E+00  0.00000000E+00
  1.60000000E+01  1.00800000E+00  1.00800000E+00  0.00000000E+00  1.60000000E+01
  1.00800000E+00  1.00800000E+00  0.00000000E+00  1.60000000E+01  1.00800000E+00
  1.00800000E+00  0.00000000E+00  1.60000000E+01  1.00800000E+00  1.00800000E+00
  0.00000000E+00  1.60000000E+01  1.00800000E+00  1.00800000E+00  0.00000000E+00
  1.60000000E+01  1.00800000E+00  1.00800000E+00  0.00000000E+00  1.60000000E+01
  1.00800000E+00  1.00800000E+00  0.00000000E+00  1.60000000E+01  1.00800000E+00
  1.00800000E+00  0.00000000E+00  1.60000000E+01  1.00800000E+00  1.00800000E+00
  0.00000000E+00  1.60000000E+01  1.00800000E+00  1.00800000E+00  0.00000000E+00
  1.60000000E+01  1.00800000E+00  1.00800000E+00  0.00000000E+00  1.60000000E+01
  1.00800000E+00  1.00800000E+00  0.00000000E+00  1.60000000E+01  1.00800000E+00
  1.00800000E+00  0.00000000E+00  1.60000000E+01  1.00800000E+00  1.00800000E+00
  0.00000000E+00  1.60000000E+01  1.00800000E+00  1.00800000E+00  0.00000000E+00
  1.60000000E+01  1.00800000E+00  1.00800000E+00  0.00000000E+00  1.60000000E+01
  1.00800000E+00  1.00800000E+00  0.00000000E+00  1.60000000E+01  1.00800000E+00
  1.00800000E+00  0.00000000E+00  1.60000000E+01  1.00800000E+00  1.00800000E+00
  0.00000000E+00  1.60000000E+01  1.00800000E+00  1.00800000E+00  0.00000000E+00
  1.60000000E+01  1.00800000E+00  1.00800000E+00  0.00000000E+00  1.60000000E+01
  1.00800000E+00  1.00800000E+00  0.00000000E+00  1.60000000E+01  1.00800000E+00
  1.00800000E+00  0.00000000E+00  1.60000000E+01  1.00800000E+00  1.00800000E+00
  0.00000000E+00  1.60000000E+01  1.00800000E+00  1.00800000E+00  0.00000000E+00
  1.60000000E+01  1.00800000E+00  1.00800000E+00  0.00000000E+00  1.60000000E+01
  1.00800000E+00  1.00800000E+00  0.00000000E+00  1.60000000E+01  1.00800000E+00
  1.00800000E+00  0.00000000E+00  1.60000000E+01  1.00800000E+00  1.00800000E+00
  0.00000000E+00  1.60000000E+01  1.00800000E+00  1.00800000E+00  0.00000000E+00
  1.60000000E+01  1.00800000E+00  1.00800000E+00  0.00000000E+00  1.60000000E+01
  1.00800000E+00  1.00800000E+00  0.00000000E+00  1.60000000E+01  1.00800000E+00
  1.00800000E+00  0.00000000E+00  1.60000000E+01  1.00800000E+00  1.00800000E+00
  0.00000000E+00  1.60000000E+01  1.00800000E+00  1.00800000E+00  0.00000000E+00
  1.60000000E+01  1.00800000E+00  1.00800000E+00  0.00000000E+00  1.60000000E+01
  1.00800000E+00  1.00800000E+00  0.00000000E+00  1.60000000E+01  1.00800000E+00
  1.00800000E+00  0.00000000E+00  1.60000000E+01  1.00800000E+00  1.00800000E+00
  0.00000000E+00  1.60000000E+01  1.00800000E+00  1.00800000E+00  0.00000000E+00
  1.60000000E+01  1.00800000E+00  1.00800000E+00  0.00000000E+00  1.60000000E+01
  1.00800000E+00  1.00800000E+00  0.00000000E+00  1.60000000E+01  1.00800000E+00
  1.00800000E+00  0.00000000E+00  1.60000000E+01  1.00800000E+00  1.00800000E+00
  0.00000000E+00  1.60000000E+01  1.00800000E+00  1.00800000E+00  0.00000000E+00
  1.60000000E+01  1.00800000E+00  1.00800000E+00  0.00000000E+00  1.60000000E+01
  1.00800000E+00  1.00800000E+00  0.00000000E+00  1.60000000E+01  1.00800000E+00
  1.00800000E+00  0.00000000E+00  1.60000000E+01  1.00800000E+00  1.00800000E+00
  0.00000000E+00  1.60000000E+01  1.00800000E+00  1.00800000E+00  0.00000000E+00
  1.60000000E+01  1.00800000E+00  1.00800000E+00  0.00000000E+00  1.60000000E+01
  1.00800000E+00  1.00800000E+00  0.00000000E+00  1.60000000E+01  1.00800000E+00
  1.00800000E+00  0.00000000E+00  1.60000000E+01  1.00800000E+00  1.00800000E+00
  0.00000000E+00  1.60000000E+01  1.00800000E+00  1.00800000E+00  0.00000000E+00
  1.60000000E+01  1.00800000E+00  1.00800000E+00  0.00000000E+00  1.60000000E+01
  1.00800000E+00  1.00800000E+00  0.00000000E+00  1.60000000E+01  1.00800000E+00
  1.00800000E+00  0.00000000E+00  1.60000000E+01  1.00800000E+00  1.00800000E+00
  0.00000000E+00  1.60000000E+01  1.00800000E+00  1.00800000E+00  0.00000000E+00
  1.60000000E+01  1.00800000E+00  1.00800000E+00  0.00000000E+00  1.60000000E+01
  1.00800000E+00  1.00800000E+00  0.00000000E+00  1.60000000E+01  1.00800000E+00
  1.00800000E+00  0.00000000E+00  1.60000000E+01  1.00800000E+00  1.00800000E+00
  0.00000000E+00  1.60000000E+01  1.00800000E+00  1.00800000E+00  0.00000000E+00
  1.60000000E+01  1.00800000E+00  1.00800000E+00  0.00000000E+00  1.60000000E+01
  1.00800000E+00  1.00800000E+00  0.00000000E+00  1.60000000E+01  1.00800000E+00
  1.00800000E+00  0.00000000E+00  1.60000000E+01  1.00800000E+00  1.00800000E+00
  0.00000000E+00  1.60000000E+01  1.00800000E+00  1.00800000E+00  0.00000000E+00
  1.60000000E+01  1.00800000E+00  1.00800000E+00  0.00000000E+00  1.60000000E+01
  1.00800000E+00  1.00800000E+00  0.00000000E+00  1.60000000E+01  1.00800000E+00
  1.00800000E+00  0.00000000E+00  1.60000000E+01  1.00800000E+00  1.00800000E+00
  0.00000000E+00  1.60000000E+01  1.00800000E+00  1.00800000E+00  0.00000000E+00
  1.60000000E+01  1.00800000E+00  1.00800000E+00  0.00000000E+00  1.60000000E+01
  1.00800000E+00  1.00800000E+00  0.00000000E+00  1.60000000E+01  1.00800000E+00
  1.00800000E+00  0.00000000E+00  1.60000000E+01  1.00800000E+00  1.00800000E+00
  0.00000000E+00  1.60000000E+01  1.00800000E+00  1.00800000E+00  0.00000000E+00
  1.60000000E+01  1.00800000E+00  1.00800000E+00  0.00000000E+00  1.60000000E+01
  1.00800000E+00  1.00800000E+00  0.00000000E+00  1.60000000E+01  1.00800000E+00
  1.00800000E+00  0.00000000E+00  1.60000000E+01  1.00800000E+00  1.00800000E+00
  0.00000000E+00  1.60000000E+01  1.00800000E+00  1.00800000E+00  0.00000000E+00
  1.60000000E+01  1.00800000E+00  1.00800000E+00  0.00000000E+00  1.60000000E+01
  1.00800000E+00  1.00800000E+00  0.00000000E+00  1.60000000E+01  1.00800000E+00
  1.00800000E+00  0.00000000E+00  1.60000000E+01  1.00800000E+00  1.00800000E+00
  0.00000000E+00  1.60000000E+01  1.00800000E+00  1.00800000E+00  0.00000000E+00
  1.60000000E+01  1.00800000E+00  1.00800000E+00  0.00000000E+00  1.60000000E+01
  1.00800000E+00  1.00800000E+00  0.00000000E+00  1.60000000E+01  1.00800000E+00
  1.00800000E+00  0.00000000E+00  1.60000000E+01  1.00800000E+00  1.00800000E+00
  0.00000000E+00  1.60000000E+01  1.00800000E+00  1.00800000E+00  0.00000000E+00
  1.60000000E+01  1.00800000E+00  1.00800000E+00  0.00000000E+00  1.60000000E+01
  1.00800000E+00  1.00800000E+00  0.00000000E+00  1.60000000E+01  1.00800000E+00
  1.00800000E+00  0.00000000E+00  1.60000000E+01  1.00800000E+00  1.00800000E+00
  0.00000000E+00  1.60000000E+01  1.00800000E+00  1.00800000E+00  0.00000000E+00
  1.60000000E+01  1.00800000E+00  1.00800000E+00  0.00000000E+00  1.60000000E+01
  1.00800000E+00  1.00800000E+00  0.00000000E+00  1.60000000E+01  1.00800000E+00
  1.00800000E+00  0.00000000E+00  1.60000000E+01  1.00800000E+00  1.00800000E+00
  0.00000000E+00  1.60000000E+01  1.00800000E+00  1.00800000E+00  0.00000000E+00
  1.60000000E+01  1.00800000E+00  1.00800000E+00  0.00000000E+00  1.60000000E+01
  1.00800000E+00  1.00800000E+00  0.00000000E+00  1.60000000E+01  1.00800000E+00
  1.00800000E+00  0.00000000E+00  1.60000000E+01  1.00800000E+00  1.00800000E+00
  0.00000000E+00  1.60000000E+01  1.00800000E+00  1.00800000E+00  0.00000000E+00
  1.60000000E+01  1.00800000E+00  1.00800000E+00  0.00000000E+00  1.60000000E+01
  1.00800000E+00  1.00800000E+00  0.00000000E+00  1.60000000E+01  1.00800000E+00
  1.00800000E+00  0.00000000E+00  1.60000000E+01  1.00800000E+00  1.00800000E+00
  0.00000000E+00  1.60000000E+01  1.00800000E+00  1.00800000E+00  0.00000000E+00
  1.60000000E+01  1.00800000E+00  1.00800000E+00  0.00000000E+00  1.60000000E+01
  1.00800000E+00  1.00800000E+00  0.00000000E+00  1.60000000E+01  1.00800000E+00
  1.00800000E+00  0.00000000E+00  1.60000000E+01  1.00800000E+00  1.00800000E+00
  0.00000000E+00  1.60000000E+01  1.00800000E+00  1.00800000E+00  0.00000000E+00
  1.60000000E+01  1.00800000E+00  1.00800000E+00  0.00000000E+00  1.60000000E+01
  1.00800000E+00  1.00800000E+00  0.00000000E+00  1.60000000E+01  1.00800000E+00
  1.00800000E+00  0.00000000E+00  1.60000000E+01  1.00800000E+00  1.00800000E+00
  0.00000000E+00  1.60000000E+01  1.00800000E+00  1.00800000E+00  0.00000000E+00
  1.60000000E+01  1.00800000E+00  1.00800000E+00  0.00000000E+00  1.60000000E+01
  1.00800000E+00  1.00800000E+00  0.00000000E+00  1.60000000E+01  1.00800000E+00
  1.00800000E+00  0.00000000E+00  1.60000000E+01  1.00800000E+00  1.00800000E+00
  0.00000000E+00  1.60000000E+01  1.00800000E+00  1.00800000E+00  0.00000000E+00
  1.60000000E+01  1.00800000E+00  1.00800000E+00  0.00000000E+00  1.60000000E+01
  1.00800000E+00  1.00800000E+00  0.00000000E+00  1.60000000E+01  1.00800000E+00
  1.00800000E+00  0.00000000E+00  1.60000000E+01  1.00800000E+00  1.00800000E+00
  0.00000000E+00  1.60000000E+01  1.00800000E+00  1.00800000E+00  0.00000000E+00
  1.60000000E+01  1.00800000E+00  1.00800000E+00  0.00000000E+00  1.60000000E+01
  1.00800000E+00  1.00800000E+00  0.00000000E+00  1.60000000E+01  1.00800000E+00
  1.00800000E+00  0.00000000E+00  1.60000000E+01  1.00800000E+00  1.00800000E+00
  0.00000000E+00  1.60000000E+01  1.00800000E+00  1.00800000E+00  0.00000000E+00
  1.60000000E+01  1.00800000E+00  1.00800000E+00  0.00000000E+00  1.60000000E+01
  1.00800000E+00  1.00800000E+00  0.00000000E+00  1.60000000E+01  1.00800000E+00
  1.00800000E+00  0.00000000E+00  1.60000000E+01  1.00800000E+00  1.00800000E+00
  0.00000000E+00  1.60000000E+01  1.00800000E+00  1.00800000E+00  0.00000000E+00
  1.60000000E+01  1.00800000E+00  1.00800000E+00  0.00000000E+00  1.60000000E+01
  1.00800000E+00  1.00800000E+00  0.00000000E+00  1.60000000E+01  1.00800000E+00
  1.00800000E+00  0.00000000E+00  1.60000000E+01  1.00800000E+00  1.00800000E+00
  0.00000000E+00  1.60000000E+01  1.00800000E+00  1.00800000E+00  0.00000000E+00
  1.60000000E+01  1.00800000E+00  1.00800000E+00  0.00000000E+00  1.60000000E+01
  1.00800000E+00  1.00800000E+00  0.00000000E+00  1.60000000E+01  1.00800000E+00
  1.00800000E+00  0.00000000E+00  1.60000000E+01  1.00800000E+00  1.00800000E+00
  0.00000000E+00  1.60000000E+01  1.00800000E+00  1.00800000E+00  0.00000000E+00
  1.60000000E+01  1.00800000E+00  1.00800000E+00  0.00000000E+00  1.60000000E+01
  1.00800000E+00  1.00800000E+00  0.00000000E+00  1.60000000E+01  1.00800000E+00
  1.00800000E+00  0.00000000E+00  1.60000000E+01  1.00800000E+00  1.00800000E+00
  0.00000000E+00  1.60000000E+01  1.00800000E+00  1.00800000E+00  0.00000000E+00
  1.60000000E+01  1.00800000E+00  1.00800000E+00  0.00000000E+00  1.60000000E+01
  1.00800000E+00  1.00800000E+00  0.00000000E+00  1.60000000E+01  1.00800000E+00
  1.00800000E+00  0.00000000E+00  1.60000000E+01  1.00800000E+00  1.00800000E+00
  0.00000000E+00  1.60000000E+01  1.00800000E+00  1.00800000E+00  0.00000000E+00
  1.60000000E+01  1.00800000E+00  1.00800000E+00  0.00000000E+00  1.60000000E+01
  1.00800000E+00  1.00800000E+00  0.00000000E+00  1.60000000E+01  1.00800000E+00
  1.00800000E+00  0.00000000E+00  1.60000000E+01  1.00800000E+00  1.00800000E+00
  0.00000000E+00  1.60000000E+01  1.00800000E+00  1.00800000E+00  0.00000000E+00
  1.60000000E+01  1.00800000E+00  1.00800000E+00  0.00000000E+00  1.60000000E+01
  1.00800000E+00  1.00800000E+00  0.00000000E+00  1.60000000E+01  1.00800000E+00
  1.00800000E+00  0.00000000E+00  1.60000000E+01  1.00800000E+00  1.00800000E+00
  0.00000000E+00  1.60000000E+01  1.00800000E+00  1.00800000E+00  0.00000000E+00
  1.60000000E+01  1.00800000E+00  1.00800000E+00  0.00000000E+00  1.60000000E+01
  1.00800000E+00  1.00800000E+00  0.00000000E+00  1.60000000E+01  1.00800000E+00
  1.00800000E+00  0.00000000E+00  1.60000000E+01  1.00800000E+00  1.00800000E+00
  0.00000000E+00  1.60000000E+01  1.00800000E+00  1.00800000E+00  0.00000000E+00
  1.60000000E+01  1.00800000E+00  1.00800000E+00  0.00000000E+00  1.60000000E+01
  1.00800000E+00  1.00800000E+00  0.00000000E+00  1.60000000E+01  1.00800000E+00
  1.00800000E+00  0.00000000E+00  1.60000000E+01  1.00800000E+00  1.00800000E+00
  0.00000000E+00  1.60000000E+01  1.00800000E+00  1.00800000E+00  0.00000000E+00
  1.60000000E+01  1.00800000E+00  1.00800000E+00  0.00000000E+00  1.60000000E+01
  1.00800000E+00  1.00800000E+00  0.00000000E+00  1.60000000E+01  1.00800000E+00
  1.00800000E+00  0.00000000E+00  1.60000000E+01  1.00800000E+00  1.00800000E+00
  0.00000000E+00  1.60000000E+01  1.00800000E+00  1.00800000E+00  0.00000000E+00
  1.60000000E+01  1.00800000E+00  1.00800000E+00  0.00000000E+00  1.60000000E+01
  1.00800000E+00  1.00800000E+00  0.00000000E+00  1.60000000E+01  1.00800000E+00
  1.00800000E+00  0.00000000E+00  1.60000000E+01  1.00800000E+00  1.00800000E+00
  0.00000000E+00  1.60000000E+01  1.00800000E+00  1.00800000E+00  0.00000000E+00
  1.60000000E+01  1.00800000E+00  1.00800000E+00  0.00000000E+00  1.60000000E+01
  1.00800000E+00  1.00800000E+00  0.00000000E+00  1.60000000E+01  1.00800000E+00
  1.00800000E+00  0.00000000E+00  1.60000000E+01  1.00800000E+00  1.00800000E+00
  0.00000000E+00  1.60000000E+01  1.00800000E+00  1.00800000E+00  0.00000000E+00
  1.60000000E+01  1.00800000E+00  1.00800000E+00  0.00000000E+00  1.60000000E+01
  1.00800000E+00  1.00800000E+00  0.00000000E+00  1.60000000E+01  1.00800000E+00
  1.00800000E+00  0.00000000E+00  1.60000000E+01  1.00800000E+00  1.00800000E+00
  0.00000000E+00  1.60000000E+01  1.00800000E+00  1.00800000E+00  0.00000000E+00
  1.60000000E+01  1.00800000E+00  1.00800000E+00  0.00000000E+00  1.60000000E+01
  1.00800000E+00  1.00800000E+00  0.00000000E+00  1.60000000E+01  1.00800000E+00
  1.00800000E+00  0.00000000E+00  1.60000000E+01  1.00800000E+00  1.00800000E+00
  0.00000000E+00  1.60000000E+01  1.00800000E+00  1.00800000E+00  0.00000000E+00
  1.60000000E+01  1.00800000E+00  1.00800000E+00  0.00000000E+00  1.60000000E+01
  1.00800000E+00  1.00800000E+00  0.00000000E+00  1.60000000E+01  1.00800000E+00
  1.00800000E+00  0.00000000E+00  1.60000000E+01  1.00800000E+00  1.00800000E+00
  0.00000000E+00  1.60000000E+01  1.00800000E+00  1.00800000E+00  0.00000000E+00
  1.60000000E+01  1.00800000E+00  1.00800000E+00  0.00000000E+00  1.60000000E+01
  1.00800000E+00  1.00800000E+00  0.00000000E+00  1.60000000E+01  1.00800000E+00
  1.00800000E+00  0.00000000E+00  1.60000000E+01  1.00800000E+00  1.00800000E+00
  0.00000000E+00  1.60000000E+01  1.00800000E+00  1.00800000E+00  0.00000000E+00
  1.60000000E+01  1.00800000E+00  1.00800000E+00  0.00000000E+00  1.60000000E+01
  1.00800000E+00  1.00800000E+00  0.00000000E+00  1.60000000E+01  1.00800000E+00
  1.00800000E+00  0.00000000E+00  1.60000000E+01  1.00800000E+00  1.00800000E+00
  0.00000000E+00  1.60000000E+01  1.00800000E+00  1.00800000E+00  0.00000000E+00
  1.60000000E+01  1.00800000E+00  1.00800000E+00  0.00000000E+00  1.60000000E+01
  1.00800000E+00  1.00800000E+00  0.00000000E+00  1.60000000E+01  1.00800000E+00
  1.00800000E+00  0.00000000E+00  1.60000000E+01  1.00800000E+00  1.00800000E+00
  0.00000000E+00  1.60000000E+01  1.00800000E+00  1.00800000E+00  0.00000000E+00
  1.60000000E+01  1.00800000E+00  1.00800000E+00  0.00000000E+00  1.60000000E+01
  1.00800000E+00  1.00800000E+00  0.00000000E+00  1.60000000E+01  1.00800000E+00
  1.00800000E+00  0.00000000E+00  1.60000000E+01  1.00800000E+00  1.00800000E+00
  0.00000000E+00  1.60000000E+01  1.00800000E+00  1.00800000E+00  0.00000000E+00
  1.60000000E+01  1.00800000E+00  1.00800000E+00  0.00000000E+00  1.60000000E+01
  1.00800000E+00  1.00800000E+00  0.00000000E+00  1.60000000E+01  1.00800000E+00
  1.00800000E+00  0.00000000E+00  1.60000000E+01  1.00800000E+00  1.00800000E+00
  0.00000000E+00  1.60000000E+01  1.00800000E+00  1.00800000E+00  0.00000000E+00
  1.60000000E+01  1.00800000E+00  1.00800000E+00  0.00000000E+00  1.60000000E+01
  1.00800000E+00  1.00800000E+00  0.00000000E+00  1.60000000E+01  1.00800000E+00
  1.00800000E+00  0.00000000E+00  1.60000000E+01  1.00800000E+00  1.00800000E+00
  0.00000000E+00  1.60000000E+01  1.00800000E+00  1.00800000E+00  0.00000000E+00
  1.60000000E+01  1.00800000E+00  1.00800000E+00  0.00000000E+00  1.60000000E+01
  1.00800000E+00  1.00800000E+00  0.00000000E+00  1.60000000E+01  1.00800000E+00
  1.00800000E+00  0.00000000E+00  1.60000000E+01  1.00800000E+00  1.00800000E+00
  0.00000000E+00  1.60000000E+01  1.00800000E+00  1.00800000E+00  0.00000000E+00
  1.60000000E+01  1.00800000E+00  1.00800000E+00  0.00000000E+00  1.60000000E+01
  1.00800000E+00  1.00800000E+00  0.00000000E+00  1.60000000E+01  1.00800000E+00
  1.00800000E+00  0.00000000E+00  1.60000000E+01  1.00800000E+00  1.00800000E+00
  0.00000000E+00  1.60000000E+01  1.00800000E+00  1.00800000E+00  0.00000000E+00
  1.60000000E+01  1.00800000E+00  1.00800000E+00  0.00000000E+00  1.60000000E+01
  1.00800000E+00  1.00800000E+00  0.00000000E+00  1.60000000E+01  1.00800000E+00
  1.00800000E+00  0.00000000E+00  1.60000000E+01  1.00800000E+00  1.00800000E+00
  0.00000000E+00  1.60000000E+01  1.00800000E+00  1.00800000E+00  0.00000000E+00
  1.60000000E+01  1.00800000E+00  1.00800000E+00  0.00000000E+00  1.60000000E+01
  1.00800000E+00  1.00800000E+00  0.00000000E+00  1.60000000E+01  1.00800000E+00
  1.00800000E+00  0.00000000E+00  1.60000000E+01  1.00800000E+00  1.00800000E+00
  0.00000000E+00  1.60000000E+01  1.00800000E+00  1.00800000E+00  0.00000000E+00
  1.60000000E+01  1.00800000E+00  1.00800000E+00  0.00000000E+00  1.60000000E+01
  1.00800000E+00  1.00800000E+00  0.00000000E+00  1.60000000E+01  1.00800000E+00
  1.00800000E+00  0.00000000E+00  1.60000000E+01  1.00800000E+00  1.00800000E+00
  0.00000000E+00  1.60000000E+01  1.00800000E+00  1.00800000E+00  0.00000000E+00
  1.60000000E+01  1.00800000E+00  1.00800000E+00  0.00000000E+00  1.60000000E+01
  1.00800000E+00  1.00800000E+00  0.00000000E+00  1.60000000E+01  1.00800000E+00
  1.00800000E+00  0.00000000E+00  1.60000000E+01  1.00800000E+00  1.00800000E+00
  0.00000000E+00  1.60000000E+01  1.00800000E+00  1.00800000E+00  0.00000000E+00
  1.60000000E+01  1.00800000E+00  1.00800000E+00  0.00000000E+00  1.60000000E+01
  1.00800000E+00  1.00800000E+00  0.00000000E+00  1.60000000E+01  1.00800000E+00
  1.00800000E+00  0.00000000E+00  1.60000000E+01  1.00800000E+00  1.00800000E+00
  0.00000000E+00  1.60000000E+01  1.00800000E+00  1.00800000E+00  0.00000000E+00
  1.60000000E+01  1.00800000E+00  1.00800000E+00  0.00000000E+00  1.60000000E+01
  1.00800000E+00  1.00800000E+00  0.00000000E+00  1.60000000E+01  1.00800000E+00
  1.00800000E+00  0.00000000E+00  1.60000000E+01  1.00800000E+00  1.00800000E+00
  0.00000000E+00  1.60000000E+01  1.00800000E+00  1.00800000E+00  0.00000000E+00
  1.60000000E+01  1.00800000E+00  1.00800000E+00  0.00000000E+00  1.60000000E+01
  1.00800000E+00  1.00800000E+00  0.00000000E+00  1.60000000E+01  1.00800000E+00
  1.00800000E+00  0.00000000E+00  1.60000000E+01  1.00800000E+00  1.00800000E+00
  0.00000000E+00  1.60000000E+01  1.00800000E+00  1.00800000E+00  0.00000000E+00
  1.60000000E+01  1.00800000E+00  1.00800000E+00  0.00000000E+00  1.60000000E+01
  1.00800000E+00  1.00800000E+00  0.00000000E+00  1.60000000E+01  1.00800000E+00
  1.00800000E+00  0.00000000E+00  1.60000000E+01  1.00800000E+00  1.00800000E+00
  0.00000000E+00  1.60000000E+01  1.00800000E+00  1.00800000E+00  0.00000000E+00
  1.60000000E+01  1.00800000E+00  1.00800000E+00  0.00000000E+00  1.60000000E+01
  1.00800000E+00  1.00800000E+00  0.00000000E+00  1.60000000E+01  1.00800000E+00
  1.00800000E+00  0.00000000E+00  1.60000000E+01  1.00800000E+00  1.00800000E+00
  0.00000000E+00  1.60000000E+01  1.00800000E+00  1.00800000E+00  0.00000000E+00
  1.60000000E+01  1.00800000E+00  1.00800000E+00  0.00000000E+00  1.60000000E+01
  1.00800000E+00  1.00800000E+00  0.00000000E+00  1.60000000E+01  1.00800000E+00
  1.00800000E+00  0.00000000E+00  1.60000000E+01  1.00800000E+00  1.00800000E+00
  0.00000000E+00  1.60000000E+01  1.00800000E+00  1.00800000E+00  0.00000000E+00
  1.60000000E+01  1.00800000E+00  1.00800000E+00  0.00000000E+00  1.60000000E+01
  1.00800000E+00  1.00800000E+00  0.00000000E+00  1.60000000E+01  1.00800000E+00
  1.00800000E+00  0.00000000E+00  1.60000000E+01  1.00800000E+00  1.00800000E+00
  0.00000000E+00  1.60000000E+01  1.00800000E+00  1.00800000E+00  0.00000000E+00
  1.60000000E+01  1.00800000E+00  1.00800000E+00  0.00000000E+00  1.60000000E+01
  1.00800000E+00  1.00800000E+00  0.00000000E+00  1.60000000E+01  1.00800000E+00
  1.00800000E+00  0.00000000E+00  1.60000000E+01  1.00800000E+00  1.00800000E+00
  0.00000000E+00  1.60000000E+01  1.00800000E+00  1.00800000E+00  0.00000000E+00
  1.60000000E+01  1.00800000E+00  1.00800000E+00  0.00000000E+00  1.60000000E+01
  1.00800000E+00  1.00800000E+00  0.00000000E+00  1.60000000E+01  1.00800000E+00
  1.00800000E+00  0.00000000E+00  1.60000000E+01  1.00800000E+00  1.00800000E+00
  0.00000000E+00  1.60000000E+01  1.00800000E+00  1.00800000E+00  0.00000000E+00
  1.60000000E+01  1.00800000E+00  1.00800000E+00  0.00000000E+00  1.60000000E+01
  1.00800000E+00  1.00800000E+00  0.00000000E+00  1.60000000E+01  1.00800000E+00
  1.00800000E+00  0.00000000E+00  1.60000000E+01  1.00800000E+00  1.00800000E+00
  0.00000000E+00  1.60000000E+01  1.00800000E+00  1.00800000E+00  0.00000000E+00
  1.60000000E+01  1.00800000E+00  1.00800000E+00  0.00000000E+00  1.60000000E+01
  1.00800000E+00  1.00800000E+00  0.00000000E+00  1.60000000E+01  1.00800000E+00
  1.00800000E+00  0.00000000E+00  1.60000000E+01  1.00800000E+00  1.00800000E+00
  0.00000000E+00  1.60000000E+01  1.00800000E+00  1.00800000E+00  0.00000000E+00
  1.60000000E+01  1.00800000E+00  1.00800000E+00  0.00000000E+00  1.60000000E+01
  1.00800000E+00  1.00800000E+00  0.00000000E+00  1.60000000E+01  1.00800000E+00
  1.00800000E+00  0.00000000E+00  1.60000000E+01  1.00800000E+00  1.00800000E+00
  0.00000000E+00  1.60000000E+01  1.00800000E+00  1.00800000E+00  0.00000000E+00
  1.60000000E+01  1.00800000E+00  1.00800000E+00  0.00000000E+00  1.60000000E+01
  1.00800000E+00  1.00800000E+00  0.00000000E+00  1.60000000E+01  1.00800000E+00
  1.00800000E+00  0.00000000E+00  1.60000000E+01  1.00800000E+00  1.00800000E+00
  0.00000000E+00  1.60000000E+01  1.00800000E+00  1.00800000E+00  0.00000000E+00
  1.60000000E+01  1.00800000E+00  1.00800000E+00  0.00000000E+00  1.60000000E+01
  1.00800000E+00  1.00800000E+00  0.00000000E+00  1.60000000E+01  1.00800000E+00
  1.00800000E+00  0.00000000E+00  1.60000000E+01  1.00800000E+00  1.00800000E+00
  0.00000000E+00  1.60000000E+01  1.00800000E+00  1.00800000E+00  0.00000000E+00
  1.60000000E+01  1.00800000E+00  1.00800000E+00  0.00000000E+00  1.60000000E+01
  1.00800000E+00  1.00800000E+00  0.00000000E+00  1.60000000E+01  1.00800000E+00
  1.00800000E+00  0.00000000E+00  1.60000000E+01  1.00800000E+00  1.00800000E+00
  0.00000000E+00  1.60000000E+01  1.00800000E+00  1.00800000E+00  0.00000000E+00
  1.60000000E+01  1.00800000E+00  1.00800000E+00  0.00000000E+00  1.60000000E+01
  1.00800000E+00  1.00800000E+00  0.00000000E+00  1.60000000E+01  1.00800000E+00
  1.00800000E+00  0.00000000E+00  1.60000000E+01  1.00800000E+00  1.00800000E+00
  0.00000000E+00  1.60000000E+01  1.00800000E+00  1.00800000E+00  0.00000000E+00
  1.60000000E+01  1.00800000E+00  1.00800000E+00  0.00000000E+00  1.60000000E+01
  1.00800000E+00  1.00800000E+00  0.00000000E+00  1.60000000E+01  1.00800000E+00
  1.00800000E+00  0.00000000E+00  1.60000000E+01  1.00800000E+00  1.00800000E+00
  0.00000000E+00  1.60000000E+01  1.00800000E+00  1.00800000E+00  0.00000000E+00
  1.60000000E+01  1.00800000E+00  1.00800000E+00  0.00000000E+00  1.60000000E+01
  1.00800000E+00  1.00800000E+00  0.00000000E+00  1.60000000E+01  1.00800000E+00
  1.00800000E+00  0.00000000E+00  1.60000000E+01  1.00800000E+00  1.00800000E+00
  0.00000000E+00  1.60000000E+01  1.00800000E+00  1.00800000E+00  0.00000000E+00
  1.60000000E+01  1.00800000E+00  1.00800000E+00  0.00000000E+00  1.60000000E+01
  1.00800000E+00  1.00800000E+00  0.00000000E+00  1.60000000E+01  1.00800000E+00
  1.00800000E+00  0.00000000E+00  1.60000000E+01  1.00800000E+00  1.00800000E+00
  0.00000000E+00  1.60000000E+01  1.00800000E+00  1.00800000E+00  0.00000000E+00
  1.60000000E+01  1.00800000E+00  1.00800000E+00  0.00000000E+00  1.60000000E+01
  1.00800000E+00  1.00800000E+00  0.00000000E+00  1.60000000E+01  1.00800000E+00
  1.00800000E+00  0.00000000E+00  1.60000000E+01  1.00800000E+00  1.00800000E+00
  0.00000000E+00  1.60000000E+01  1.00800000E+00  1.00800000E+00  0.00000000E+00
  1.60000000E+01  1.00800000E+00  1.00800000E+00  0.00000000E+00  1.60000000E+01
  1.00800000E+00  1.00800000E+00  0.00000000E+00  1.60000000E+01  1.00800000E+00
  1.00800000E+00  0.00000000E+00  1.60000000E+01  1.00800000E+00  1.00800000E+00
  0.00000000E+00  1.60000000E+01  1.00800000E+00  1.00800000E+00  0.00000000E+00
  1.60000000E+01  1.00800000E+00  1.00800000E+00  0.00000000E+00  1.60000000E+01
  1.00800000E+00  1.00800000E+00  0.00000000E+00  1.60000000E+01  1.00800000E+00
  1.00800000E+00  0.00000000E+00  1.60000000E+01  1.00800000E+00  1.00800000E+00
  0.00000000E+00  1.60000000E+01  1.00800000E+00  1.00800000E+00  0.00000000E+00
  1.60000000E+01  1.00800000E+00  1.00800000E+00  0.00000000E+00  1.60000000E+01
  1.00800000E+00  1.00800000E+00  0.00000000E+00  1.60000000E+01  1.00800000E+00
  1.00800000E+00  0.00000000E+00  1.60000000E+01  1.00800000E+00  1.00800000E+00
  0.00000000E+00  1.60000000E+01  1.00800000E+00  1.00800000E+00  0.00000000E+00
  1.60000000E+01  1.00800000E+00  1.00800000E+00  0.00000000E+00  1.60000000E+01
  1.00800000E+00  1.00800000E+00  0.00000000E+00  1.60000000E+01  1.00800000E+00
  1.00800000E+00  0.00000000E+00  1.60000000E+01  1.00800000E+00  1.00800000E+00
  0.00000000E+00  1.60000000E+01  1.00800000E+00  1.00800000E+00  0.00000000E+00
  1.60000000E+01  1.00800000E+00  1.00800000E+00  0.00000000E+00  1.60000000E+01
  1.00800000E+00  1.00800000E+00  0.00000000E+00  1.60000000E+01  1.00800000E+00
  1.00800000E+00  0.00000000E+00  1.60000000E+01  1.00800000E+00  1.00800000E+00
  0.00000000E+00  1.60000000E+01  1.00800000E+00  1.00800000E+00  0.00000000E+00
  1.60000000E+01  1.00800000E+00  1.00800000E+00  0.00000000E+00  1.60000000E+01
  1.00800000E+00  1.00800000E+00  0.00000000E+00  1.60000000E+01  1.00800000E+00
  1.00800000E+00  0.00000000E+00  1.60000000E+01  1.00800000E+00  1.00800000E+00
  0.00000000E+00  1.60000000E+01  1.00800000E+00  1.00800000E+00  0.00000000E+00
  1.60000000E+01  1.00800000E+00  1.00800000E+00  0.00000000E+00  1.60000000E+01
  1.00800000E+00  1.00800000E+00  0.00000000E+00  1.60000000E+01  1.00800000E+00
  1.00800000E+00  0.00000000E+00  1.60000000E+01  1.00800000E+00  1.00800000E+00
  0.00000000E+00  1.60000000E+01  1.00800000E+00  1.00800000E+00  0.00000000E+00
  1.60000000E+01  1.00800000E+00  1.00800000E+00  0.00000000E+00  1.60000000E+01
  1.00800000E+00  1.00800000E+00  0.00000000E+00  1.60000000E+01  1.00800000E+00
  1.00800000E+00  0.00000000E+00  1.60000000E+01  1.00800000E+00  1.00800000E+00
  0.00000000E+00  1.60000000E+01  1.00800000E+00  1.00800000E+00  0.00000000E+00
  1.60000000E+01  1.00800000E+00  1.00800000E+00  0.00000000E+00  1.60000000E+01
  1.00800000E+00  1.00800000E+00  0.00000000E+00  1.60000000E+01  1.00800000E+00
  1.00800000E+00  0.00000000E+00  1.60000000E+01  1.00800000E+00  1.00800000E+00
  0.00000000E+00  1.60000000E+01  1.00800000E+00  1.00800000E+00  0.00000000E+00
  1.60000000E+01  1.00800000E+00  1.00800000E+00  0.00000000E+00  1.60000000E+01
  1.00800000E+00  1.00800000E+00  0.00000000E+00  1.60000000E+01  1.00800000E+00
  1.00800000E+00  0.00000000E+00  1.60000000E+01  1.00800000E+00  1.00800000E+00
  0.00000000E+00  1.60000000E+01  1.00800000E+00  1.00800000E+00  0.00000000E+00
  1.60000000E+01  1.00800000E+00  1.00800000E+00  0.00000000E+00  1.60000000E+01
  1.00800000E+00  1.00800000E+00  0.00000000E+00  1.60000000E+01  1.00800000E+00
  1.00800000E+00  0.00000000E+00  1.60000000E+01  1.00800000E+00  1.00800000E+00
  0.00000000E+00  1.60000000E+01  1.00800000E+00  1.00800000E+00  0.00000000E+00
  1.60000000E+01  1.00800000E+00  1.00800000E+00  0.00000000E+00  1.60000000E+01
  1.00800000E+00  1.00800000E+00  0.00000000E+00  1.60000000E+01  1.00800000E+00
  1.00800000E+00  0.00000000E+00  1.60000000E+01  1.00800000E+00  1.00800000E+00
  0.00000000E+00  1.60000000E+01  1.00800000E+00  1.00800000E+00  0.00000000E+00
  1.60000000E+01  1.00800000E+00  1.00800000E+00  0.00000000E+00  1.60000000E+01
  1.00800000E+00  1.00800000E+00  0.00000000E+00  1.60000000E+01  1.00800000E+00
  1.00800000E+00  0.00000000E+00  1.60000000E+01  1.00800000E+00  1.00800000E+00
  0.00000000E+00  1.60000000E+01  1.00800000E+00  1.00800000E+00  0.00000000E+00
  1.60000000E+01  1.00800000E+00  1.00800000E+00  0.00000000E+00  1.60000000E+01
  1.00800000E+00  1.00800000E+00  0.00000000E+00  1.60000000E+01  1.00800000E+00
  1.00800000E+00  0.00000000E+00  1.60000000E+01  1.00800000E+00  1.00800000E+00
  0.00000000E+00  1.60000000E+01  1.00800000E+00  1.00800000E+00  0.00000000E+00
  1.60000000E+01  1.00800000E+00  1.00800000E+00  0.00000000E+00  1.60000000E+01
  1.00800000E+00  1.00800000E+00  0.00000000E+00  1.60000000E+01  1.00800000E+00
  1.00800000E+00  0.00000000E+00  1.60000000E+01  1.00800000E+00  1.00800000E+00
  0.00000000E+00  1.60000000E+01  1.00800000E+00  1.00800000E+00  0.00000000E+00
  1.60000000E+01  1.00800000E+00  1.00800000E+00  0.00000000E+00  1.60000000E+01
  1.00800000E+00  1.00800000E+00  0.00000000E+00  1.60000000E+01  1.00800000E+00
  1.00800000E+00  0.00000000E+00  1.60000000E+01  1.00800000E+00  1.00800000E+00
  0.00000000E+00  1.60000000E+01  1.00800000E+00  1.00800000E+00  0.00000000E+00
  1.60000000E+01  1.00800000E+00  1.00800000E+00  0.00000000E+00  1.60000000E+01
  1.00800000E+00  1.00800000E+00  0.00000000E+00  1.60000000E+01  1.00800000E+00
  1.00800000E+00  0.00000000E+00  1.60000000E+01  1.00800000E+00  1.00800000E+00
  0.00000000E+00  1.60000000E+01  1.00800000E+00  1.00800000E+00  0.00000000E+00
  1.60000000E+01  1.00800000E+00  1.00800000E+00  0.00000000E+00  1.60000000E+01
  1.00800000E+00  1.00800000E+00  0.00000000E+00  1.60000000E+01  1.00800000E+00
  1.00800000E+00  0.00000000E+00  1.60000000E+01  1.00800000E+00  1.00800000E+00
  0.00000000E+00  1.60000000E+01  1.00800000E+00  1.00800000E+00  0.00000000E+00
  1.60000000E+01  1.00800000E+00  1.00800000E+00  0.00000000E+00  1.60000000E+01
  1.00800000E+00  1.00800000E+00  0.00000000E+00  1.60000000E+01  1.00800000E+00
  1.00800000E+00  0.00000000E+00  1.60000000E+01  1.00800000E+00  1.00800000E+00
  0.00000000E+00  1.60000000E+01  1.00800000E+00  1.00800000E+00  0.00000000E+00
  1.60000000E+01  1.00800000E+00  1.00800000E+00  0.00000000E+00  1.60000000E+01
  1.00800000E+00  1.00800000E+00  0.00000000E+00  1.60000000E+01  1.00800000E+00
  1.00800000E+00  0.00000000E+00  1.60000000E+01  1.00800000E+00  1.00800000E+00
  0.00000000E+00  1.60000000E+01  1.00800000E+00  1.00800000E+00  0.00000000E+00
  1.60000000E+01  1.00800000E+00  1.00800000E+00  0.00000000E+00  1.60000000E+01
  1.00800000E+00  1.00800000E+00  0.00000000E+00  1.60000000E+01  1.00800000E+00
  1.00800000E+00  0.00000000E+00  1.60000000E+01  1.00800000E+00  1.00800000E+00
  0.00000000E+00  1.60000000E+01  1.00800000E+00  1.00800000E+00  0.00000000E+00
  1.60000000E+01  1.00800000E+00  1.00800000E+00  0.00000000E+00  1.60000000E+01
  1.00800000E+00  1.00800000E+00  0.00000000E+00  1.60000000E+01  1.00800000E+00
  1.00800000E+00  0.00000000E+00  1.60000000E+01  1.00800000E+00  1.00800000E+00
  0.00000000E+00  1.60000000E+01  1.00800000E+00  1.00800000E+00  0.00000000E+00
  1.60000000E+01  1.00800000E+00  1.00800000E+00  0.00000000E+00  1.60000000E+01
  1.00800000E+00  1.00800000E+00  0.00000000E+00  1.60000000E+01  1.00800000E+00
  1.00800000E+00  0.00000000E+00  1.60000000E+01  1.00800000E+00  1.00800000E+00
  0.00000000E+00  1.60000000E+01  1.00800000E+00  1.00800000E+00  0.00000000E+00
  1.60000000E+01  1.00800000E+00  1.00800000E+00  0.00000000E+00  1.60000000E+01
  1.00800000E+00  1.00800000E+00  0.00000000E+00  1.60000000E+01  1.00800000E+00
  1.00800000E+00  0.00000000E+00  1.60000000E+01  1.00800000E+00  1.00800000E+00
  0.00000000E+00  1.60000000E+01  1.00800000E+00  1.00800000E+00  0.00000000E+00
  1.60000000E+01  1.00800000E+00  1.00800000E+00  0.00000000E+00  1.60000000E+01
  1.00800000E+00  1.00800000E+00  0.00000000E+00  1.60000000E+01  1.00800000E+00
  1.00800000E+00  0.00000000E+00  1.60000000E+01  1.00800000E+00  1.00800000E+00
  0.00000000E+00  1.60000000E+01  1.00800000E+00  1.00800000E+00  0.00000000E+00
  1.60000000E+01  1.00800000E+00  1.00800000E+00  0.00000000E+00  1.60000000E+01
  1.00800000E+00  1.00800000E+00  0.00000000E+00  1.60000000E+01  1.00800000E+00
  1.00800000E+00  0.00000000E+00  1.60000000E+01  1.00800000E+00  1.00800000E+00
  0.00000000E+00  1.60000000E+01  1.00800000E+00  1.00800000E+00  0.00000000E+00
  1.60000000E+01  1.00800000E+00  1.00800000E+00  0.00000000E+00  1.60000000E+01
  1.00800000E+00  1.00800000E+00  0.00000000E+00  1.60000000E+01  1.00800000E+00
  1.00800000E+00  0.00000000E+00  1.60000000E+01  1.00800000E+00  1.00800000E+00
  0.00000000E+00  1.60000000E+01  1.00800000E+00  1.00800000E+00  0.00000000E+00
  1.60000000E+01  1.00800000E+00  1.00800000E+00  0.00000000E+00  1.60000000E+01
  1.00800000E+00  1.00800000E+00  0.00000000E+00  1.60000000E+01  1.00800000E+00
  1.00800000E+00  0.00000000E+00  1.60000000E+01  1.00800000E+00  1.00800000E+00
  0.00000000E+00  1.60000000E+01  1.00800000E+00  1.00800000E+00  0.00000000E+00
  1.60000000E+01  1.00800000E+00  1.00800000E+00  0.00000000E+00  1.60000000E+01
  1.00800000E+00  1.00800000E+00  0.00000000E+00  1.60000000E+01  1.00800000E+00
  1.00800000E+00  0.00000000E+00  1.60000000E+01  1.00800000E+00  1.00800000E+00
  0.00000000E+00  1.60000000E+01  1.00800000E+00  1.00800000E+00  0.00000000E+00
  1.60000000E+01  1.00800000E+00  1.00800000E+00  0.00000000E+00  1.60000000E+01
  1.00800000E+00  1.00800000E+00  0.00000000E+00  1.60000000E+01  1.00800000E+00
  1.00800000E+00  0.00000000E+00  1.60000000E+01  1.00800000E+00  1.00800000E+00
  0.00000000E+00  1.60000000E+01  1.00800000E+00  1.00800000E+00  0.00000000E+00
  1.60000000E+01  1.00800000E+00  1.00800000E+00  0.00000000E+00  1.60000000E+01
  1.00800000E+00  1.00800000E+00  0.00000000E+00  1.60000000E+01  1.00800000E+00
  1.00800000E+00  0.00000000E+00  1.60000000E+01  1.00800000E+00  1.00800000E+00
  0.00000000E+00  1.60000000E+01  1.00800000E+00  1.00800000E+00  0.00000000E+00
  1.60000000E+01  1.00800000E+00  1.00800000E+00  0.00000000E+00  1.60000000E+01
  1.00800000E+00  1.00800000E+00  0.00000000E+00  1.60000000E+01  1.00800000E+00
  1.00800000E+00  0.00000000E+00  1.60000000E+01  1.00800000E+00  1.00800000E+00
  0.00000000E+00  1.60000000E+01  1.00800000E+00  1.00800000E+00  0.00000000E+00
  1.60000000E+01  1.00800000E+00  1.00800000E+00  0.00000000E+00  1.60000000E+01
  1.00800000E+00  1.00800000E+00  0.00000000E+00  1.60000000E+01  1.00800000E+00
  1.00800000E+00  0.00000000E+00  1.60000000E+01  1.00800000E+00  1.00800000E+00
  0.00000000E+00  1.60000000E+01  1.00800000E+00  1.00800000E+00  0.00000000E+00
  1.60000000E+01  1.00800000E+00  1.00800000E+00  0.00000000E+00  1.60000000E+01
  1.00800000E+00  1.00800000E+00  0.00000000E+00  1.60000000E+01  1.00800000E+00
  1.00800000E+00  0.00000000E+00  1.60000000E+01  1.00800000E+00  1.00800000E+00
  0.00000000E+00  1.60000000E+01  1.00800000E+00  1.00800000E+00  0.00000000E+00
  1.60000000E+01  1.00800000E+00  1.00800000E+00  0.00000000E+00  1.60000000E+01
  1.00800000E+00  1.00800000E+00  0.00000000E+00  1.60000000E+01  1.00800000E+00
  1.00800000E+00  0.00000000E+00  1.60000000E+01  1.00800000E+00  1.00800000E+00
  0.00000000E+00  1.60000000E+01  1.00800000E+00  1.00800000E+00  0.00000000E+00
  1.60000000E+01  1.00800000E+00  1.00800000E+00  0.00000000E+00  1.60000000E+01
  1.00800000E+00  1.00800000E+00  0.00000000E+00  1.60000000E+01  1.00800000E+00
  1.00800000E+00  0.00000000E+00  1.60000000E+01  1.00800000E+00  1.00800000E+00
  0.00000000E+00  1.60000000E+01  1.00800000E+00  1.00800000E+00  0.00000000E+00
  1.60000000E+01  1.00800000E+00  1.00800000E+00  0.00000000E+00  1.60000000E+01
  1.00800000E+00  1.00800000E+00  0.00000000E+00  1.60000000E+01  1.00800000E+00
  1.00800000E+00  0.00000000E+00  1.60000000E+01  1.00800000E+00  1.00800000E+00
  0.00000000E+00  1.60000000E+01  1.00800000E+00  1.00800000E+00  0.00000000E+00
  1.60000000E+01  1.00800000E+00  1.00800000E+00  0.00000000E+00  1.60000000E+01
  1.00800000E+00  1.00800000E+00  0.00000000E+00  1.60000000E+01  1.00800000E+00
  1.00800000E+00  0.00000000E+00  1.60000000E+01  1.00800000E+00  1.00800000E+00
  0.00000000E+00  1.60000000E+01  1.00800000E+00  1.00800000E+00  0.00000000E+00
  1.60000000E+01  1.00800000E+00  1.00800000E+00  0.00000000E+00  1.60000000E+01
  1.00800000E+00  1.00800000E+00  0.00000000E+00  1.60000000E+01  1.00800000E+00
  1.00800000E+00  0.00000000E+00  1.60000000E+01  1.00800000E+00  1.00800000E+00
  0.00000000E+00  1.60000000E+01  1.00800000E+00  1.00800000E+00  0.00000000E+00
  1.60000000E+01  1.00800000E+00  1.00800000E+00  0.00000000E+00  1.60000000E+01
  1.00800000E+00  1.00800000E+00  0.00000000E+00  1.60000000E+01  1.00800000E+00
  1.00800000E+00  0.00000000E+00  1.60000000E+01  1.00800000E+00  1.00800000E+00
  0.00000000E+00  1.60000000E+01  1.00800000E+00  1.00800000E+00  0.00000000E+00
  1.60000000E+01  1.00800000E+00  1.00800000E+00  0.00000000E+00  1.60000000E+01
  1.00800000E+00  1.00800000E+00  0.00000000E+00  1.60000000E+01  1.00800000E+00
  1.00800000E+00  0.00000000E+00  1.60000000E+01  1.00800000E+00  1.00800000E+00
  0.00000000E+00  1.60000000E+01  1.00800000E+00  1.00800000E+00  0.00000000E+00
  1.60000000E+01  1.00800000E+00  1.00800000E+00  0.00000000E+00  1.60000000E+01
  1.00800000E+00  1.00800000E+00  0.00000000E+00  1.60000000E+01  1.00800000E+00
  1.00800000E+00  0.00000000E+00  1.60000000E+01  1.00800000E+00  1.00800000E+00
  0.00000000E+00  1.60000000E+01  1.00800000E+00  1.00800000E+00  0.00000000E+00
  1.60000000E+01  1.00800000E+00  1.00800000E+00  0.00000000E+00  1.60000000E+01
  1.00800000E+00  1.00800000E+00  0.00000000E+00  1.60000000E+01  1.00800000E+00
  1.00800000E+00  0.00000000E+00  1.60000000E+01  1.00800000E+00  1.00800000E+00
  0.00000000E+00  1.60000000E+01  1.00800000E+00  1.00800000E+00  0.00000000E+00
  1.60000000E+01  1.00800000E+00  1.00800000E+00  0.00000000E+00  1.60000000E+01
  1.00800000E+00  1.00800000E+00  0.00000000E+00  1.60000000E+01  1.00800000E+00
  1.00800000E+00  0.00000000E+00  1.60000000E+01  1.00800000E+00  1.00800000E+00
  0.00000000E+00  1.60000000E+01  1.00800000E+00  1.00800000E+00  0.00000000E+00
  1.60000000E+01  1.00800000E+00  1.00800000E+00  0.00000000E+00  1.60000000E+01
  1.00800000E+00  1.00800000E+00  0.00000000E+00  1.60000000E+01  1.00800000E+00
  1.00800000E+00  0.00000000E+00  1.60000000E+01  1.00800000E+00  1.00800000E+00
  0.00000000E+00  1.60000000E+01  1.00800000E+00  1.00800000E+00  0.00000000E+00
  1.60000000E+01  1.00800000E+00  1.00800000E+00  0.00000000E+00  1.60000000E+01
  1.00800000E+00  1.00800000E+00  0.00000000E+00  1.60000000E+01  1.00800000E+00
  1.00800000E+00  0.00000000E+00  1.60000000E+01  1.00800000E+00  1.00800000E+00
  0.00000000E+00  1.60000000E+01  1.00800000E+00  1.00800000E+00  0.00000000E+00
  1.60000000E+01  1.00800000E+00  1.00800000E+00  0.00000000E+00  1.60000000E+01
  1.00800000E+00  1.00800000E+00  0.00000000E+00  1.60000000E+01  1.00800000E+00
  1.00800000E+00  0.00000000E+00  1.60000000E+01  1.00800000E+00  1.00800000E+00
  0.00000000E+00  1.60000000E+01  1.00800000E+00  1.00800000E+00  0.00000000E+00
  1.60000000E+01  1.00800000E+00  1.00800000E+00  0.00000000E+00  1.60000000E+01
  1.00800000E+00  1.00800000E+00  0.00000000E+00  1.60000000E+01  1.00800000E+00
  1.00800000E+00  0.00000000E+00  1.60000000E+01  1.00800000E+00  1.00800000E+00
  0.00000000E+00  1.60000000E+01  1.00800000E+00  1.00800000E+00  0.00000000E+00
  1.60000000E+01  1.00800000E+00  1.00800000E+00  0.00000000E+00  1.60000000E+01
  1.00800000E+00  1.00800000E+00  0.00000000E+00  1.60000000E+01  1.00800000E+00
  1.00800000E+00  0.00000000E+00  1.60000000E+01  1.00800000E+00  1.00800000E+00
  0.00000000E+00  1.60000000E+01  1.00800000E+00  1.00800000E+00  0.00000000E+00
  1.60000000E+01  1.00800000E+00  1.00800000E+00  0.00000000E+00  1.60000000E+01
  1.00800000E+00  1.00800000E+00  0.00000000E+00  1.60000000E+01  1.00800000E+00
  1.00800000E+00  0.00000000E+00  1.60000000E+01  1.00800000E+00  1.00800000E+00
  0.00000000E+00  1.60000000E+01  1.00800000E+00  1.00800000E+00  0.00000000E+00
  1.60000000E+01  1.00800000E+00  1.00800000E+00  0.00000000E+00  1.60000000E+01
  1.00800000E+00  1.00800000E+00  0.00000000E+00  1.60000000E+01  1.00800000E+00
  1.00800000E+00  0.00000000E+00  1.60000000E+01  1.00800000E+00  1.00800000E+00
  0.00000000E+00  1.60000000E+01  1.00800000E+00  1.00800000E+00  0.00000000E+00
  1.60000000E+01  1.00800000E+00  1.00800000E+00  0.00000000E+00  1.60000000E+01
  1.00800000E+00  1.00800000E+00  0.00000000E+00  1.60000000E+01  1.00800000E+00
  1.00800000E+00  0.00000000E+00  1.60000000E+01  1.00800000E+00  1.00800000E+00
  0.00000000E+00  1.60000000E+01  1.00800000E+00  1.00800000E+00  0.00000000E+00
  1.60000000E+01  1.00800000E+00  1.00800000E+00  0.00000000E+00  1.60000000E+01
  1.00800000E+00  1.00800000E+00  0.00000000E+00  1.60000000E+01  1.00800000E+00
  1.00800000E+00  0.00000000E+00  1.60000000E+01  1.00800000E+00  1.00800000E+00
  0.00000000E+00  1.60000000E+01  1.00800000E+00  1.00800000E+00  0.00000000E+00
  1.60000000E+01  1.00800000E+00  1.00800000E+00  0.00000000E+00  1.60000000E+01
  1.00800000E+00  1.00800000E+00  0.00000000E+00  1.60000000E+01  1.00800000E+00
  1.00800000E+00  0.00000000E+00  1.60000000E+01  1.00800000E+00  1.00800000E+00
  0.00000000E+00  1.60000000E+01  1.00800000E+00  1.00800000E+00  0.00000000E+00
  1.60000000E+01  1.00800000E+00  1.00800000E+00  0.00000000E+00  1.60000000E+01
  1.00800000E+00  1.00800000E+00  0.00000000E+00  1.60000000E+01  1.00800000E+00
  1.00800000E+00  0.00000000E+00  1.60000000E+01  1.00800000E+00  1.00800000E+00
  0.00000000E+00  1.60000000E+01  1.00800000E+00  1.00800000E+00  0.00000000E+00
  1.60000000E+01  1.00800000E+00  1.00800000E+00  0.00000000E+00  1.60000000E+01
  1.00800000E+00  1.00800000E+00  0.00000000E+00  1.60000000E+01  1.00800000E+00
  1.00800000E+00  0.00000000E+00  1.60000000E+01  1.00800000E+00  1.00800000E+00
  0.00000000E+00  1.60000000E+01  1.00800000E+00  1.00800000E+00  0.00000000E+00
  1.60000000E+01  1.00800000E+00  1.00800000E+00  0.00000000E+00  1.60000000E+01
  1.00800000E+00  1.00800000E+00  0.00000000E+00  1.60000000E+01  1.00800000E+00
  1.00800000E+00  0.00000000E+00  1.60000000E+01  1.00800000E+00  1.00800000E+00
  0.00000000E+00  1.60000000E+01  1.00800000E+00  1.00800000E+00  0.00000000E+00
  1.60000000E+01  1.00800000E+00  1.00800000E+00  0.00000000E+00  1.60000000E+01
  1.00800000E+00  1.00800000E+00  0.00000000E+00  1.60000000E+01  1.00800000E+00
  1.00800000E+00  0.00000000E+00  1.60000000E+01  1.00800000E+00  1.00800000E+00
  0.00000000E+00  1.60000000E+01  1.00800000E+00  1.00800000E+00  0.00000000E+00
  1.60000000E+01  1.00800000E+00  1.00800000E+00  0.00000000E+00  1.60000000E+01
  1.00800000E+00  1.00800000E+00  0.00000000E+00  1.60000000E+01  1.00800000E+00
  1.00800000E+00  0.00000000E+00  1.60000000E+01  1.00800000E+00  1.00800000E+00
  0.00000000E+00  1.60000000E+01  1.00800000E+00  1.00800000E+00  0.00000000E+00
  1.60000000E+01  1.00800000E+00  1.00800000E+00  0.00000000E+00  1.60000000E+01
  1.00800000E+00  1.00800000E+00  0.00000000E+00  1.60000000E+01  1.00800000E+00
  1.00800000E+00  0.00000000E+00  1.60000000E+01  1.00800000E+00  1.00800000E+00
  0.00000000E+00  1.60000000E+01  1.00800000E+00  1.00800000E+00  0.00000000E+00
  1.60000000E+01  1.00800000E+00  1.00800000E+00  0.00000000E+00  1.60000000E+01
  1.00800000E+00  1.00800000E+00  0.00000000E+00  1.60000000E+01  1.00800000E+00
  1.00800000E+00  0.00000000E+00  1.60000000E+01  1.00800000E+00  1.00800000E+00
  0.00000000E+00  1.60000000E+01  1.00800000E+00  1.00800000E+00  0.00000000E+00
  1.60000000E+01  1.00800000E+00  1.00800000E+00  0.00000000E+00  1.60000000E+01
  1.00800000E+00  1.00800000E+00  0.00000000E+00  1.60000000E+01  1.00800000E+00
  1.00800000E+00  0.00000000E+00  1.60000000E+01  1.00800000E+00  1.00800000E+00
  0.00000000E+00  1.60000000E+01  1.00800000E+00  1.00800000E+00  0.00000000E+00
  1.60000000E+01  1.00800000E+00  1.00800000E+00  0.00000000E+00  1.60000000E+01
  1.00800000E+00  1.00800000E+00  0.00000000E+00  1.60000000E+01  1.00800000E+00
  1.00800000E+00  0.00000000E+00  1.60000000E+01  1.00800000E+00  1.00800000E+00
  0.00000000E+00  1.60000000E+01  1.00800000E+00  1.00800000E+00  0.00000000E+00
  1.60000000E+01  1.00800000E+00  1.00800000E+00  0.00000000E+00  1.60000000E+01
  1.00800000E+00  1.00800000E+00  0.00000000E+00  1.60000000E+01  1.00800000E+00
  1.00800000E+00  0.00000000E+00  1.60000000E+01  1.00800000E+00  1.00800000E+00
  0.00000000E+00  1.60000000E+01  1.00800000E+00  1.00800000E+00  0.00000000E+00
  1.60000000E+01  1.00800000E+00  1.00800000E+00  0.00000000E+00  1.60000000E+01
  1.00800000E+00  1.00800000E+00  0.00000000E+00  1.60000000E+01  1.00800000E+00
  1.00800000E+00  0.00000000E+00  1.60000000E+01  1.00800000E+00  1.00800000E+00
  0.00000000E+00  1.60000000E+01  1.00800000E+00  1.00800000E+00  0.00000000E+00
  1.60000000E+01  1.00800000E+00  1.00800000E+00  0.00000000E+00  1.60000000E+01
  1.00800000E+00  1.00800000E+00  0.00000000E+00  1.60000000E+01  1.00800000E+00
  1.00800000E+00  0.00000000E+00  1.60000000E+01  1.00800000E+00  1.00800000E+00
  0.00000000E+00  1.60000000E+01  1.00800000E+00  1.00800000E+00  0.00000000E+00
  1.60000000E+01  1.00800000E+00  1.00800000E+00  0.00000000E+00  1.60000000E+01
  1.00800000E+00  1.00800000E+00  0.00000000E+00  1.60000000E+01  1.00800000E+00
  1.00800000E+00  0.00000000E+00  1.60000000E+01  1.00800000E+00  1.00800000E+00
  0.00000000E+00  1.60000000E+01  1.00800000E+00  1.00800000E+00  0.00000000E+00
  1.60000000E+01  1.00800000E+00  1.00800000E+00  0.00000000E+00  1.60000000E+01
  1.00800000E+00  1.00800000E+00  0.00000000E+00  1.60000000E+01  1.00800000E+00
  1.00800000E+00  0.00000000E+00  1.60000000E+01  1.00800000E+00  1.00800000E+00
  0.00000000E+00  1.60000000E+01  1.00800000E+00  1.00800000E+00  0.00000000E+00
  1.60000000E+01  1.00800000E+00  1.00800000E+00  0.00000000E+00  1.60000000E+01
  1.00800000E+00  1.00800000E+00  0.00000000E+00  1.60000000E+01  1.00800000E+00
  1.00800000E+00  0.00000000E+00  1.60000000E+01  1.00800000E+00  1.00800000E+00
  0.00000000E+00  1.60000000E+01  1.00800000E+00  1.00800000E+00  0.00000000E+00
  1.60000000E+01  1.00800000E+00  1.00800000E+00  0.00000000E+00  1.60000000E+01
  1.00800000E+00  1.00800000E+00  0.00000000E+00  1.60000000E+01  1.00800000E+00
  1.00800000E+00  0.00000000E+00  1.60000000E+01  1.00800000E+00  1.00800000E+00
  0.00000000E+00  1.60000000E+01  1.00800000E+00  1.00800000E+00  0.00000000E+00
  1.60000000E+01  1.00800000E+00  1.00800000E+00  0.00000000E+00  1.60000000E+01
  1.00800000E+00  1.00800000E+00  0.00000000E+00  1.60000000E+01  1.00800000E+00
  1.00800000E+00  0.00000000E+00  1.60000000E+01  1.00800000E+00  1.00800000E+00
  0.00000000E+00  1.60000000E+01  1.00800000E+00  1.00800000E+00  0.00000000E+00
  1.60000000E+01  1.00800000E+00  1.00800000E+00  0.00000000E+00  1.60000000E+01
  1.00800000E+00  1.00800000E+00  0.00000000E+00  1.60000000E+01  1.00800000E+00
  1.00800000E+00  0.00000000E+00  1.60000000E+01  1.00800000E+00  1.00800000E+00
  0.00000000E+00  1.60000000E+01  1.00800000E+00  1.00800000E+00  0.00000000E+00
  1.60000000E+01  1.00800000E+00  1.00800000E+00  0.00000000E+00  1.60000000E+01
  1.00800000E+00  1.00800000E+00  0.00000000E+00  1.60000000E+01  1.00800000E+00
  1.00800000E+00  0.00000000E+00  1.60000000E+01  1.00800000E+00  1.00800000E+00
  0.00000000E+00  1.60000000E+01  1.00800000E+00  1.00800000E+00  0.00000000E+00
  1.60000000E+01  1.00800000E+00  1.00800000E+00  0.00000000E+00  1.60000000E+01
  1.00800000E+00  1.00800000E+00  0.00000000E+00  1.60000000E+01  1.00800000E+00
  1.00800000E+00  0.00000000E+00  1.60000000E+01  1.00800000E+00  1.00800000E+00
  0.00000000E+00  1.60000000E+01  1.00800000E+00  1.00800000E+00  0.00000000E+00
  1.60000000E+01  1.00800000E+00  1.00800000E+00  0.00000000E+00  1.60000000E+01
  1.00800000E+00  1.00800000E+00  0.00000000E+00  1.60000000E+01  1.00800000E+00
  1.00800000E+00  0.00000000E+00  1.60000000E+01  1.00800000E+00  1.00800000E+00
  0.00000000E+00  1.60000000E+01  1.00800000E+00  1.00800000E+00  0.00000000E+00
  1.60000000E+01  1.00800000E+00  1.00800000E+00  0.00000000E+00  1.60000000E+01
  1.00800000E+00  1.00800000E+00  0.00000000E+00  1.60000000E+01  1.00800000E+00
  1.00800000E+00  0.00000000E+00  1.60000000E+01  1.00800000E+00  1.00800000E+00
  0.00000000E+00  1.60000000E+01  1.00800000E+00  1.00800000E+00  0.00000000E+00
  1.60000000E+01  1.00800000E+00  1.00800000E+00  0.00000000E+00  1.60000000E+01
  1.00800000E+00  1.00800000E+00  0.00000000E+00  1.60000000E+01  1.00800000E+00
  1.00800000E+00  0.00000000E+00  1.60000000E+01  1.00800000E+00  1.00800000E+00
  0.00000000E+00  1.60000000E+01  1.00800000E+00  1.00800000E+00  0.00000000E+00
  1.60000000E+01  1.00800000E+00  1.00800000E+00  0.00000000E+00  1.60000000E+01
  1.00800000E+00  1.00800000E+00  0.00000000E+00  1.60000000E+01  1.00800000E+00
  1.00800000E+00  0.00000000E+00  1.60000000E+01  1.00800000E+00  1.00800000E+00
  0.00000000E+00  1.60000000E+01  1.00800000E+00  1.00800000E+00  0.00000000E+00
  1.60000000E+01  1.00800000E+00  1.00800000E+00  0.00000000E+00  1.60000000E+01
  1.00800000E+00  1.00800000E+00  0.00000000E+00  1.60000000E+01  1.00800000E+00
  1.00800000E+00  0.00000000E+00  1.60000000E+01  1.00800000E+00  1.00800000E+00
  0.00000000E+00  1.60000000E+01  1.00800000E+00  1.00800000E+00  0.00000000E+00
  1.60000000E+01  1.00800000E+00  1.00800000E+00  0.00000000E+00  1.60000000E+01
  1.00800000E+00  1.00800000E+00  0.00000000E+00  1.60000000E+01  1.00800000E+00
  1.00800000E+00  0.00000000E+00  1.60000000E+01  1.00800000E+00  1.00800000E+00
  0.00000000E+00  1.60000000E+01  1.00800000E+00  1.00800000E+00  0.00000000E+00
  1.60000000E+01  1.00800000E+00  1.00800000E+00  0.00000000E+00  1.60000000E+01
  1.00800000E+00  1.00800000E+00  0.00000000E+00  1.60000000E+01  1.00800000E+00
  1.00800000E+00  0.00000000E+00  1.60000000E+01  1.00800000E+00  1.00800000E+00
  0.00000000E+00  1.60000000E+01  1.00800000E+00  1.00800000E+00  0.00000000E+00
  1.60000000E+01  1.00800000E+00  1.00800000E+00  0.00000000E+00  1.60000000E+01
  1.00800000E+00  1.00800000E+00  0.00000000E+00  1.60000000E+01  1.00800000E+00
  1.00800000E+00  0.00000000E+00  1.60000000E+01  1.00800000E+00  1.00800000E+00
  0.00000000E+00  1.60000000E+01  1.00800000E+00  1.00800000E+00  0.00000000E+00
  1.60000000E+01  1.00800000E+00  1.00800000E+00  0.00000000E+00  1.60000000E+01
  1.00800000E+00  1.00800000E+00  0.00000000E+00  1.60000000E+01  1.00800000E+00
  1.00800000E+00  0.00000000E+00  1.60000000E+01  1.00800000E+00  1.00800000E+00
  0.00000000E+00  1.60000000E+01  1.00800000E+00  1.00800000E+00  0.00000000E+00
  1.60000000E+01  1.00800000E+00  1.00800000E+00  0.00000000E+00  1.60000000E+01
  1.00800000E+00  1.00800000E+00  0.00000000E+00  1.60000000E+01  1.00800000E+00
  1.00800000E+00  0.00000000E+00  1.60000000E+01  1.00800000E+00  1.00800000E+00
  0.00000000E+00  1.60000000E+01  1.00800000E+00  1.00800000E+00  0.00000000E+00
  1.60000000E+01  1.00800000E+00  1.00800000E+00  0.00000000E+00  1.60000000E+01
  1.00800000E+00  1.00800000E+00  0.00000000E+00  1.60000000E+01  1.00800000E+00
  1.00800000E+00  0.00000000E+00  1.60000000E+01  1.00800000E+00  1.00800000E+00
  0.00000000E+00  1.60000000E+01  1.00800000E+00  1.00800000E+00  0.00000000E+00
  1.60000000E+01  1.00800000E+00  1.00800000E+00  0.00000000E+00  1.60000000E+01
  1.00800000E+00  1.00800000E+00  0.00000000E+00  1.60000000E+01  1.00800000E+00
  1.00800000E+00  0.00000000E+00  1.60000000E+01  1.00800000E+00  1.00800000E+00
  0.00000000E+00  1.60000000E+01  1.00800000E+00  1.00800000E+00  0.00000000E+00
  1.60000000E+01  1.00800000E+00  1.00800000E+00  0.00000000E+00  1.60000000E+01
  1.00800000E+00  1.00800000E+00  0.00000000E+00  1.60000000E+01  1.00800000E+00
  1.00800000E+00  0.00000000E+00  1.60000000E+01  1.00800000E+00  1.00800000E+00
  0.00000000E+00  1.60000000E+01  1.00800000E+00  1.00800000E+00  0.00000000E+00
  1.60000000E+01  1.00800000E+00  1.00800000E+00  0.00000000E+00  1.60000000E+01
  1.00800000E+00  1.00800000E+00  0.00000000E+00  1.60000000E+01  1.00800000E+00
  1.00800000E+00  0.00000000E+00  1.60000000E+01  1.00800000E+00  1.00800000E+00
  0.00000000E+00  1.60000000E+01  1.00800000E+00  1.00800000E+00  0.00000000E+00
  1.60000000E+01  1.00800000E+00  1.00800000E+00  0.00000000E+00  1.60000000E+01
  1.00800000E+00  1.00800000E+00  0.00000000E+00  1.60000000E+01  1.00800000E+00
  1.00800000E+00  0.00000000E+00  1.60000000E+01  1.00800000E+00  1.00800000E+00
  0.00000000E+00  1.60000000E+01  1.00800000E+00  1.00800000E+00  0.00000000E+00
  1.60000000E+01  1.00800000E+00  1.00800000E+00  0.00000000E+00  1.60000000E+01
  1.00800000E+00  1.00800000E+00  0.00000000E+00  1.60000000E+01  1.00800000E+00
  1.00800000E+00  0.00000000E+00  1.60000000E+01  1.00800000E+00  1.00800000E+00
  0.00000000E+00  1.60000000E+01  1.00800000E+00  1.00800000E+00  0.00000000E+00
  1.60000000E+01  1.00800000E+00  1.00800000E+00  0.00000000E+00  1.60000000E+01
  1.00800000E+00  1.00800000E+00  0.00000000E+00  1.60000000E+01  1.00800000E+00
  1.00800000E+00  0.00000000E+00  1.60000000E+01  1.00800000E+00  1.00800000E+00
  0.00000000E+00  1.60000000E+01  1.00800000E+00  1.00800000E+00  0.00000000E+00
  1.60000000E+01  1.00800000E+00  1.00800000E+00  0.00000000E+00  1.60000000E+01
  1.00800000E+00  1.00800000E+00  0.00000000E+00  1.60000000E+01  1.00800000E+00
  1.00800000E+00  0.00000000E+00  1.60000000E+01  1.00800000E+00  1.00800000E+00
  0.00000000E+00  1.60000000E+01  1.00800000E+00  1.00800000E+00  0.00000000E+00
  1.60000000E+01  1.00800000E+00  1.00800000E+00  0.00000000E+00  1.60000000E+01
  1.00800000E+00  1.00800000E+00  0.00000000E+00  1.60000000E+01  1.00800000E+00
  1.00800000E+00  0.00000000E+00  1.60000000E+01  1.00800000E+00  1.00800000E+00
  0.00000000E+00  1.60000000E+01  1.00800000E+00  1.00800000E+00  0.00000000E+00
  1.60000000E+01  1.00800000E+00  1.00800000E+00  0.00000000E+00  1.60000000E+01
  1.00800000E+00  1.00800000E+00  0.00000000E+00  1.60000000E+01  1.00800000E+00
  1.00800000E+00  0.00000000E+00  1.60000000E+01  1.00800000E+00  1.00800000E+00
  0.00000000E+00  1.60000000E+01  1.00800000E+00  1.00800000E+00  0.00000000E+00
  1.60000000E+01  1.00800000E+00  1.00800000E+00  0.00000000E+00  1.60000000E+01
  1.00800000E+00  1.00800000E+00  0.00000000E+00  1.60000000E+01  1.00800000E+00
  1.00800000E+00  0.00000000E+00  1.60000000E+01  1.00800000E+00  1.00800000E+00
  0.00000000E+00  1.60000000E+01  1.00800000E+00  1.00800000E+00  0.00000000E+00
  1.60000000E+01  1.00800000E+00  1.00800000E+00  0.00000000E+00  1.60000000E+01
  1.00800000E+00  1.00800000E+00  0.00000000E+00  1.60000000E+01  1.00800000E+00
  1.00800000E+00  0.00000000E+00  1.60000000E+01  1.00800000E+00  1.00800000E+00
  0.00000000E+00  1.60000000E+01  1.00800000E+00  1.00800000E+00  0.00000000E+00
  1.60000000E+01  1.00800000E+00  1.00800000E+00  0.00000000E+00  1.60000000E+01
  1.00800000E+00  1.00800000E+00  0.00000000E+00  1.60000000E+01  1.00800000E+00
  1.00800000E+00  0.00000000E+00  1.60000000E+01  1.00800000E+00  1.00800000E+00
  0.00000000E+00  1.60000000E+01  1.00800000E+00  1.00800000E+00  0.00000000E+00
  1.60000000E+01  1.00800000E+00  1.00800000E+00  0.00000000E+00  1.60000000E+01
  1.00800000E+00  1.00800000E+00  0.00000000E+00  1.60000000E+01  1.00800000E+00
  1.00800000E+00  0.00000000E+00  1.60000000E+01  1.00800000E+00  1.00800000E+00
  0.00000000E+00  1.60000000E+01  1.00800000E+00  1.00800000E+00  0.00000000E+00
  1.60000000E+01  1.00800000E+00  1.00800000E+00  0.00000000E+00  1.60000000E+01
  1.00800000E+00  1.00800000E+00  0.00000000E+00  1.60000000E+01  1.00800000E+00
  1.00800000E+00  0.00000000E+00  1.60000000E+01  1.00800000E+00  1.00800000E+00
  0.00000000E+00  1.60000000E+01  1.00800000E+00  1.00800000E+00  0.00000000E+00
  1.60000000E+01  1.00800000E+00  1.00800000E+00  0.00000000E+00  1.60000000E+01
  1.00800000E+00  1.00800000E+00  0.00000000E+00  1.60000000E+01  1.00800000E+00
  1.00800000E+00  0.00000000E+00  1.60000000E+01  1.00800000E+00  1.00800000E+00
  0.00000000E+00  1.60000000E+01  1.00800000E+00  1.00800000E+00  0.00000000E+00
  1.60000000E+01  1.00800000E+00  1.00800000E+00  0.00000000E+00  1.60000000E+01
  1.00800000E+00  1.00800000E+00  0.00000000E+00  1.60000000E+01  1.00800000E+00
  1.00800000E+00  0.00000000E+00  1.60000000E+01  1.00800000E+00  1.00800000E+00
  0.00000000E+00  1.60000000E+01  1.00800000E+00  1.00800000E+00  0.00000000E+00
  1.60000000E+01  1.00800000E+00  1.00800000E+00  0.00000000E+00  1.60000000E+01
  1.00800000E+00  1.00800000E+00  0.00000000E+00  1.60000000E+01  1.00800000E+00
  1.00800000E+00  0.00000000E+00  1.60000000E+01  1.00800000E+00  1.00800000E+00
  0.00000000E+00  1.60000000E+01  1.00800000E+00  1.00800000E+00  0.00000000E+00
  1.60000000E+01  1.00800000E+00  1.00800000E+00  0.00000000E+00  1.60000000E+01
  1.00800000E+00  1.00800000E+00  0.00000000E+00  1.60000000E+01  1.00800000E+00
  1.00800000E+00  0.00000000E+00  1.60000000E+01  1.00800000E+00  1.00800000E+00
  0.00000000E+00  1.60000000E+01  1.00800000E+00  1.00800000E+00  0.00000000E+00
  1.60000000E+01  1.00800000E+00  1.00800000E+00  0.00000000E+00  1.60000000E+01
  1.00800000E+00  1.00800000E+00  0.00000000E+00  1.60000000E+01  1.00800000E+00
  1.00800000E+00  0.00000000E+00  1.60000000E+01  1.00800000E+00  1.00800000E+00
  0.00000000E+00  1.60000000E+01  1.00800000E+00  1.00800000E+00  0.00000000E+00
  1.60000000E+01  1.00800000E+00  1.00800000E+00  0.00000000E+00  1.60000000E+01
  1.00800000E+00  1.00800000E+00  0.00000000E+00  1.60000000E+01  1.00800000E+00
  1.00800000E+00  0.00000000E+00  1.60000000E+01  1.00800000E+00  1.00800000E+00
  0.00000000E+00  1.60000000E+01  1.00800000E+00  1.00800000E+00  0.00000000E+00
  1.60000000E+01  1.00800000E+00  1.00800000E+00  0.00000000E+00  1.60000000E+01
  1.00800000E+00  1.00800000E+00  0.00000000E+00  1.60000000E+01  1.00800000E+00
  1.00800000E+00  0.00000000E+00  1.60000000E+01  1.00800000E+00  1.00800000E+00
  0.00000000E+00  1.60000000E+01  1.00800000E+00  1.00800000E+00  0.00000000E+00
  1.60000000E+01  1.00800000E+00  1.00800000E+00  0.00000000E+00  1.60000000E+01
  1.00800000E+00  1.00800000E+00  0.00000000E+00  1.60000000E+01  1.00800000E+00
  1.00800000E+00  0.00000000E+00  1.60000000E+01  1.00800000E+00  1.00800000E+00
  0.00000000E+00  1.60000000E+01  1.00800000E+00  1.00800000E+00  0.00000000E+00
  1.60000000E+01  1.00800000E+00  1.00800000E+00  0.00000000E+00  1.60000000E+01
  1.00800000E+00  1.00800000E+00  0.00000000E+00  1.60000000E+01  1.00800000E+00
  1.00800000E+00  0.00000000E+00  1.60000000E+01  1.00800000E+00  1.00800000E+00
  0.00000000E+00  1.60000000E+01  1.00800000E+00  1.00800000E+00  0.00000000E+00
  1.60000000E+01  1.00800000E+00  1.00800000E+00  0.00000000E+00  1.60000000E+01
  1.00800000E+00  1.00800000E+00  0.00000000E+00  1.60000000E+01  1.00800000E+00
  1.00800000E+00  0.00000000E+00  1.60000000E+01  1.00800000E+00  1.00800000E+00
  0.00000000E+00  1.60000000E+01  1.00800000E+00  1.00800000E+00  0.00000000E+00
  1.60000000E+01  1.00800000E+00  1.00800000E+00  0.00000000E+00  1.60000000E+01
  1.00800000E+00  1.00800000E+00  0.00000000E+00  1.60000000E+01  1.00800000E+00
  1.00800000E+00  0.00000000E+00  1.60000000E+01  1.00800000E+00  1.00800000E+00
  0.00000000E+00  1.60000000E+01  1.00800000E+00  1.00800000E+00  0.00000000E+00
  1.60000000E+01  1.00800000E+00  1.00800000E+00  0.00000000E+00  1.60000000E+01
  1.00800000E+00  1.00800000E+00  0.00000000E+00  1.60000000E+01  1.00800000E+00
  1.00800000E+00  0.00000000E+00  1.60000000E+01  1.00800000E+00  1.00800000E+00
  0.00000000E+00  1.60000000E+01  1.00800000E+00  1.00800000E+00  0.00000000E+00
  1.60000000E+01  1.00800000E+00  1.00800000E+00  0.00000000E+00  1.60000000E+01
  1.00800000E+00  1.00800000E+00  0.00000000E+00  1.60000000E+01  1.00800000E+00
  1.00800000E+00  0.00000000E+00  1.60000000E+01  1.00800000E+00  1.00800000E+00
  0.00000000E+00  1.60000000E+01  1.00800000E+00  1.00800000E+00  0.00000000E+00
  1.60000000E+01  1.00800000E+00  1.00800000E+00  0.00000000E+00  1.60000000E+01
  1.00800000E+00  1.00800000E+00  0.00000000E+00  1.60000000E+01  1.00800000E+00
  1.00800000E+00  0.00000000E+00  1.60000000E+01  1.00800000E+00  1.00800000E+00
  0.00000000E+00  1.60000000E+01  1.00800000E+00  1.00800000E+00  0.00000000E+00
  1.60000000E+01  1.00800000E+00  1.00800000E+00  0.00000000E+00  1.60000000E+01
  1.00800000E+00  1.00800000E+00  0.00000000E+00  1.60000000E+01  1.00800000E+00
  1.00800000E+00  0.00000000E+00  1.60000000E+01  1.00800000E+00  1.00800000E+00
  0.00000000E+00  1.60000000E+01  1.00800000E+00  1.00800000E+00  0.00000000E+00
  1.60000000E+01  1.00800000E+00  1.00800000E+00  0.00000000E+00  1.60000000E+01
  1.00800000E+00  1.00800000E+00  0.00000000E+00  1.60000000E+01  1.00800000E+00
  1.00800000E+00  0.00000000E+00  1.60000000E+01  1.00800000E+00  1.00800000E+00
  0.00000000E+00  1.60000000E+01  1.00800000E+00  1.00800000E+00  0.00000000E+00
  1.60000000E+01  1.00800000E+00  1.00800000E+00  0.00000000E+00  1.60000000E+01
  1.00800000E+00  1.00800000E+00  0.00000000E+00  1.60000000E+01  1.00800000E+00
  1.00800000E+00  0.00000000E+00  1.60000000E+01  1.00800000E+00  1.00800000E+00
  0.00000000E+00  1.60000000E+01  1.00800000E+00  1.00800000E+00  0.00000000E+00
  1.60000000E+01  1.00800000E+00  1.00800000E+00  0.00000000E+00  1.60000000E+01
  1.00800000E+00  1.00800000E+00  0.00000000E+00  1.60000000E+01  1.00800000E+00
  1.00800000E+00  0.00000000E+00  1.60000000E+01  1.00800000E+00  1.00800000E+00
  0.00000000E+00  1.60000000E+01  1.00800000E+00  1.00800000E+00  0.00000000E+00
  1.60000000E+01  1.00800000E+00  1.00800000E+00  0.00000000E+00  1.60000000E+01
  1.00800000E+00  1.00800000E+00  0.00000000E+00  1.60000000E+01  1.00800000E+00
  1.00800000E+00  0.00000000E+00  1.60000000E+01  1.00800000E+00  1.00800000E+00
  0.00000000E+00  1.60000000E+01  1.00800000E+00  1.00800000E+00  0.00000000E+00
  1.60000000E+01  1.00800000E+00  1.00800000E+00  0.00000000E+00  1.60000000E+01
  1.00800000E+00  1.00800000E+00  0.00000000E+00  1.60000000E+01  1.00800000E+00
  1.00800000E+00  0.00000000E+00  1.60000000E+01  1.00800000E+00  1.00800000E+00
  0.00000000E+00  1.60000000E+01  1.00800000E+00  1.00800000E+00  0.00000000E+00
  1.60000000E+01  1.00800000E+00  1.00800000E+00  0.00000000E+00  1.60000000E+01
  1.00800000E+00  1.00800000E+00  0.00000000E+00  1.60000000E+01  1.00800000E+00
  1.00800000E+00  0.00000000E+00  1.60000000E+01  1.00800000E+00  1.00800000E+00
  0.00000000E+00  1.60000000E+01  1.00800000E+00  1.00800000E+00  0.00000000E+00
  1.60000000E+01  1.00800000E+00  1.00800000E+00  0.00000000E+00  1.60000000E+01
  1.00800000E+00  1.00800000E+00  0.00000000E+00  1.60000000E+01  1.00800000E+00
  1.00800000E+00  0.00000000E+00  1.60000000E+01  1.00800000E+00  1.00800000E+00
  0.00000000E+00  1.60000000E+01  1.00800000E+00  1.00800000E+00  0.00000000E+00
  1.60000000E+01  1.00800000E+00  1.00800000E+00  0.00000000E+00  1.60000000E+01
  1.00800000E+00  1.00800000E+00  0.00000000E+00  1.60000000E+01  1.00800000E+00
  1.00800000E+00  0.00000000E+00  1.60000000E+01  1.00800000E+00  1.00800000E+00
  0.00000000E+00  1.60000000E+01  1.00800000E+00  1.00800000E+00  0.00000000E+00
  1.60000000E+01  1.00800000E+00  1.00800000E+00  0.00000000E+00  1.60000000E+01
  1.00800000E+00  1.00800000E+00  0.00000000E+00  1.60000000E+01  1.00800000E+00
  1.00800000E+00  0.00000000E+00  1.60000000E+01  1.00800000E+00  1.00800000E+00
  0.00000000E+00  1.60000000E+01  1.00800000E+00  1.00800000E+00  0.00000000E+00
  1.60000000E+01  1.00800000E+00  1.00800000E+00  0.00000000E+00  1.60000000E+01
  1.00800000E+00  1.00800000E+00  0.00000000E+00  1.60000000E+01  1.00800000E+00
  1.00800000E+00  0.00000000E+00  1.60000000E+01  1.00800000E+00  1.00800000E+00
  0.00000000E+00  1.60000000E+01  1.00800000E+00  1.00800000E+00  0.00000000E+00
  1.60000000E+01  1.00800000E+00  1.00800000E+00  0.00000000E+00  1.60000000E+01
  1.00800000E+00  1.00800000E+00  0.00000000E+00  1.60000000E+01  1.00800000E+00
  1.00800000E+00  0.00000000E+00  1.60000000E+01  1.00800000E+00  1.00800000E+00
  0.00000000E+00  1.60000000E+01  1.00800000E+00  1.00800000E+00  0.00000000E+00
  1.60000000E+01  1.00800000E+00  1.00800000E+00  0.00000000E+00  1.60000000E+01
  1.00800000E+00  1.00800000E+00  0.00000000E+00  1.60000000E+01  1.00800000E+00
  1.00800000E+00  0.00000000E+00  1.60000000E+01  1.00800000E+00  1.00800000E+00
  0.00000000E+00  1.60000000E+01  1.00800000E+00  1.00800000E+00  0.00000000E+00
  1.60000000E+01  1.00800000E+00  1.00800000E+00  0.00000000E+00  1.60000000E+01
  1.00800000E+00  1.00800000E+00  0.00000000E+00  1.60000000E+01  1.00800000E+00
  1.00800000E+00  0.00000000E+00  1.60000000E+01  1.00800000E+00  1.00800000E+00
  0.00000000E+00  1.60000000E+01  1.00800000E+00  1.00800000E+00  0.00000000E+00
  1.60000000E+01  1.00800000E+00  1.00800000E+00  0.00000000E+00  1.60000000E+01
  1.00800000E+00  1.00800000E+00  0.00000000E+00  1.60000000E+01  1.00800000E+00
  1.00800000E+00  0.00000000E+00  1.60000000E+01  1.00800000E+00  1.00800000E+00
  0.00000000E+00  1.60000000E+01  1.00800000E+00  1.00800000E+00  0.00000000E+00
  1.60000000E+01  1.00800000E+00  1.00800000E+00  0.00000000E+00  1.60000000E+01
  1.00800000E+00  1.00800000E+00  0.00000000E+00  1.60000000E+01  1.00800000E+00
  1.00800000E+00  0.00000000E+00  1.60000000E+01  1.00800000E+00  1.00800000E+00
  0.00000000E+00  1.60000000E+01  1.00800000E+00  1.00800000E+00  0.00000000E+00
  1.60000000E+01  1.00800000E+00  1.00800000E+00  0.00000000E+00  1.60000000E+01
  1.00800000E+00  1.00800000E+00  0.00000000E+00  1.60000000E+01  1.00800000E+00
  1.00800000E+00  0.00000000E+00  1.60000000E+01  1.00800000E+00  1.00800000E+00
  0.00000000E+00  1.60000000E+01  1.00800000E+00  1.00800000E+00  0.00000000E+00
  1.60000000E+01  1.00800000E+00  1.00800000E+00  0.00000000E+00  1.60000000E+01
  1.00800000E+00  1.00800000E+00  0.00000000E+00  1.60000000E+01  1.00800000E+00
  1.00800000E+00  0.00000000E+00  1.60000000E+01  1.00800000E+00  1.00800000E+00
  0.00000000E+00  1.60000000E+01  1.00800000E+00  1.00800000E+00  0.00000000E+00
  1.60000000E+01  1.00800000E+00  1.00800000E+00  0.00000000E+00  1.60000000E+01
  1.00800000E+00  1.00800000E+00  0.00000000E+00  1.60000000E+01  1.00800000E+00
  1.00800000E+00  0.00000000E+00  1.60000000E+01  1.00800000E+00  1.00800000E+00
  0.00000000E+00  1.60000000E+01  1.00800000E+00  1.00800000E+00  0.00000000E+00
  1.60000000E+01  1.00800000E+00  1.00800000E+00  0.00000000E+00  1.60000000E+01
  1.00800000E+00  1.00800000E+00  0.00000000E+00  1.60000000E+01  1.00800000E+00
  1.00800000E+00  0.00000000E+00  1.60000000E+01  1.00800000E+00  1.00800000E+00
  0.00000000E+00  1.60000000E+01  1.00800000E+00  1.00800000E+00  0.00000000E+00
  1.60000000E+01  1.00800000E+00  1.00800000E+00  0.00000000E+00  1.60000000E+01
  1.00800000E+00  1.00800000E+00  0.00000000E+00  1.60000000E+01  1.00800000E+00
  1.00800000E+00  0.00000000E+00  1.60000000E+01  1.00800000E+00  1.00800000E+00
  0.00000000E+00  1.60000000E+01  1.00800000E+00  1.00800000E+00  0.00000000E+00
  1.60000000E+01  1.00800000E+00  1.00800000E+00  0.00000000E+00  1.60000000E+01
  1.00800000E+00  1.00800000E+00  0.00000000E+00  1.60000000E+01  1.00800000E+00
  1.00800000E+00  0.00000000E+00  1.60000000E+01  1.00800000E+00  1.00800000E+00
  0.00000000E+00  1.60000000E+01  1.00800000E+00  1.00800000E+00  0.00000000E+00
  1.60000000E+01  1.00800000E+00  1.00800000E+00  0.00000000E+00  1.60000000E+01
  1.00800000E+00  1.00800000E+00  0.00000000E+00  1.60000000E+01  1.00800000E+00
  1.00800000E+00  0.00000000E+00  1.60000000E+01  1.00800000E+00  1.00800000E+00
  0.00000000E+00  1.60000000E+01  1.00800000E+00  1.00800000E+00  0.00000000E+00
  1.60000000E+01  1.00800000E+00  1.00800000E+00  0.00000000E+00  1.60000000E+01
  1.00800000E+00  1.00800000E+00  0.00000000E+00  1.60000000E+01  1.00800000E+00
  1.00800000E+00  0.00000000E+00  1.60000000E+01  1.00800000E+00  1.00800000E+00
  0.00000000E+00  1.60000000E+01  1.00800000E+00  1.00800000E+00  0.00000000E+00
  1.60000000E+01  1.00800000E+00  1.00800000E+00  0.00000000E+00  1.60000000E+01
  1.00800000E+00  1.00800000E+00  0.00000000E+00  1.60000000E+01  1.00800000E+00
  1.00800000E+00  0.00000000E+00  1.60000000E+01  1.00800000E+00  1.00800000E+00
  0.00000000E+00  1.60000000E+01  1.00800000E+00  1.00800000E+00  0.00000000E+00
  1.60000000E+01  1.00800000E+00  1.00800000E+00  0.00000000E+00  1.60000000E+01
  1.00800000E+00  1.00800000E+00  0.00000000E+00  1.60000000E+01  1.00800000E+00
  1.00800000E+00  0.00000000E+00  1.60000000E+01  1.00800000E+00  1.00800000E+00
  0.00000000E+00  1.60000000E+01  1.00800000E+00  1.00800000E+00  0.00000000E+00
  1.60000000E+01  1.00800000E+00  1.00800000E+00  0.00000000E+00  1.60000000E+01
  1.00800000E+00  1.00800000E+00  0.00000000E+00  1.60000000E+01  1.00800000E+00
  1.00800000E+00  0.00000000E+00  1.60000000E+01  1.00800000E+00  1.00800000E+00
  0.00000000E+00  1.60000000E+01  1.00800000E+00  1.00800000E+00  0.00000000E+00
  1.60000000E+01  1.00800000E+00  1.00800000E+00  0.00000000E+00  1.60000000E+01
  1.00800000E+00  1.00800000E+00  0.00000000E+00  1.60000000E+01  1.00800000E+00
  1.00800000E+00  0.00000000E+00  1.60000000E+01  1.00800000E+00  1.00800000E+00
  0.00000000E+00  1.60000000E+01  1.00800000E+00  1.00800000E+00  0.00000000E+00
  1.60000000E+01  1.00800000E+00  1.00800000E+00  0.00000000E+00  1.60000000E+01
  1.00800000E+00  1.00800000E+00  0.00000000E+00  1.60000000E+01  1.00800000E+00
  1.00800000E+00  0.00000000E+00  1.60000000E+01  1.00800000E+00  1.00800000E+00
  0.00000000E+00  1.60000000E+01  1.00800000E+00  1.00800000E+00  0.00000000E+00
  1.60000000E+01  1.00800000E+00  1.00800000E+00  0.00000000E+00  1.60000000E+01
  1.00800000E+00  1.00800000E+00  0.00000000E+00  1.60000000E+01  1.00800000E+00
  1.00800000E+00  0.00000000E+00  1.60000000E+01  1.00800000E+00  1.00800000E+00
  0.00000000E+00  1.60000000E+01  1.00800000E+00  1.00800000E+00  0.00000000E+00
  1.60000000E+01  1.00800000E+00  1.00800000E+00  0.00000000E+00  1.60000000E+01
  1.00800000E+00  1.00800000E+00  0.00000000E+00  1.60000000E+01  1.00800000E+00
  1.00800000E+00  0.00000000E+00  1.60000000E+01  1.00800000E+00  1.00800000E+00
  0.00000000E+00  1.60000000E+01  1.00800000E+00  1.00800000E+00  0.00000000E+00
  1.60000000E+01  1.00800000E+00  1.00800000E+00  0.00000000E+00  1.60000000E+01
  1.00800000E+00  1.00800000E+00  0.00000000E+00  1.60000000E+01  1.00800000E+00
  1.00800000E+00  0.00000000E+00  1.60000000E+01  1.00800000E+00  1.00800000E+00
  0.00000000E+00  1.60000000E+01  1.00800000E+00  1.00800000E+00  0.00000000E+00
  1.60000000E+01  1.00800000E+00  1.00800000E+00  0.00000000E+00  1.60000000E+01
  1.00800000E+00  1.00800000E+00  0.00000000E+00  1.60000000E+01  1.00800000E+00
  1.00800000E+00  0.00000000E+00  1.60000000E+01  1.00800000E+00  1.00800000E+00
  0.00000000E+00  1.60000000E+01  1.00800000E+00  1.00800000E+00  0.00000000E+00
  1.60000000E+01  1.00800000E+00  1.00800000E+00  0.00000000E+00  1.60000000E+01
  1.00800000E+00  1.00800000E+00  0.00000000E+00  1.60000000E+01  1.00800000E+00
  1.00800000E+00  0.00000000E+00  1.60000000E+01  1.00800000E+00  1.00800000E+00
  0.00000000E+00  1.60000000E+01  1.00800000E+00  1.00800000E+00  0.00000000E+00
  1.60000000E+01  1.00800000E+00  1.00800000E+00  0.00000000E+00  1.60000000E+01
  1.00800000E+00  1.00800000E+00  0.00000000E+00  1.60000000E+01  1.00800000E+00
  1.00800000E+00  0.00000000E+00  1.60000000E+01  1.00800000E+00  1.00800000E+00
  0.00000000E+00  1.60000000E+01  1.00800000E+00  1.00800000E+00  0.00000000E+00
  1.60000000E+01  1.00800000E+00  1.00800000E+00  0.00000000E+00  1.60000000E+01
  1.00800000E+00  1.00800000E+00  0.00000000E+00  1.60000000E+01  1.00800000E+00
  1.00800000E+00  0.00000000E+00  1.60000000E+01  1.00800000E+00  1.00800000E+00
  0.00000000E+00  1.60000000E+01  1.00800000E+00  1.00800000E+00  0.00000000E+00
  1.60000000E+01  1.00800000E+00  1.00800000E+00  0.00000000E+00  1.60000000E+01
  1.00800000E+00  1.00800000E+00  0.00000000E+00  1.60000000E+01  1.00800000E+00
  1.00800000E+00  0.00000000E+00  1.60000000E+01  1.00800000E+00  1.00800000E+00
  0.00000000E+00  1.60000000E+01  1.00800000E+00  1.00800000E+00  0.00000000E+00
  1.60000000E+01  1.00800000E+00  1.00800000E+00  0.00000000E+00  1.60000000E+01
  1.00800000E+00  1.00800000E+00  0.00000000E+00  1.60000000E+01  1.00800000E+00
  1.00800000E+00  0.00000000E+00  1.60000000E+01  1.00800000E+00  1.00800000E+00
  0.00000000E+00  1.60000000E+01  1.00800000E+00  1.00800000E+00  0.00000000E+00
  1.60000000E+01  1.00800000E+00  1.00800000E+00  0.00000000E+00  1.60000000E+01
  1.00800000E+00  1.00800000E+00  0.00000000E+00  1.60000000E+01  1.00800000E+00
  1.00800000E+00  0.00000000E+00  1.60000000E+01  1.00800000E+00  1.00800000E+00
  0.00000000E+00  1.60000000E+01  1.00800000E+00  1.00800000E+00  0.00000000E+00
  1.60000000E+01  1.00800000E+00  1.00800000E+00  0.00000000E+00  1.60000000E+01
  1.00800000E+00  1.00800000E+00  0.00000000E+00  1.60000000E+01  1.00800000E+00
  1.00800000E+00  0.00000000E+00  1.60000000E+01  1.00800000E+00  1.00800000E+00
  0.00000000E+00  1.60000000E+01  1.00800000E+00  1.00800000E+00  0.00000000E+00
  1.60000000E+01  1.00800000E+00  1.00800000E+00  0.00000000E+00  1.60000000E+01
  1.00800000E+00  1.00800000E+00  0.00000000E+00  1.60000000E+01  1.00800000E+00
  1.00800000E+00  0.00000000E+00  1.60000000E+01  1.00800000E+00  1.00800000E+00
  0.00000000E+00  1.60000000E+01  1.00800000E+00  1.00800000E+00  0.00000000E+00
  1.60000000E+01  1.00800000E+00  1.00800000E+00  0.00000000E+00  1.60000000E+01
  1.00800000E+00  1.00800000E+00  0.00000000E+00  1.60000000E+01  1.00800000E+00
  1.00800000E+00  0.00000000E+00  1.60000000E+01  1.00800000E+00  1.00800000E+00
  0.00000000E+00  1.60000000E+01  1.00800000E+00  1.00800000E+00  0.00000000E+00
  1.60000000E+01  1.00800000E+00  1.00800000E+00  0.00000000E+00  1.60000000E+01
  1.00800000E+00  1.00800000E+00  0.00000000E+00  1.60000000E+01  1.00800000E+00
  1.00800000E+00  0.00000000E+00  1.60000000E+01  1.00800000E+00  1.00800000E+00
  0.00000000E+00  1.60000000E+01  1.00800000E+00  1.00800000E+00  0.00000000E+00
  1.60000000E+01  1.00800000E+00  1.00800000E+00  0.00000000E+00  1.60000000E+01
  1.00800000E+00  1.00800000E+00  0.00000000E+00  1.60000000E+01  1.00800000E+00
  1.00800000E+00  0.00000000E+00  1.60000000E+01  1.00800000E+00  1.00800000E+00
  0.00000000E+00  1.60000000E+01  1.00800000E+00  1.00800000E+00  0.00000000E+00
  1.60000000E+01  1.00800000E+00  1.00800000E+00  0.00000000E+00  1.60000000E+01
  1.00800000E+00  1.00800000E+00  0.00000000E+00  1.60000000E+01  1.00800000E+00
  1.00800000E+00  0.00000000E+00  1.60000000E+01  1.00800000E+00  1.00800000E+00
  0.00000000E+00  1.60000000E+01  1.00800000E+00  1.00800000E+00  0.00000000E+00
  1.60000000E+01  1.00800000E+00  1.00800000E+00  0.00000000E+00  1.60000000E+01
  1.00800000E+00  1.00800000E+00  0.00000000E+00  1.60000000E+01  1.00800000E+00
  1.00800000E+00  0.00000000E+00  1.60000000E+01  1.00800000E+00  1.00800000E+00
  0.00000000E+00  1.60000000E+01  1.00800000E+00  1.00800000E+00  0.00000000E+00
  1.60000000E+01  1.00800000E+00  1.00800000E+00  0.00000000E+00  1.60000000E+01
  1.00800000E+00  1.00800000E+00  0.00000000E+00  1.60000000E+01  1.00800000E+00
  1.00800000E+00  0.00000000E+00  1.60000000E+01  1.00800000E+00  1.00800000E+00
  0.00000000E+00  1.60000000E+01  1.00800000E+00  1.00800000E+00  0.00000000E+00
  1.60000000E+01  1.00800000E+00  1.00800000E+00  0.00000000E+00  1.60000000E+01
  1.00800000E+00  1.00800000E+00  0.00000000E+00  1.60000000E+01  1.00800000E+00
  1.00800000E+00  0.00000000E+00  1.60000000E+01  1.00800000E+00  1.00800000E+00
  0.00000000E+00  1.60000000E+01  1.00800000E+00  1.00800000E+00  0.00000000E+00
  1.60000000E+01  1.00800000E+00  1.00800000E+00  0.00000000E+00  1.60000000E+01
  1.00800000E+00  1.00800000E+00  0.00000000E+00  1.60000000E+01  1.00800000E+00
  1.00800000E+00  0.00000000E+00  1.60000000E+01  1.00800000E+00  1.00800000E+00
  0.00000000E+00  1.60000000E+01  1.00800000E+00  1.00800000E+00  0.00000000E+00
  1.60000000E+01  1.00800000E+00  1.00800000E+00  0.00000000E+00  1.60000000E+01
  1.00800000E+00  1.00800000E+00  0.00000000E+00  1.60000000E+01  1.00800000E+00
  1.00800000E+00  0.00000000E+00  1.60000000E+01  1.00800000E+00  1.00800000E+00
  0.00000000E+00  1.60000000E+01  1.00800000E+00  1.00800000E+00  0.00000000E+00
  1.60000000E+01  1.00800000E+00  1.00800000E+00  0.00000000E+00  1.60000000E+01
  1.00800000E+00  1.00800000E+00  0.00000000E+00  1.60000000E+01  1.00800000E+00
  1.00800000E+00  0.00000000E+00  1.60000000E+01  1.00800000E+00  1.00800000E+00
  0.00000000E+00  1.60000000E+01  1.00800000E+00  1.00800000E+00  0.00000000E+00
  1.60000000E+01  1.00800000E+00  1.00800000E+00  0.00000000E+00  1.60000000E+01
  1.00800000E+00  1.00800000E+00  0.00000000E+00  1.60000000E+01  1.00800000E+00
  1.00800000E+00  0.00000000E+00  1.60000000E+01  1.00800000E+00  1.00800000E+00
  0.00000000E+00  1.60000000E+01  1.00800000E+00  1.00800000E+00  0.00000000E+00
  1.60000000E+01  1.00800000E+00  1.00800000E+00  0.00000000E+00  1.60000000E+01
  1.00800000E+00  1.00800000E+00  0.00000000E+00  1.60000000E+01  1.00800000E+00
  1.00800000E+00  0.00000000E+00  1.60000000E+01  1.00800000E+00  1.00800000E+00
  0.00000000E+00  1.60000000E+01  1.00800000E+00  1.00800000E+00  0.00000000E+00
  1.60000000E+01  1.00800000E+00  1.00800000E+00  0.00000000E+00  1.60000000E+01
  1.00800000E+00  1.00800000E+00  0.00000000E+00  1.60000000E+01  1.00800000E+00
  1.00800000E+00  0.00000000E+00  1.60000000E+01  1.00800000E+00  1.00800000E+00
  0.00000000E+00  1.60000000E+01  1.00800000E+00  1.00800000E+00  0.00000000E+00
  1.60000000E+01  1.00800000E+00  1.00800000E+00  0.00000000E+00  1.60000000E+01
  1.00800000E+00  1.00800000E+00  0.00000000E+00  1.60000000E+01  1.00800000E+00
  1.00800000E+00  0.00000000E+00  1.60000000E+01  1.00800000E+00  1.00800000E+00
  0.00000000E+00  1.60000000E+01  1.00800000E+00  1.00800000E+00  0.00000000E+00
  1.60000000E+01  1.00800000E+00  1.00800000E+00  0.00000000E+00  1.60000000E+01
  1.00800000E+00  1.00800000E+00  0.00000000E+00  1.60000000E+01  1.00800000E+00
  1.00800000E+00  0.00000000E+00  1.60000000E+01  1.00800000E+00  1.00800000E+00
  0.00000000E+00  1.60000000E+01  1.00800000E+00  1.00800000E+00  0.00000000E+00
  1.60000000E+01  1.00800000E+00  1.00800000E+00  0.00000000E+00  1.60000000E+01
  1.00800000E+00  1.00800000E+00  0.00000000E+00  1.60000000E+01  1.00800000E+00
  1.00800000E+00  0.00000000E+00  1.60000000E+01  1.00800000E+00  1.00800000E+00
  0.00000000E+00  1.60000000E+01  1.00800000E+00  1.00800000E+00  0.00000000E+00
  1.60000000E+01  1.00800000E+00  1.00800000E+00  0.00000000E+00  1.60000000E+01
  1.00800000E+00  1.00800000E+00  0.00000000E+00  1.60000000E+01  1.00800000E+00
  1.00800000E+00  0.00000000E+00  1.60000000E+01  1.00800000E+00  1.00800000E+00
  0.00000000E+00  1.60000000E+01  1.00800000E+00  1.00800000E+00  0.00000000E+00
  1.60000000E+01  1.00800000E+00  1.00800000E+00  0.00000000E+00  1.60000000E+01
  1.00800000E+00  1.00800000E+00  0.00000000E+00  1.60000000E+01  1.00800000E+00
  1.00800000E+00  0.00000000E+00  1.60000000E+01  1.00800000E+00  1.00800000E+00
  0.00000000E+00  1.60000000E+01  1.00800000E+00  1.00800000E+00  0.00000000E+00
  1.60000000E+01  1.00800000E+00  1.00800000E+00  0.00000000E+00  1.60000000E+01
  1.00800000E+00  1.00800000E+00  0.00000000E+00  1.60000000E+01  1.00800000E+00
  1.00800000E+00  0.00000000E+00  1.60000000E+01  1.00800000E+00  1.00800000E+00
  0.00000000E+00  1.60000000E+01  1.00800000E+00  1.00800000E+00  0.00000000E+00
  1.60000000E+01  1.00800000E+00  1.00800000E+00  0.00000000E+00  1.60000000E+01
  1.00800000E+00  1.00800000E+00  0.00000000E+00  1.60000000E+01  1.00800000E+00
  1.00800000E+00  0.00000000E+00  1.60000000E+01  1.00800000E+00  1.00800000E+00
  0.00000000E+00  1.60000000E+01  1.00800000E+00  1.00800000E+00  0.00000000E+00
  1.60000000E+01  1.00800000E+00  1.00800000E+00  0.00000000E+00  1.60000000E+01
  1.00800000E+00  1.00800000E+00  0.00000000E+00  1.60000000E+01  1.00800000E+00
  1.00800000E+00  0.00000000E+00  1.60000000E+01  1.00800000E+00  1.00800000E+00
  0.00000000E+00  1.60000000E+01  1.00800000E+00  1.00800000E+00  0.00000000E+00
  1.60000000E+01  1.00800000E+00  1.00800000E+00  0.00000000E+00  1.60000000E+01
  1.00800000E+00  1.00800000E+00  0.00000000E+00  1.60000000E+01  1.00800000E+00
  1.00800000E+00  0.00000000E+00  1.60000000E+01  1.00800000E+00  1.00800000E+00
  0.00000000E+00  1.60000000E+01  1.00800000E+00  1.00800000E+00  0.00000000E+00
  1.60000000E+01  1.00800000E+00  1.00800000E+00  0.00000000E+00  1.60000000E+01
  1.00800000E+00  1.00800000E+00  0.00000000E+00  1.60000000E+01  1.00800000E+00
  1.00800000E+00  0.00000000E+00  1.60000000E+01  1.00800000E+00  1.00800000E+00
  0.00000000E+00  1.60000000E+01  1.00800000E+00  1.00800000E+00  0.00000000E+00
  1.60000000E+01  1.00800000E+00  1.00800000E+00  0.00000000E+00  1.60000000E+01
  1.00800000E+00  1.00800000E+00  0.00000000E+00  1.60000000E+01  1.00800000E+00
  1.00800000E+00  0.00000000E+00  1.60000000E+01  1.00800000E+00  1.00800000E+00
  0.00000000E+00  1.60000000E+01  1.00800000E+00  1.00800000E+00  0.00000000E+00
  1.60000000E+01  1.00800000E+00  1.00800000E+00  0.00000000E+00  1.60000000E+01
  1.00800000E+00  1.00800000E+00  0.00000000E+00  1.60000000E+01  1.00800000E+00
  1.00800000E+00  0.00000000E+00  1.60000000E+01  1.00800000E+00  1.00800000E+00
  0.00000000E+00  1.60000000E+01  1.00800000E+00  1.00800000E+00  0.00000000E+00
  1.60000000E+01  1.00800000E+00  1.00800000E+00  0.00000000E+00  1.60000000E+01
  1.00800000E+00  1.00800000E+00  0.00000000E+00  1.60000000E+01  1.00800000E+00
  1.00800000E+00  0.00000000E+00  1.60000000E+01  1.00800000E+00  1.00800000E+00
  0.00000000E+00  1.60000000E+01  1.00800000E+00  1.00800000E+00  0.00000000E+00
  1.60000000E+01  1.00800000E+00  1.00800000E+00  0.00000000E+00  1.60000000E+01
  1.00800000E+00  1.00800000E+00  0.00000000E+00  1.60000000E+01  1.00800000E+00
  1.00800000E+00  0.00000000E+00  1.60000000E+01  1.00800000E+00  1.00800000E+00
  0.00000000E+00  1.60000000E+01  1.00800000E+00  1.00800000E+00  0.00000000E+00
  1.60000000E+01  1.00800000E+00  1.00800000E+00  0.00000000E+00  1.60000000E+01
  1.00800000E+00  1.00800000E+00  0.00000000E+00  1.60000000E+01  1.00800000E+00
  1.00800000E+00  0.00000000E+00  1.60000000E+01  1.00800000E+00  1.00800000E+00
  0.00000000E+00  1.60000000E+01  1.00800000E+00  1.00800000E+00  0.00000000E+00
  1.60000000E+01  1.00800000E+00  1.00800000E+00  0.00000000E+00  1.60000000E+01
  1.00800000E+00  1.00800000E+00  0.00000000E+00  1.60000000E+01  1.00800000E+00
  1.00800000E+00  0.00000000E+00  1.60000000E+01  1.00800000E+00  1.00800000E+00
  0.00000000E+00  1.60000000E+01  1.00800000E+00  1.00800000E+00  0.00000000E+00
  1.60000000E+01  1.00800000E+00  1.00800000E+00  0.00000000E+00  1.60000000E+01
  1.00800000E+00  1.00800000E+00  0.00000000E+00  1.60000000E+01  1.00800000E+00
  1.00800000E+00  0.00000000E+00  1.60000000E+01  1.00800000E+00  1.00800000E+00
  0.00000000E+00  1.60000000E+01  1.00800000E+00  1.00800000E+00  0.00000000E+00
  1.60000000E+01  1.00800000E+00  1.00800000E+00  0.00000000E+00  1.60000000E+01
  1.00800000E+00  1.00800000E+00  0.00000000E+00  1.60000000E+01  1.00800000E+00
  1.00800000E+00  0.00000000E+00  1.60000000E+01  1.00800000E+00  1.00800000E+00
  0.00000000E+00  1.60000000E+01  1.00800000E+00  1.00800000E+00  0.00000000E+00
  1.60000000E+01  1.00800000E+00  1.00800000E+00  0.00000000E+00  1.60000000E+01
  1.00800000E+00  1.00800000E+00  0.00000000E+00  1.60000000E+01  1.00800000E+00
  1.00800000E+00  0.00000000E+00  1.60000000E+01  1.00800000E+00  1.00800000E+00
  0.00000000E+00  1.60000000E+01  1.00800000E+00  1.00800000E+00  0.00000000E+00
  1.60000000E+01  1.00800000E+00  1.00800000E+00  0.00000000E+00  1.60000000E+01
  1.00800000E+00  1.00800000E+00  0.00000000E+00  1.60000000E+01  1.00800000E+00
  1.00800000E+00  0.00000000E+00  1.60000000E+01  1.00800000E+00  1.00800000E+00
  0.00000000E+00  1.60000000E+01  1.00800000E+00  1.00800000E+00  0.00000000E+00
  1.60000000E+01  1.00800000E+00  1.00800000E+00  0.00000000E+00  1.60000000E+01
  1.00800000E+00  1.00800000E+00  0.00000000E+00  1.60000000E+01  1.00800000E+00
  1.00800000E+00  0.00000000E+00  1.60000000E+01  1.00800000E+00  1.00800000E+00
  0.00000000E+00  1.60000000E+01  1.00800000E+00  1.00800000E+00  0.00000000E+00
  1.60000000E+01  1.00800000E+00  1.00800000E+00  0.00000000E+00  1.60000000E+01
  1.00800000E+00  1.00800000E+00  0.00000000E+00  1.60000000E+01  1.00800000E+00
  1.00800000E+00  0.00000000E+00  1.60000000E+01  1.00800000E+00  1.00800000E+00
  0.00000000E+00  1.60000000E+01  1.00800000E+00  1.00800000E+00  0.00000000E+00
  1.60000000E+01  1.00800000E+00  1.00800000E+00  0.00000000E+00  1.60000000E+01
  1.00800000E+00  1.00800000E+00  0.00000000E+00  1.60000000E+01  1.00800000E+00
  1.00800000E+00  0.00000000E+00  1.60000000E+01  1.00800000E+00  1.00800000E+00
  0.00000000E+00  1.60000000E+01  1.00800000E+00  1.00800000E+00  0.00000000E+00
  1.60000000E+01  1.00800000E+00  1.00800000E+00  0.00000000E+00  1.60000000E+01
  1.00800000E+00  1.00800000E+00  0.00000000E+00  1.60000000E+01  1.00800000E+00
  1.00800000E+00  0.00000000E+00  1.60000000E+01  1.00800000E+00  1.00800000E+00
  0.00000000E+00  1.60000000E+01  1.00800000E+00  1.00800000E+00  0.00000000E+00
  1.60000000E+01  1.00800000E+00  1.00800000E+00  0.00000000E+00  1.60000000E+01
  1.00800000E+00  1.00800000E+00  0.00000000E+00  1.60000000E+01  1.00800000E+00
  1.00800000E+00  0.00000000E+00  1.60000000E+01  1.00800000E+00  1.00800000E+00
  0.00000000E+00  1.60000000E+01  1.00800000E+00  1.00800000E+00  0.00000000E+00
  1.60000000E+01  1.00800000E+00  1.00800000E+00  0.00000000E+00  1.60000000E+01
  1.00800000E+00  1.00800000E+00  0.00000000E+00  1.60000000E+01  1.00800000E+00
  1.00800000E+00  0.00000000E+00  1.60000000E+01  1.00800000E+00  1.00800000E+00
  0.00000000E+00  1.60000000E+01  1.00800000E+00  1.00800000E+00  0.00000000E+00
  1.60000000E+01  1.00800000E+00  1.00800000E+00  0.00000000E+00  1.60000000E+01
  1.00800000E+00  1.00800000E+00  0.00000000E+00  1.60000000E+01  1.00800000E+00
  1.00800000E+00  0.00000000E+00  1.60000000E+01  1.00800000E+00  1.00800000E+00
  0.00000000E+00  1.60000000E+01  1.00800000E+00  1.00800000E+00  0.00000000E+00
  1.60000000E+01  1.00800000E+00  1.00800000E+00  0.00000000E+00  1.60000000E+01
  1.00800000E+00  1.00800000E+00  0.00000000E+00  1.60000000E+01  1.00800000E+00
  1.00800000E+00  0.00000000E+00  1.60000000E+01  1.00800000E+00  1.00800000E+00
  0.00000000E+00  1.60000000E+01  1.00800000E+00  1.00800000E+00  0.00000000E+00
  1.60000000E+01  1.00800000E+00  1.00800000E+00  0.00000000E+00  1.60000000E+01
  1.00800000E+00  1.00800000E+00  0.00000000E+00  1.60000000E+01  1.00800000E+00
  1.00800000E+00  0.00000000E+00  1.60000000E+01  1.00800000E+00  1.00800000E+00
  0.00000000E+00  1.60000000E+01  1.00800000E+00  1.00800000E+00  0.00000000E+00
  1.60000000E+01  1.00800000E+00  1.00800000E+00  0.00000000E+00  1.60000000E+01
  1.00800000E+00  1.00800000E+00  0.00000000E+00  1.60000000E+01  1.00800000E+00
  1.00800000E+00  0.00000000E+00  1.60000000E+01  1.00800000E+00  1.00800000E+00
  0.00000000E+00  1.60000000E+01  1.00800000E+00  1.00800000E+00  0.00000000E+00
  1.60000000E+01  1.00800000E+00  1.00800000E+00  0.00000000E+00  1.60000000E+01
  1.00800000E+00  1.00800000E+00  0.00000000E+00  1.60000000E+01  1.00800000E+00
  1.00800000E+00  0.00000000E+00  1.60000000E+01  1.00800000E+00  1.00800000E+00
  0.00000000E+00  1.60000000E+01  1.00800000E+00  1.00800000E+00  0.00000000E+00
  1.60000000E+01  1.00800000E+00  1.00800000E+00  0.00000000E+00  1.60000000E+01
  1.00800000E+00  1.00800000E+00  0.00000000E+00  1.60000000E+01  1.00800000E+00
  1.00800000E+00  0.00000000E+00  1.60000000E+01  1.00800000E+00  1.00800000E+00
  0.00000000E+00  1.60000000E+01  1.00800000E+00  1.00800000E+00  0.00000000E+00
  1.60000000E+01  1.00800000E+00  1.00800000E+00  0.00000000E+00  1.60000000E+01
  1.00800000E+00  1.00800000E+00  0.00000000E+00  1.60000000E+01  1.00800000E+00
  1.00800000E+00  0.00000000E+00  1.60000000E+01  1.00800000E+00  1.00800000E+00
  0.00000000E+00  1.60000000E+01  1.00800000E+00  1.00800000E+00  0.00000000E+00
  1.60000000E+01  1.00800000E+00  1.00800000E+00  0.00000000E+00  1.60000000E+01
  1.00800000E+00  1.00800000E+00  0.00000000E+00  1.60000000E+01  1.00800000E+00
  1.00800000E+00  0.00000000E+00  1.60000000E+01  1.00800000E+00  1.00800000E+00
  0.00000000E+00  1.60000000E+01  1.00800000E+00  1.00800000E+00  0.00000000E+00
  1.60000000E+01  1.00800000E+00  1.00800000E+00  0.00000000E+00  1.60000000E+01
  1.00800000E+00  1.00800000E+00  0.00000000E+00  1.60000000E+01  1.00800000E+00
  1.00800000E+00  0.00000000E+00  1.60000000E+01  1.00800000E+00  1.00800000E+00
  0.00000000E+00  1.60000000E+01  1.00800000E+00  1.00800000E+00  0.00000000E+00
  1.60000000E+01  1.00800000E+00  1.00800000E+00  0.00000000E+00  1.60000000E+01
  1.00800000E+00  1.00800000E+00  0.00000000E+00  1.60000000E+01  1.00800000E+00
  1.00800000E+00  0.00000000E+00  1.60000000E+01  1.00800000E+00  1.00800000E+00
  0.00000000E+00  1.60000000E+01  1.00800000E+00  1.00800000E+00  0.00000000E+00
  1.60000000E+01  1.00800000E+00  1.00800000E+00  0.00000000E+00  1.60000000E+01
  1.00800000E+00  1.00800000E+00  0.00000000E+00  1.60000000E+01  1.00800000E+00
  1.00800000E+00  0.00000000E+00  1.60000000E+01  1.00800000E+00  1.00800000E+00
  0.00000000E+00  1.60000000E+01  1.00800000E+00  1.00800000E+00  0.00000000E+00
  1.60000000E+01  1.00800000E+00  1.00800000E+00  0.00000000E+00  1.60000000E+01
  1.00800000E+00  1.00800000E+00  0.00000000E+00  1.60000000E+01  1.00800000E+00
  1.00800000E+00  0.00000000E+00  1.60000000E+01  1.00800000E+00  1.00800000E+00
  0.00000000E+00  1.60000000E+01  1.00800000E+00  1.00800000E+00  0.00000000E+00
  1.60000000E+01  1.00800000E+00  1.00800000E+00  0.00000000E+00  1.60000000E+01
  1.00800000E+00  1.00800000E+00  0.00000000E+00  1.60000000E+01  1.00800000E+00
  1.00800000E+00  0.00000000E+00  1.60000000E+01  1.00800000E+00  1.00800000E+00
  0.00000000E+00  1.60000000E+01  1.00800000E+00  1.00800000E+00  0.00000000E+00
  1.60000000E+01  1.00800000E+00  1.00800000E+00  0.00000000E+00  1.60000000E+01
  1.00800000E+00  1.00800000E+00  0.00000000E+00  1.60000000E+01  1.00800000E+00
  1.00800000E+00  0.00000000E+00  1.60000000E+01  1.00800000E+00  1.00800000E+00
  0.00000000E+00  1.60000000E+01  1.00800000E+00  1.00800000E+00  0.00000000E+00
  1.60000000E+01  1.00800000E+00  1.00800000E+00  0.00000000E+00  1.60000000E+01
  1.00800000E+00  1.00800000E+00  0.00000000E+00  1.60000000E+01  1.00800000E+00
  1.00800000E+00  0.00000000E+00  1.60000000E+01  1.00800000E+00  1.00800000E+00
  0.00000000E+00  1.60000000E+01  1.00800000E+00  1.00800000E+00  0.00000000E+00
  1.60000000E+01  1.00800000E+00  1.00800000E+00  0.00000000E+00  1.60000000E+01
  1.00800000E+00  1.00800000E+00  0.00000000E+00  1.60000000E+01  1.00800000E+00
  1.00800000E+00  0.00000000E+00  1.60000000E+01  1.00800000E+00  1.00800000E+00
  0.00000000E+00  1.60000000E+01  1.00800000E+00  1.00800000E+00  0.00000000E+00
  1.60000000E+01  1.00800000E+00  1.00800000E+00  0.00000000E+00  1.60000000E+01
  1.00800000E+00  1.00800000E+00  0.00000000E+00  1.60000000E+01  1.00800000E+00
  1.00800000E+00  0.00000000E+00  1.60000000E+01  1.00800000E+00  1.00800000E+00
  0.00000000E+00  1.60000000E+01  1.00800000E+00  1.00800000E+00  0.00000000E+00
  1.60000000E+01  1.00800000E+00  1.00800000E+00  0.00000000E+00  1.60000000E+01
  1.00800000E+00  1.00800000E+00  0.00000000E+00  1.60000000E+01  1.00800000E+00
  1.00800000E+00  0.00000000E+00  1.60000000E+01  1.00800000E+00  1.00800000E+00
  0.00000000E+00  1.60000000E+01  1.00800000E+00  1.00800000E+00  0.00000000E+00
  1.60000000E+01  1.00800000E+00  1.00800000E+00  0.00000000E+00  1.60000000E+01
  1.00800000E+00  1.00800000E+00  0.00000000E+00  1.60000000E+01  1.00800000E+00
  1.00800000E+00  0.00000000E+00  1.60000000E+01  1.00800000E+00  1.00800000E+00
  0.00000000E+00  1.60000000E+01  1.00800000E+00  1.00800000E+00  0.00000000E+00
  1.60000000E+01  1.00800000E+00  1.00800000E+00  0.00000000E+00  1.60000000E+01
  1.00800000E+00  1.00800000E+00  0.00000000E+00  1.60000000E+01  1.00800000E+00
  1.00800000E+00  0.00000000E+00  1.60000000E+01  1.00800000E+00  1.00800000E+00
  0.00000000E+00  1.60000000E+01  1.00800000E+00  1.00800000E+00  0.00000000E+00
  1.60000000E+01  1.00800000E+00  1.00800000E+00  0.00000000E+00  1.60000000E+01
  1.00800000E+00  1.00800000E+00  0.00000000E+00  1.60000000E+01  1.00800000E+00
  1.00800000E+00  0.00000000E+00  1.60000000E+01  1.00800000E+00  1.00800000E+00
  0.00000000E+00  1.60000000E+01  1.00800000E+00  1.00800000E+00  0.00000000E+00
  1.60000000E+01  1.00800000E+00  1.00800000E+00  0.00000000E+00  1.60000000E+01
  1.00800000E+00  1.00800000E+00  0.00000000E+00  1.60000000E+01  1.00800000E+00
  1.00800000E+00  0.00000000E+00  1.60000000E+01  1.00800000E+00  1.00800000E+00
  0.00000000E+00  1.60000000E+01  1.00800000E+00  1.00800000E+00  0.00000000E+00
  1.60000000E+01  1.00800000E+00  1.00800000E+00  0.00000000E+00  1.60000000E+01
  1.00800000E+00  1.00800000E+00  0.00000000E+00  1.60000000E+01  1.00800000E+00
  1.00800000E+00  0.00000000E+00  1.60000000E+01  1.00800000E+00  1.00800000E+00
  0.00000000E+00  1.60000000E+01  1.00800000E+00  1.00800000E+00  0.00000000E+00
  1.60000000E+01  1.00800000E+00  1.00800000E+00  0.00000000E+00  1.60000000E+01
  1.00800000E+00  1.00800000E+00  0.00000000E+00  1.60000000E+01  1.00800000E+00
  1.00800000E+00  0.00000000E+00  1.60000000E+01  1.00800000E+00  1.00800000E+00
  0.00000000E+00  1.60000000E+01  1.00800000E+00  1.00800000E+00  0.00000000E+00
  1.60000000E+01  1.00800000E+00  1.00800000E+00  0.00000000E+00  1.60000000E+01
  1.00800000E+00  1.00800000E+00  0.00000000E+00  1.60000000E+01  1.00800000E+00
  1.00800000E+00  0.00000000E+00  1.60000000E+01  1.00800000E+00  1.00800000E+00
  0.00000000E+00  1.60000000E+01  1.00800000E+00  1.00800000E+00  0.00000000E+00
  1.60000000E+01  1.00800000E+00  1.00800000E+00  0.00000000E+00  1.60000000E+01
  1.00800000E+00  1.00800000E+00  0.00000000E+00  1.60000000E+01  1.00800000E+00
  1.00800000E+00  0.00000000E+00  1.60000000E+01  1.00800000E+00  1.00800000E+00
  0.00000000E+00  1.60000000E+01  1.00800000E+00  1.00800000E+00  0.00000000E+00
  1.60000000E+01  1.00800000E+00  1.00800000E+00  0.00000000E+00  1.60000000E+01
  1.00800000E+00  1.00800000E+00  0.00000000E+00  1.60000000E+01  1.00800000E+00
  1.00800000E+00  0.00000000E+00  1.60000000E+01  1.00800000E+00  1.00800000E+00
  0.00000000E+00  1.60000000E+01  1.00800000E+00  1.00800000E+00  0.00000000E+00
  1.60000000E+01  1.00800000E+00  1.00800000E+00  0.00000000E+00  1.60000000E+01
  1.00800000E+00  1.00800000E+00  0.00000000E+00  1.60000000E+01  1.00800000E+00
  1.00800000E+00  0.00000000E+00  1.60000000E+01  1.00800000E+00  1.00800000E+00
  0.00000000E+00  1.60000000E+01  1.00800000E+00  1.00800000E+00  0.00000000E+00
  1.60000000E+01  1.00800000E+00  1.00800000E+00  0.00000000E+00  1.60000000E+01
  1.00800000E+00  1.00800000E+00  0.00000000E+00  1.60000000E+01  1.00800000E+00
  1.00800000E+00  0.00000000E+00  1.60000000E+01  1.00800000E+00  1.00800000E+00
  0.00000000E+00  1.60000000E+01  1.00800000E+00  1.00800000E+00  0.00000000E+00
  1.60000000E+01  1.00800000E+00  1.00800000E+00  0.00000000E+00  1.60000000E+01
  1.00800000E+00  1.00800000E+00  0.00000000E+00  1.60000000E+01  1.00800000E+00
  1.00800000E+00  0.00000000E+00  1.60000000E+01  1.00800000E+00  1.00800000E+00
  0.00000000E+00  1.60000000E+01  1.00800000E+00  1.00800000E+00  0.00000000E+00
  1.60000000E+01  1.00800000E+00  1.00800000E+00  0.00000000E+00  1.60000000E+01
  1.00800000E+00  1.00800000E+00  0.00000000E+00  1.60000000E+01  1.00800000E+00
  1.00800000E+00  0.00000000E+00  1.60000000E+01  1.00800000E+00  1.00800000E+00
  0.00000000E+00  1.60000000E+01  1.00800000E+00  1.00800000E+00  0.00000000E+00
  1.60000000E+01  1.00800000E+00  1.00800000E+00  0.00000000E+00  1.60000000E+01
  1.00800000E+00  1.00800000E+00  0.00000000E+00  1.60000000E+01  1.00800000E+00
  1.00800000E+00  0.00000000E+00  1.60000000E+01  1.00800000E+00  1.00800000E+00
  0.00000000E+00  1.60000000E+01  1.00800000E+00  1.00800000E+00  0.00000000E+00
  1.60000000E+01  1.00800000E+00  1.00800000E+00  0.00000000E+00  1.60000000E+01
  1.00800000E+00  1.00800000E+00  0.00000000E+00  1.60000000E+01  1.00800000E+00
  1.00800000E+00  0.00000000E+00  1.60000000E+01  1.00800000E+00  1.00800000E+00
  0.00000000E+00  1.60000000E+01  1.00800000E+00  1.00800000E+00  0.00000000E+00
  1.60000000E+01  1.00800000E+00  1.00800000E+00  0.00000000E+00  1.60000000E+01
  1.00800000E+00  1.00800000E+00  0.00000000E+00  1.60000000E+01  1.00800000E+00
  1.00800000E+00  0.00000000E+00  1.60000000E+01  1.00800000E+00  1.00800000E+00
  0.00000000E+00  1.60000000E+01  1.00800000E+00  1.00800000E+00  0.00000000E+00
  1.60000000E+01  1.00800000E+00  1.00800000E+00  0.00000000E+00  1.60000000E+01
  1.00800000E+00  1.00800000E+00  0.00000000E+00  1.60000000E+01  1.00800000E+00
  1.00800000E+00  0.00000000E+00  1.60000000E+01  1.00800000E+00  1.00800000E+00
  0.00000000E+00  1.60000000E+01  1.00800000E+00  1.00800000E+00  0.00000000E+00
  1.60000000E+01  1.00800000E+00  1.00800000E+00  0.00000000E+00  1.60000000E+01
  1.00800000E+00  1.00800000E+00  0.00000000E+00  1.60000000E+01  1.00800000E+00
  1.00800000E+00  0.00000000E+00  1.60000000E+01  1.00800000E+00  1.00800000E+00
  0.00000000E+00  1.60000000E+01  1.00800000E+00  1.00800000E+00  0.00000000E+00
  1.60000000E+01  1.00800000E+00  1.00800000E+00  0.00000000E+00  1.60000000E+01
  1.00800000E+00  1.00800000E+00  0.00000000E+00  1.60000000E+01  1.00800000E+00
  1.00800000E+00  0.00000000E+00  1.60000000E+01  1.00800000E+00  1.00800000E+00
  0.00000000E+00  1.60000000E+01  1.00800000E+00  1.00800000E+00  0.00000000E+00
  1.60000000E+01  1.00800000E+00  1.00800000E+00  0.00000000E+00  1.60000000E+01
  1.00800000E+00  1.00800000E+00  0.00000000E+00  1.60000000E+01  1.00800000E+00
  1.00800000E+00  0.00000000E+00  1.60000000E+01  1.00800000E+00  1.00800000E+00
  0.00000000E+00  1.60000000E+01  1.00800000E+00  1.00800000E+00  0.00000000E+00
  1.60000000E+01  1.00800000E+00  1.00800000E+00  0.00000000E+00  1.60000000E+01
  1.00800000E+00  1.00800000E+00  0.00000000E+00  1.60000000E+01  1.00800000E+00
  1.00800000E+00  0.00000000E+00  1.60000000E+01  1.00800000E+00  1.00800000E+00
  0.00000000E+00  1.60000000E+01  1.00800000E+00  1.00800000E+00  0.00000000E+00
  1.60000000E+01  1.00800000E+00  1.00800000E+00  0.00000000E+00  1.60000000E+01
  1.00800000E+00  1.00800000E+00  0.00000000E+00  1.60000000E+01  1.00800000E+00
  1.00800000E+00  0.00000000E+00  1.60000000E+01  1.00800000E+00  1.00800000E+00
  0.00000000E+00  1.60000000E+01  1.00800000E+00  1.00800000E+00  0.00000000E+00
  1.60000000E+01  1.00800000E+00  1.00800000E+00  0.00000000E+00  1.60000000E+01
  1.00800000E+00  1.00800000E+00  0.00000000E+00  1.60000000E+01  1.00800000E+00
  1.00800000E+00  0.00000000E+00  1.60000000E+01  1.00800000E+00  1.00800000E+00
  0.00000000E+00  1.60000000E+01  1.00800000E+00  1.00800000E+00  0.00000000E+00
  1.60000000E+01  1.00800000E+00  1.00800000E+00  0.00000000E+00  1.60000000E+01
  1.00800000E+00  1.00800000E+00  0.00000000E+00  1.60000000E+01  1.00800000E+00
  1.00800000E+00  0.00000000E+00  1.60000000E+01  1.00800000E+00  1.00800000E+00
  0.00000000E+00  1.60000000E+01  1.00800000E+00  1.00800000E+00  0.00000000E+00
  1.60000000E+01  1.00800000E+00  1.00800000E+00  0.00000000E+00  1.60000000E+01
  1.00800000E+00  1.00800000E+00  0.00000000E+00  1.60000000E+01  1.00800000E+00
  1.00800000E+00  0.00000000E+00  1.60000000E+01  1.00800000E+00  1.00800000E+00
  0.00000000E+00  1.60000000E+01  1.00800000E+00  1.00800000E+00  0.00000000E+00
  1.60000000E+01  1.00800000E+00  1.00800000E+00  0.00000000E+00  1.60000000E+01
  1.00800000E+00  1.00800000E+00  0.00000000E+00  1.60000000E+01  1.00800000E+00
  1.00800000E+00  0.00000000E+00  1.60000000E+01  1.00800000E+00  1.00800000E+00
  0.00000000E+00  1.60000000E+01  1.00800000E+00  1.00800000E+00  0.00000000E+00
  1.60000000E+01  1.00800000E+00  1.00800000E+00  0.00000000E+00  1.60000000E+01
  1.00800000E+00  1.00800000E+00  0.00000000E+00  1.60000000E+01  1.00800000E+00
  1.00800000E+00  0.00000000E+00  1.60000000E+01  1.00800000E+00  1.00800000E+00
  0.00000000E+00  1.60000000E+01  1.00800000E+00  1.00800000E+00  0.00000000E+00
  1.60000000E+01  1.00800000E+00  1.00800000E+00  0.00000000E+00  1.60000000E+01
  1.00800000E+00  1.00800000E+00  0.00000000E+00  1.60000000E+01  1.00800000E+00
  1.00800000E+00  0.00000000E+00  1.60000000E+01  1.00800000E+00  1.00800000E+00
  0.00000000E+00  1.60000000E+01  1.00800000E+00  1.00800000E+00  0.00000000E+00
  1.60000000E+01  1.00800000E+00  1.00800000E+00  0.00000000E+00  1.60000000E+01
  1.00800000E+00  1.00800000E+00  0.00000000E+00  1.60000000E+01  1.00800000E+00
  1.00800000E+00  0.00000000E+00  1.60000000E+01  1.00800000E+00  1.00800000E+00
  0.00000000E+00  1.60000000E+01  1.00800000E+00  1.00800000E+00  0.00000000E+00
  1.60000000E+01  1.00800000E+00  1.00800000E+00  0.00000000E+00  1.60000000E+01
  1.00800000E+00  1.00800000E+00  0.00000000E+00  1.60000000E+01  1.00800000E+00
  1.00800000E+00  0.00000000E+00  1.60000000E+01  1.00800000E+00  1.00800000E+00
  0.00000000E+00  1.60000000E+01  1.00800000E+00  1.00800000E+00  0.00000000E+00
  1.60000000E+01  1.00800000E+00  1.00800000E+00  0.00000000E+00  1.60000000E+01
  1.00800000E+00  1.00800000E+00  0.00000000E+00  1.60000000E+01  1.00800000E+00
  1.00800000E+00  0.00000000E+00  1.60000000E+01  1.00800000E+00  1.00800000E+00
  0.00000000E+00  1.60000000E+01  1.00800000E+00  1.00800000E+00  0.00000000E+00
  1.60000000E+01  1.00800000E+00  1.00800000E+00  0.00000000E+00  1.60000000E+01
  1.00800000E+00  1.00800000E+00  0.00000000E+00  1.60000000E+01  1.00800000E+00
  1.00800000E+00  0.00000000E+00  1.60000000E+01  1.00800000E+00  1.00800000E+00
  0.00000000E+00  1.60000000E+01  1.00800000E+00  1.00800000E+00  0.00000000E+00
  1.60000000E+01  1.00800000E+00  1.00800000E+00  0.00000000E+00  1.60000000E+01
  1.00800000E+00  1.00800000E+00  0.00000000E+00  1.60000000E+01  1.00800000E+00
  1.00800000E+00  0.00000000E+00  1.60000000E+01  1.00800000E+00  1.00800000E+00
  0.00000000E+00  1.60000000E+01  1.00800000E+00  1.00800000E+00  0.00000000E+00
  1.60000000E+01  1.00800000E+00  1.00800000E+00  0.00000000E+00  1.60000000E+01
  1.00800000E+00  1.00800000E+00  0.00000000E+00  1.60000000E+01  1.00800000E+00
  1.00800000E+00  0.00000000E+00  1.60000000E+01  1.00800000E+00  1.00800000E+00
  0.00000000E+00  1.60000000E+01  1.00800000E+00  1.00800000E+00  0.00000000E+00
  1.60000000E+01  1.00800000E+00  1.00800000E+00  0.00000000E+00  1.60000000E+01
  1.00800000E+00  1.00800000E+00  0.00000000E+00  1.60000000E+01  1.00800000E+00
  1.00800000E+00  0.00000000E+00  1.60000000E+01  1.00800000E+00  1.00800000E+00
  0.00000000E+00  1.60000000E+01  1.00800000E+00  1.00800000E+00  0.00000000E+00
  1.60000000E+01  1.00800000E+00  1.00800000E+00  0.00000000E+00  1.60000000E+01
  1.00800000E+00  1.00800000E+00  0.00000000E+00  1.60000000E+01  1.00800000E+00
  1.00800000E+00  0.00000000E+00  1.60000000E+01  1.00800000E+00  1.00800000E+00
  0.00000000E+00  1.60000000E+01  1.00800000E+00  1.00800000E+00  0.00000000E+00
  1.60000000E+01  1.00800000E+00  1.00800000E+00  0.00000000E+00  1.60000000E+01
  1.00800000E+00  1.00800000E+00  0.00000000E+00  1.60000000E+01  1.00800000E+00
  1.00800000E+00  0.00000000E+00  1.60000000E+01  1.00800000E+00  1.00800000E+00
  0.00000000E+00  1.60000000E+01  1.00800000E+00  1.00800000E+00  0.00000000E+00
  1.60000000E+01  1.00800000E+00  1.00800000E+00  0.00000000E+00  1.60000000E+01
  1.00800000E+00  1.00800000E+00  0.00000000E+00  1.60000000E+01  1.00800000E+00
  1.00800000E+00  0.00000000E+00  1.60000000E+01  1.00800000E+00  1.00800000E+00
  0.00000000E+00  1.60000000E+01  1.00800000E+00  1.00800000E+00  0.00000000E+00
  1.60000000E+01  1.00800000E+00  1.00800000E+00  0.00000000E+00  1.60000000E+01
  1.00800000E+00  1.00800000E+00  0.00000000E+00  1.60000000E+01  1.00800000E+00
  1.00800000E+00  0.00000000E+00  1.60000000E+01  1.00800000E+00  1.00800000E+00
  0.00000000E+00  1.60000000E+01  1.00800000E+00  1.00800000E+00  0.00000000E+00
  1.60000000E+01  1.00800000E+00  1.00800000E+00  0.00000000E+00  1.60000000E+01
  1.00800000E+00  1.00800000E+00  0.00000000E+00  1.60000000E+01  1.00800000E+00
  1.00800000E+00  0.00000000E+00  1.60000000E+01  1.00800000E+00  1.00800000E+00
  0.00000000E+00  1.60000000E+01  1.00800000E+00  1.00800000E+00  0.00000000E+00
  1.60000000E+01  1.00800000E+00  1.00800000E+00  0.00000000E+00  1.60000000E+01
  1.00800000E+00  1.00800000E+00  0.00000000E+00  1.60000000E+01  1.00800000E+00
  1.00800000E+00  0.00000000E+00  1.60000000E+01  1.00800000E+00  1.00800000E+00
  0.00000000E+00  1.60000000E+01  1.00800000E+00  1.00800000E+00  0.00000000E+00
  1.60000000E+01  1.00800000E+00  1.00800000E+00  0.00000000E+00  1.60000000E+01
  1.00800000E+00  1.00800000E+00  0.00000000E+00  1.60000000E+01  1.00800000E+00
  1.00800000E+00  0.00000000E+00  1.60000000E+01  1.00800000E+00  1.00800000E+00
  0.00000000E+00  1.60000000E+01  1.00800000E+00  1.00800000E+00  0.00000000E+00
  1.60000000E+01  1.00800000E+00  1.00800000E+00  0.00000000E+00  1.60000000E+01
  1.00800000E+00  1.00800000E+00  0.00000000E+00  1.60000000E+01  1.00800000E+00
  1.00800000E+00  0.00000000E+00  1.60000000E+01  1.00800000E+00  1.00800000E+00
  0.00000000E+00  1.60000000E+01  1.00800000E+00  1.00800000E+00  0.00000000E+00
  1.60000000E+01  1.00800000E+00  1.00800000E+00  0.00000000E+00  1.60000000E+01
  1.00800000E+00  1.00800000E+00  0.00000000E+00  1.60000000E+01  1.00800000E+00
  1.00800000E+00  0.00000000E+00  1.60000000E+01  1.00800000E+00  1.00800000E+00
  0.00000000E+00  1.60000000E+01  1.00800000E+00  1.00800000E+00  0.00000000E+00
  1.60000000E+01  1.00800000E+00  1.00800000E+00  0.00000000E+00  1.60000000E+01
  1.00800000E+00  1.00800000E+00  0.00000000E+00  1.60000000E+01  1.00800000E+00
  1.00800000E+00  0.00000000E+00  1.60000000E+01  1.00800000E+00  1.00800000E+00
  0.00000000E+00  1.60000000E+01  1.00800000E+00  1.00800000E+00  0.00000000E+00
  1.60000000E+01  1.00800000E+00  1.00800000E+00  0.00000000E+00  1.60000000E+01
  1.00800000E+00  1.00800000E+00  0.00000000E+00  1.60000000E+01  1.00800000E+00
  1.00800000E+00  0.00000000E+00  1.60000000E+01  1.00800000E+00  1.00800000E+00
  0.00000000E+00  1.60000000E+01  1.00800000E+00  1.00800000E+00  0.00000000E+00
  1.60000000E+01  1.00800000E+00  1.00800000E+00  0.00000000E+00  1.60000000E+01
  1.00800000E+00  1.00800000E+00  0.00000000E+00  1.60000000E+01  1.00800000E+00
  1.00800000E+00  0.00000000E+00  1.60000000E+01  1.00800000E+00  1.00800000E+00
  0.00000000E+00  1.60000000E+01  1.00800000E+00  1.00800000E+00  0.00000000E+00
  1.60000000E+01  1.00800000E+00  1.00800000E+00  0.00000000E+00  1.60000000E+01
  1.00800000E+00  1.00800000E+00  0.00000000E+00  1.60000000E+01  1.00800000E+00
  1.00800000E+00  0.00000000E+00  1.60000000E+01  1.00800000E+00  1.00800000E+00
  0.00000000E+00  1.60000000E+01  1.00800000E+00  1.00800000E+00  0.00000000E+00
  1.60000000E+01  1.00800000E+00  1.00800000E+00  0.00000000E+00  1.60000000E+01
  1.00800000E+00  1.00800000E+00  0.00000000E+00  1.60000000E+01  1.00800000E+00
  1.00800000E+00  0.00000000E+00  1.60000000E+01  1.00800000E+00  1.00800000E+00
  0.00000000E+00  1.60000000E+01  1.00800000E+00  1.00800000E+00  0.00000000E+00
  1.60000000E+01  1.00800000E+00  1.00800000E+00  0.00000000E+00  1.60000000E+01
  1.00800000E+00  1.00800000E+00  0.00000000E+00  1.60000000E+01  1.00800000E+00
  1.00800000E+00  0.00000000E+00  1.60000000E+01  1.00800000E+00  1.00800000E+00
  0.00000000E+00  1.60000000E+01  1.00800000E+00  1.00800000E+00  0.00000000E+00
  1.60000000E+01  1.00800000E+00  1.00800000E+00  0.00000000E+00  1.60000000E+01
  1.00800000E+00  1.00800000E+00  0.00000000E+00  1.60000000E+01  1.00800000E+00
  1.00800000E+00  0.00000000E+00  1.60000000E+01  1.00800000E+00  1.00800000E+00
  0.00000000E+00  1.60000000E+01  1.00800000E+00  1.00800000E+00  0.00000000E+00
  1.60000000E+01  1.00800000E+00  1.00800000E+00  0.00000000E+00  1.60000000E+01
  1.00800000E+00  1.00800000E+00  0.00000000E+00  1.60000000E+01  1.00800000E+00
  1.00800000E+00  0.00000000E+00  1.60000000E+01  1.00800000E+00  1.00800000E+00
  0.00000000E+00  1.60000000E+01  1.00800000E+00  1.00800000E+00  0.00000000E+00
  1.60000000E+01  1.00800000E+00  1.00800000E+00  0.00000000E+00  1.60000000E+01
  1.00800000E+00  1.00800000E+00  0.00000000E+00  1.60000000E+01  1.00800000E+00
  1.00800000E+00  0.00000000E+00  1.60000000E+01  1.00800000E+00  1.00800000E+00
  0.00000000E+00  1.60000000E+01  1.00800000E+00  1.00800000E+00  0.00000000E+00
  1.60000000E+01  1.00800000E+00  1.00800000E+00  0.00000000E+00  1.60000000E+01
  1.00800000E+00  1.00800000E+00  0.00000000E+00  1.60000000E+01  1.00800000E+00
  1.00800000E+00  0.00000000E+00  1.60000000E+01  1.00800000E+00  1.00800000E+00
  0.00000000E+00  1.60000000E+01  1.00800000E+00  1.00800000E+00  0.00000000E+00
  1.60000000E+01  1.00800000E+00  1.00800000E+00  0.00000000E+00  1.60000000E+01
  1.00800000E+00  1.00800000E+00  0.00000000E+00  1.60000000E+01  1.00800000E+00
  1.00800000E+00  0.00000000E+00  1.60000000E+01  1.00800000E+00  1.00800000E+00
  0.00000000E+00  1.60000000E+01  1.00800000E+00  1.00800000E+00  0.00000000E+00
  1.60000000E+01  1.00800000E+00  1.00800000E+00  0.00000000E+00  1.60000000E+01
  1.00800000E+00  1.00800000E+00  0.00000000E+00  1.60000000E+01  1.00800000E+00
  1.00800000E+00  0.00000000E+00  1.60000000E+01  1.00800000E+00  1.00800000E+00
  0.00000000E+00  1.60000000E+01  1.00800000E+00  1.00800000E+00  0.00000000E+00
  1.60000000E+01  1.00800000E+00  1.00800000E+00  0.00000000E+00  1.60000000E+01
  1.00800000E+00  1.00800000E+00  0.00000000E+00  1.60000000E+01  1.00800000E+00
  1.00800000E+00  0.00000000E+00  1.60000000E+01  1.00800000E+00  1.00800000E+00
  0.00000000E+00  1.60000000E+01  1.00800000E+00  1.00800000E+00  0.00000000E+00
  1.60000000E+01  1.00800000E+00  1.00800000E+00  0.00000000E+00  1.60000000E+01
  1.00800000E+00  1.00800000E+00  0.00000000E+00  1.60000000E+01  1.00800000E+00
  1.00800000E+00  0.00000000E+00  1.60000000E+01  1.00800000E+00  1.00800000E+00
  0.00000000E+00  1.60000000E+01  1.00800000E+00  1.00800000E+00  0.00000000E+00
  1.60000000E+01  1.00800000E+00  1.00800000E+00  0.00000000E+00  1.60000000E+01
  1.00800000E+00  1.00800000E+00  0.00000000E+00  1.60000000E+01  1.00800000E+00
  1.00800000E+00  0.00000000E+00  1.60000000E+01  1.00800000E+00  1.00800000E+00
  0.00000000E+00  1.60000000E+01  1.00800000E+00  1.00800000E+00  0.00000000E+00
  1.60000000E+01  1.00800000E+00  1.00800000E+00  0.00000000E+00  1.60000000E+01
  1.00800000E+00  1.00800000E+00  0.00000000E+00  1.60000000E+01  1.00800000E+00
  1.00800000E+00  0.00000000E+00  1.60000000E+01  1.00800000E+00  1.00800000E+00
  0.00000000E+00  1.60000000E+01  1.00800000E+00  1.00800000E+00  0.00000000E+00
  1.60000000E+01  1.00800000E+00  1.00800000E+00  0.00000000E+00  1.60000000E+01
  1.00800000E+00  1.00800000E+00  0.00000000E+00  1.60000000E+01  1.00800000E+00
  1.00800000E+00  0.00000000E+00  1.60000000E+01  1.00800000E+00  1.00800000E+00
  0.00000000E+00  1.60000000E+01  1.00800000E+00  1.00800000E+00  0.00000000E+00
  1.60000000E+01  1.00800000E+00  1.00800000E+00  0.00000000E+00  1.60000000E+01
  1.00800000E+00  1.00800000E+00  0.00000000E+00  1.60000000E+01  1.00800000E+00
  1.00800000E+00  0.00000000E+00  1.60000000E+01  1.00800000E+00  1.00800000E+00
  0.00000000E+00  1.60000000E+01  1.00800000E+00  1.00800000E+00  0.00000000E+00
  1.60000000E+01  1.00800000E+00  1.00800000E+00  0.00000000E+00  1.60000000E+01
  1.00800000E+00  1.00800000E+00  0.00000000E+00  1.60000000E+01  1.00800000E+00
  1.00800000E+00  0.00000000E+00  1.60000000E+01  1.00800000E+00  1.00800000E+00
  0.00000000E+00  1.60000000E+01  1.00800000E+00  1.00800000E+00  0.00000000E+00
  1.60000000E+01  1.00800000E+00  1.00800000E+00  0.00000000E+00  1.60000000E+01
  1.00800000E+00  1.00800000E+00  0.00000000E+00  1.60000000E+01  1.00800000E+00
  1.00800000E+00  0.00000000E+00  1.60000000E+01  1.00800000E+00  1.00800000E+00
  0.00000000E+00  1.60000000E+01  1.00800000E+00  1.00800000E+00  0.00000000E+00
  1.60000000E+01  1.00800000E+00  1.00800000E+00  0.00000000E+00  1.60000000E+01
  1.00800000E+00  1.00800000E+00  0.00000000E+00  1.60000000E+01  1.00800000E+00
  1.00800000E+00  0.00000000E+00  1.60000000E+01  1.00800000E+00  1.00800000E+00
  0.00000000E+00  1.60000000E+01  1.00800000E+00  1.00800000E+00  0.00000000E+00
  1.60000000E+01  1.00800000E+00  1.00800000E+00  0.00000000E+00  1.60000000E+01
  1.00800000E+00  1.00800000E+00  0.00000000E+00  1.60000000E+01  1.00800000E+00
  1.00800000E+00  0.00000000E+00  1.60000000E+01  1.00800000E+00  1.00800000E+00
  0.00000000E+00  1.60000000E+01  1.00800000E+00  1.00800000E+00  0.00000000E+00
  1.60000000E+01  1.00800000E+00  1.00800000E+00  0.00000000E+00  1.60000000E+01
  1.00800000E+00  1.00800000E+00  0.00000000E+00  1.60000000E+01  1.00800000E+00
  1.00800000E+00  0.00000000E+00  1.60000000E+01  1.00800000E+00  1.00800000E+00
  0.00000000E+00  1.60000000E+01  1.00800000E+00  1.00800000E+00  0.00000000E+00
  1.60000000E+01  1.00800000E+00  1.00800000E+00  0.00000000E+00  1.60000000E+01
  1.00800000E+00  1.00800000E+00  0.00000000E+00  1.60000000E+01  1.00800000E+00
  1.00800000E+00  0.00000000E+00  1.60000000E+01  1.00800000E+00  1.00800000E+00
  0.00000000E+00  1.60000000E+01  1.00800000E+00  1.00800000E+00  0.00000000E+00
  1.60000000E+01  1.00800000E+00  1.00800000E+00  0.00000000E+00  1.60000000E+01
  1.00800000E+00  1.00800000E+00  0.00000000E+00  1.60000000E+01  1.00800000E+00
  1.00800000E+00  0.00000000E+00  1.60000000E+01  1.00800000E+00  1.00800000E+00
  0.00000000E+00  1.60000000E+01  1.00800000E+00  1.00800000E+00  0.00000000E+00
  1.60000000E+01  1.00800000E+00  1.00800000E+00  0.00000000E+00  1.60000000E+01
  1.00800000E+00  1.00800000E+00  0.00000000E+00  1.60000000E+01  1.00800000E+00
  1.00800000E+00  0.00000000E+00  1.60000000E+01  1.00800000E+00  1.00800000E+00
  0.00000000E+00  1.60000000E+01  1.00800000E+00  1.00800000E+00  0.00000000E+00
  1.60000000E+01  1.00800000E+00  1.00800000E+00  0.00000000E+00  1.60000000E+01
  1.00800000E+00  1.00800000E+00  0.00000000E+00  1.60000000E+01  1.00800000E+00
  1.00800000E+00  0.00000000E+00  1.60000000E+01  1.00800000E+00  1.00800000E+00
  0.00000000E+00  1.60000000E+01  1.00800000E+00  1.00800000E+00  0.00000000E+00
  1.60000000E+01  1.00800000E+00  1.00800000E+00  0.00000000E+00  1.60000000E+01
  1.00800000E+00  1.00800000E+00  0.00000000E+00  1.60000000E+01  1.00800000E+00
  1.00800000E+00  0.00000000E+00  1.60000000E+01  1.00800000E+00  1.00800000E+00
  0.00000000E+00  1.60000000E+01  1.00800000E+00  1.00800000E+00  0.00000000E+00
  1.60000000E+01  1.00800000E+00  1.00800000E+00  0.00000000E+00  1.60000000E+01
  1.00800000E+00  1.00800000E+00  0.00000000E+00  1.60000000E+01  1.00800000E+00
  1.00800000E+00  0.00000000E+00  1.60000000E+01  1.00800000E+00  1.00800000E+00
  0.00000000E+00  1.60000000E+01  1.00800000E+00  1.00800000E+00  0.00000000E+00
  1.60000000E+01  1.00800000E+00  1.00800000E+00  0.00000000E+00  1.60000000E+01
  1.00800000E+00  1.00800000E+00  0.00000000E+00  1.60000000E+01  1.00800000E+00
  1.00800000E+00  0.00000000E+00  1.60000000E+01  1.00800000E+00  1.00800000E+00
  0.00000000E+00  1.60000000E+01  1.00800000E+00  1.00800000E+00  0.00000000E+00
  1.60000000E+01  1.00800000E+00  1.00800000E+00  0.00000000E+00  1.60000000E+01
  1.00800000E+00  1.00800000E+00  0.00000000E+00  1.60000000E+01  1.00800000E+00
  1.00800000E+00  0.00000000E+00  1.60000000E+01  1.00800000E+00  1.00800000E+00
  0.00000000E+00  1.60000000E+01  1.00800000E+00  1.00800000E+00  0.00000000E+00
  1.60000000E+01  1.00800000E+00  1.00800000E+00  0.00000000E+00  1.60000000E+01
  1.00800000E+00  1.00800000E+00  0.00000000E+00  1.60000000E+01  1.00800000E+00
  1.00800000E+00  0.00000000E+00  1.60000000E+01  1.00800000E+00  1.00800000E+00
  0.00000000E+00  1.60000000E+01  1.00800000E+00  1.00800000E+00  0.00000000E+00
  1.60000000E+01  1.00800000E+00  1.00800000E+00  0.00000000E+00  1.60000000E+01
  1.00800000E+00  1.00800000E+00  0.00000000E+00  1.60000000E+01  1.00800000E+00
  1.00800000E+00  0.00000000E+00  1.60000000E+01  1.00800000E+00  1.00800000E+00
  0.00000000E+00  1.60000000E+01  1.00800000E+00  1.00800000E+00  0.00000000E+00
  1.60000000E+01  1.00800000E+00  1.00800000E+00  0.00000000E+00  1.60000000E+01
  1.00800000E+00  1.00800000E+00  0.00000000E+00  1.60000000E+01  1.00800000E+00
  1.00800000E+00  0.00000000E+00  1.60000000E+01  1.00800000E+00  1.00800000E+00
  0.00000000E+00  1.60000000E+01  1.00800000E+00  1.00800000E+00  0.00000000E+00
  1.60000000E+01  1.00800000E+00  1.00800000E+00  0.00000000E+00  1.60000000E+01
  1.00800000E+00  1.00800000E+00  0.00000000E+00  1.60000000E+01  1.00800000E+00
  1.00800000E+00  0.00000000E+00  1.60000000E+01  1.00800000E+00  1.00800000E+00
  0.00000000E+00  1.60000000E+01  1.00800000E+00  1.00800000E+00  0.00000000E+00
  1.60000000E+01  1.00800000E+00  1.00800000E+00  0.00000000E+00  1.60000000E+01
  1.00800000E+00  1.00800000E+00  0.00000000E+00  1.60000000E+01  1.00800000E+00
  1.00800000E+00  0.00000000E+00  1.60000000E+01  1.00800000E+00  1.00800000E+00
  0.00000000E+00  1.60000000E+01  1.00800000E+00  1.00800000E+00  0.00000000E+00
  1.60000000E+01  1.00800000E+00  1.00800000E+00  0.00000000E+00  1.60000000E+01
  1.00800000E+00  1.00800000E+00  0.00000000E+00  1.60000000E+01  1.00800000E+00
  1.00800000E+00  0.00000000E+00  1.60000000E+01  1.00800000E+00  1.00800000E+00
  0.00000000E+00  1.60000000E+01  1.00800000E+00  1.00800000E+00  0.00000000E+00
  1.60000000E+01  1.00800000E+00  1.00800000E+00  0.00000000E+00  1.60000000E+01
  1.00800000E+00  1.00800000E+00  0.00000000E+00  1.60000000E+01  1.00800000E+00
  1.00800000E+00  0.00000000E+00  1.60000000E+01  1.00800000E+00  1.00800000E+00
  0.00000000E+00  1.60000000E+01  1.00800000E+00  1.00800000E+00  0.00000000E+00
  1.60000000E+01  1.00800000E+00  1.00800000E+00  0.00000000E+00  1.60000000E+01
  1.00800000E+00  1.00800000E+00  0.00000000E+00  1.60000000E+01  1.00800000E+00
  1.00800000E+00  0.00000000E+00  1.60000000E+01  1.00800000E+00  1.00800000E+00
  0.00000000E+00  1.60000000E+01  1.00800000E+00  1.00800000E+00  0.00000000E+00
  1.60000000E+01  1.00800000E+00  1.00800000E+00  0.00000000E+00  1.60000000E+01
  1.00800000E+00  1.00800000E+00  0.00000000E+00  1.60000000E+01  1.00800000E+00
  1.00800000E+00  0.00000000E+00  1.60000000E+01  1.00800000E+00  1.00800000E+00
  0.00000000E+00  1.60000000E+01  1.00800000E+00  1.00800000E+00  0.00000000E+00
  1.60000000E+01  1.00800000E+00  1.00800000E+00  0.00000000E+00  1.60000000E+01
  1.00800000E+00  1.00800000E+00  0.00000000E+00  1.60000000E+01  1.00800000E+00
  1.00800000E+00  0.00000000E+00  1.60000000E+01  1.00800000E+00  1.00800000E+00
  0.00000000E+00  1.60000000E+01  1.00800000E+00  1.00800000E+00  0.00000000E+00
  1.60000000E+01  1.00800000E+00  1.00800000E+00  0.00000000E+00  1.60000000E+01
  1.00800000E+00  1.00800000E+00  0.00000000E+00  1.60000000E+01  1.00800000E+00
  1.00800000E+00  0.00000000E+00  1.60000000E+01  1.00800000E+00  1.00800000E+00
  0.00000000E+00  1.60000000E+01  1.00800000E+00  1.00800000E+00  0.00000000E+00
  1.60000000E+01  1.00800000E+00  1.00800000E+00  0.00000000E+00  1.60000000E+01
  1.00800000E+00  1.00800000E+00  0.00000000E+00  1.60000000E+01  1.00800000E+00
  1.00800000E+00  0.00000000E+00  1.60000000E+01  1.00800000E+00  1.00800000E+00
  0.00000000E+00  1.60000000E+01  1.00800000E+00  1.00800000E+00  0.00000000E+00
  1.60000000E+01  1.00800000E+00  1.00800000E+00  0.00000000E+00  1.60000000E+01
  1.00800000E+00  1.00800000E+00  0.00000000E+00  1.60000000E+01  1.00800000E+00
  1.00800000E+00  0.00000000E+00  1.60000000E+01  1.00800000E+00  1.00800000E+00
  0.00000000E+00  1.60000000E+01  1.00800000E+00  1.00800000E+00  0.00000000E+00
  1.60000000E+01  1.00800000E+00  1.00800000E+00  0.00000000E+00  1.60000000E+01
  1.00800000E+00  1.00800000E+00  0.00000000E+00  1.60000000E+01  1.00800000E+00
  1.00800000E+00  0.00000000E+00  1.60000000E+01  1.00800000E+00  1.00800000E+00
  0.00000000E+00  1.60000000E+01  1.00800000E+00  1.00800000E+00  0.00000000E+00
  1.60000000E+01  1.00800000E+00  1.00800000E+00  0.00000000E+00  1.60000000E+01
  1.00800000E+00  1.00800000E+00  0.00000000E+00  1.60000000E+01  1.00800000E+00
  1.00800000E+00  0.00000000E+00  1.60000000E+01  1.00800000E+00  1.00800000E+00
  0.00000000E+00  1.60000000E+01  1.00800000E+00  1.00800000E+00  0.00000000E+00
  1.60000000E+01  1.00800000E+00  1.00800000E+00  0.00000000E+00  1.60000000E+01
  1.00800000E+00  1.00800000E+00  0.00000000E+00  1.60000000E+01  1.00800000E+00
  1.00800000E+00  0.00000000E+00  1.60000000E+01  1.00800000E+00  1.00800000E+00
  0.00000000E+00  1.60000000E+01  1.00800000E+00  1.00800000E+00  0.00000000E+00
  1.60000000E+01  1.00800000E+00  1.00800000E+00  0.00000000E+00  1.60000000E+01
  1.00800000E+00  1.00800000E+00  0.00000000E+00  1.60000000E+01  1.00800000E+00
  1.00800000E+00  0.00000000E+00  1.60000000E+01  1.00800000E+00  1.00800000E+00
  0.00000000E+00  1.60000000E+01  1.00800000E+00  1.00800000E+00  0.00000000E+00
  1.60000000E+01  1.00800000E+00  1.00800000E+00  0.00000000E+00  1.60000000E+01
  1.00800000E+00  1.00800000E+00  0.00000000E+00  1.60000000E+01  1.00800000E+00
  1.00800000E+00  0.00000000E+00  1.60000000E+01  1.00800000E+00  1.00800000E+00
  0.00000000E+00  1.60000000E+01  1.00800000E+00  1.00800000E+00  0.00000000E+00
  1.60000000E+01  1.00800000E+00  1.00800000E+00  0.00000000E+00  1.60000000E+01
  1.00800000E+00  1.00800000E+00  0.00000000E+00  1.60000000E+01  1.00800000E+00
  1.00800000E+00  0.00000000E+00  1.60000000E+01  1.00800000E+00  1.00800000E+00
  0.00000000E+00  1.60000000E+01  1.00800000E+00  1.00800000E+00  0.00000000E+00
  1.60000000E+01  1.00800000E+00  1.00800000E+00  0.00000000E+00  1.60000000E+01
  1.00800000E+00  1.00800000E+00  0.00000000E+00  1.60000000E+01  1.00800000E+00
  1.00800000E+00  0.00000000E+00  1.60000000E+01  1.00800000E+00  1.00800000E+00
  0.00000000E+00  1.60000000E+01  1.00800000E+00  1.00800000E+00  0.00000000E+00
  1.60000000E+01  1.00800000E+00  1.00800000E+00  0.00000000E+00  1.60000000E+01
  1.00800000E+00  1.00800000E+00  0.00000000E+00  1.60000000E+01  1.00800000E+00
  1.00800000E+00  0.00000000E+00  1.60000000E+01  1.00800000E+00  1.00800000E+00
  0.00000000E+00  1.60000000E+01  1.00800000E+00  1.00800000E+00  0.00000000E+00
  1.60000000E+01  1.00800000E+00  1.00800000E+00  0.00000000E+00  1.60000000E+01
  1.00800000E+00  1.00800000E+00  0.00000000E+00  1.60000000E+01  1.00800000E+00
  1.00800000E+00  0.00000000E+00  1.60000000E+01  1.00800000E+00  1.00800000E+00
  0.00000000E+00  1.60000000E+01  1.00800000E+00  1.00800000E+00  0.00000000E+00
  1.60000000E+01  1.00800000E+00  1.00800000E+00  0.00000000E+00  1.60000000E+01
  1.00800000E+00  1.00800000E+00  0.00000000E+00  1.60000000E+01  1.00800000E+00
  1.00800000E+00  0.00000000E+00  1.60000000E+01  1.00800000E+00  1.00800000E+00
  0.00000000E+00  1.60000000E+01  1.00800000E+00  1.00800000E+00  0.00000000E+00
  1.60000000E+01  1.00800000E+00  1.00800000E+00  0.00000000E+00  1.60000000E+01
  1.00800000E+00  1.00800000E+00  0.00000000E+00  1.60000000E+01  1.00800000E+00
  1.00800000E+00  0.00000000E+00  1.60000000E+01  1.00800000E+00  1.00800000E+00
  0.00000000E+00  1.60000000E+01  1.00800000E+00  1.00800000E+00  0.00000000E+00
  1.60000000E+01  1.00800000E+00  1.00800000E+00  0.00000000E+00  1.60000000E+01
  1.00800000E+00  1.00800000E+00  0.00000000E+00  1.60000000E+01  1.00800000E+00
  1.00800000E+00  0.00000000E+00  1.60000000E+01  1.00800000E+00  1.00800000E+00
  0.00000000E+00  1.60000000E+01  1.00800000E+00  1.00800000E+00  0.00000000E+00
  1.60000000E+01  1.00800000E+00  1.00800000E+00  0.00000000E+00  1.60000000E+01
  1.00800000E+00  1.00800000E+00  0.00000000E+00  1.60000000E+01  1.00800000E+00
  1.00800000E+00  0.00000000E+00  1.60000000E+01  1.00800000E+00  1.00800000E+00
  0.00000000E+00  1.60000000E+01  1.00800000E+00  1.00800000E+00  0.00000000E+00
  1.60000000E+01  1.00800000E+00  1.00800000E+00  0.00000000E+00  1.60000000E+01
  1.00800000E+00  1.00800000E+00  0.00000000E+00  1.60000000E+01  1.00800000E+00
  1.00800000E+00  0.00000000E+00  1.60000000E+01  1.00800000E+00  1.00800000E+00
  0.00000000E+00  1.60000000E+01  1.00800000E+00  1.00800000E+00  0.00000000E+00
  1.60000000E+01  1.00800000E+00  1.00800000E+00  0.00000000E+00  1.60000000E+01
  1.00800000E+00  1.00800000E+00  0.00000000E+00  1.60000000E+01  1.00800000E+00
  1.00800000E+00  0.00000000E+00  1.60000000E+01  1.00800000E+00  1.00800000E+00
  0.00000000E+00  1.60000000E+01  1.00800000E+00  1.00800000E+00  0.00000000E+00
  1.60000000E+01  1.00800000E+00  1.00800000E+00  0.00000000E+00  1.60000000E+01
  1.00800000E+00  1.00800000E+00  0.00000000E+00  1.60000000E+01  1.00800000E+00
  1.00800000E+00  0.00000000E+00  1.60000000E+01  1.00800000E+00  1.00800000E+00
  0.00000000E+00  1.60000000E+01  1.00800000E+00  1.00800000E+00  0.00000000E+00
  1.60000000E+01  1.00800000E+00  1.00800000E+00  0.00000000E+00  1.60000000E+01
  1.00800000E+00  1.00800000E+00  0.00000000E+00  1.60000000E+01  1.00800000E+00
  1.00800000E+00  0.00000000E+00  1.60000000E+01  1.00800000E+00  1.00800000E+00
  0.00000000E+00  1.60000000E+01  1.00800000E+00  1.00800000E+00  0.00000000E+00
  1.60000000E+01  1.00800000E+00  1.00800000E+00  0.00000000E+00  1.60000000E+01
  1.00800000E+00  1.00800000E+00  0.00000000E+00  1.60000000E+01  1.00800000E+00
  1.00800000E+00  0.00000000E+00  1.60000000E+01  1.00800000E+00  1.00800000E+00
  0.00000000E+00  1.60000000E+01  1.00800000E+00  1.00800000E+00  0.00000000E+00
  1.60000000E+01  1.00800000E+00  1.00800000E+00  0.00000000E+00  1.60000000E+01
  1.00800000E+00  1.00800000E+00  0.00000000E+00  1.60000000E+01  1.00800000E+00
  1.00800000E+00  0.00000000E+00  1.60000000E+01  1.00800000E+00  1.00800000E+00
  0.00000000E+00  1.60000000E+01  1.00800000E+00  1.00800000E+00  0.00000000E+00
  1.60000000E+01  1.00800000E+00  1.00800000E+00  0.00000000E+00  1.60000000E+01
  1.00800000E+00  1.00800000E+00  0.00000000E+00  1.60000000E+01  1.00800000E+00
  1.00800000E+00  0.00000000E+00  1.60000000E+01  1.00800000E+00  1.00800000E+00
  0.00000000E+00  1.60000000E+01  1.00800000E+00  1.00800000E+00  0.00000000E+00
  1.60000000E+01  1.00800000E+00  1.00800000E+00  0.00000000E+00  1.60000000E+01
  1.00800000E+00  1.00800000E+00  0.00000000E+00  1.60000000E+01  1.00800000E+00
  1.00800000E+00  0.00000000E+00  1.60000000E+01  1.00800000E+00  1.00800000E+00
  0.00000000E+00  1.60000000E+01  1.00800000E+00  1.00800000E+00  0.00000000E+00
  1.60000000E+01  1.00800000E+00  1.00800000E+00  0.00000000E+00  1.60000000E+01
  1.00800000E+00  1.00800000E+00  0.00000000E+00  1.60000000E+01  1.00800000E+00
  1.00800000E+00  0.00000000E+00  1.60000000E+01  1.00800000E+00  1.00800000E+00
  0.00000000E+00  1.60000000E+01  1.00800000E+00  1.00800000E+00  0.00000000E+00
  1.60000000E+01  1.00800000E+00  1.00800000E+00  0.00000000E+00  1.60000000E+01
  1.00800000E+00  1.00800000E+00  0.00000000E+00  1.60000000E+01  1.00800000E+00
  1.00800000E+00  0.00000000E+00  1.60000000E+01  1.00800000E+00  1.00800000E+00
  0.00000000E+00  1.60000000E+01  1.00800000E+00  1.00800000E+00  0.00000000E+00
  1.60000000E+01  1.00800000E+00  1.00800000E+00  0.00000000E+00  1.60000000E+01
  1.00800000E+00  1.00800000E+00  0.00000000E+00  1.60000000E+01  1.00800000E+00
  1.00800000E+00  0.00000000E+00  1.60000000E+01  1.00800000E+00  1.00800000E+00
  0.00000000E+00  1.60000000E+01  1.00800000E+00  1.00800000E+00  0.00000000E+00
  1.60000000E+01  1.00800000E+00  1.00800000E+00  0.00000000E+00  1.60000000E+01
  1.00800000E+00  1.00800000E+00  0.00000000E+00  1.60000000E+01  1.00800000E+00
  1.00800000E+00  0.00000000E+00  1.60000000E+01  1.00800000E+00  1.00800000E+00
  0.00000000E+00  1.60000000E+01  1.00800000E+00  1.00800000E+00  0.00000000E+00
  1.60000000E+01  1.00800000E+00  1.00800000E+00  0.00000000E+00  1.60000000E+01
  1.00800000E+00  1.00800000E+00  0.00000000E+00  1.60000000E+01  1.00800000E+00
  1.00800000E+00  0.00000000E+00  1.60000000E+01  1.00800000E+00  1.00800000E+00
  0.00000000E+00  1.60000000E+01  1.00800000E+00  1.00800000E+00  0.00000000E+00
  1.60000000E+01  1.00800000E+00  1.00800000E+00  0.00000000E+00  1.60000000E+01
  1.00800000E+00  1.00800000E+00  0.00000000E+00  1.60000000E+01  1.00800000E+00
  1.00800000E+00  0.00000000E+00  1.60000000E+01  1.00800000E+00  1.00800000E+00
  0.00000000E+00  1.60000000E+01  1.00800000E+00  1.00800000E+00  0.00000000E+00
  1.60000000E+01  1.00800000E+00  1.00800000E+00  0.00000000E+00  1.60000000E+01
  1.00800000E+00  1.00800000E+00  0.00000000E+00  1.60000000E+01  1.00800000E+00
  1.00800000E+00  0.00000000E+00  1.60000000E+01  1.00800000E+00  1.00800000E+00
  0.00000000E+00  1.60000000E+01  1.00800000E+00  1.00800000E+00  0.00000000E+00
  1.60000000E+01  1.00800000E+00  1.00800000E+00  0.00000000E+00  1.60000000E+01
  1.00800000E+00  1.00800000E+00  0.00000000E+00  1.60000000E+01  1.00800000E+00
  1.00800000E+00  0.00000000E+00  1.60000000E+01  1.00800000E+00  1.00800000E+00
  0.00000000E+00  1.60000000E+01  1.00800000E+00  1.00800000E+00  0.00000000E+00
  1.60000000E+01  1.00800000E+00  1.00800000E+00  0.00000000E+00  1.60000000E+01
  1.00800000E+00  1.00800000E+00  0.00000000E+00  1.60000000E+01  1.00800000E+00
  1.00800000E+00  0.00000000E+00  1.60000000E+01  1.00800000E+00  1.00800000E+00
  0.00000000E+00  1.60000000E+01  1.00800000E+00  1.00800000E+00  0.00000000E+00
  1.60000000E+01  1.00800000E+00  1.00800000E+00  0.00000000E+00  1.60000000E+01
  1.00800000E+00  1.00800000E+00  0.00000000E+00  1.60000000E+01  1.00800000E+00
  1.00800000E+00  0.00000000E+00  1.60000000E+01  1.00800000E+00  1.00800000E+00
  0.00000000E+00  1.60000000E+01  1.00800000E+00  1.00800000E+00  0.00000000E+00
  1.60000000E+01  1.00800000E+00  1.00800000E+00  0.00000000E+00  1.60000000E+01
  1.00800000E+00  1.00800000E+00  0.00000000E+00  1.60000000E+01  1.00800000E+00
  1.00800000E+00  0.00000000E+00  1.60000000E+01  1.00800000E+00  1.00800000E+00
  0.00000000E+00  1.60000000E+01  1.00800000E+00  1.00800000E+00  0.00000000E+00
  1.60000000E+01  1.00800000E+00  1.00800000E+00  0.00000000E+00  1.60000000E+01
  1.00800000E+00  1.00800000E+00  0.00000000E+00  1.60000000E+01  1.00800000E+00
  1.00800000E+00  0.00000000E+00  1.60000000E+01  1.00800000E+00  1.00800000E+00
  0.00000000E+00  1.60000000E+01  1.00800000E+00  1.00800000E+00  0.00000000E+00
  1.60000000E+01  1.00800000E+00  1.00800000E+00  0.00000000E+00  1.60000000E+01
  1.00800000E+00  1.00800000E+00  0.00000000E+00  1.60000000E+01  1.00800000E+00
  1.00800000E+00  0.00000000E+00  1.60000000E+01  1.00800000E+00  1.00800000E+00
  0.00000000E+00  1.60000000E+01  1.00800000E+00  1.00800000E+00  0.00000000E+00
  1.60000000E+01  1.00800000E+00  1.00800000E+00  0.00000000E+00  1.60000000E+01
  1.00800000E+00  1.00800000E+00  0.00000000E+00  1.60000000E+01  1.00800000E+00
  1.00800000E+00  0.00000000E+00  1.60000000E+01  1.00800000E+00  1.00800000E+00
  0.00000000E+00  1.60000000E+01  1.00800000E+00  1.00800000E+00  0.00000000E+00
  1.60000000E+01  1.00800000E+00  1.00800000E+00  0.00000000E+00  1.60000000E+01
  1.00800000E+00  1.00800000E+00  0.00000000E+00  1.60000000E+01  1.00800000E+00
  1.00800000E+00  0.00000000E+00  1.60000000E+01  1.00800000E+00  1.00800000E+00
  0.00000000E+00  1.60000000E+01  1.00800000E+00  1.00800000E+00  0.00000000E+00
  1.60000000E+01  1.00800000E+00  1.00800000E+00  0.00000000E+00  1.60000000E+01
  1.00800000E+00  1.00800000E+00  0.00000000E+00  1.60000000E+01  1.00800000E+00
  1.00800000E+00  0.00000000E+00  1.60000000E+01  1.00800000E+00  1.00800000E+00
  0.00000000E+00  1.60000000E+01  1.00800000E+00  1.00800000E+00  0.00000000E+00
  1.60000000E+01  1.00800000E+00  1.00800000E+00  0.00000000E+00  1.60000000E+01
  1.00800000E+00  1.00800000E+00  0.00000000E+00  1.60000000E+01  1.00800000E+00
  1.00800000E+00  0.00000000E+00  1.60000000E+01  1.00800000E+00  1.00800000E+00
  0.00000000E+00  1.60000000E+01  1.00800000E+00  1.00800000E+00  0.00000000E+00
  1.60000000E+01  1.00800000E+00  1.00800000E+00  0.00000000E+00  1.60000000E+01
  1.00800000E+00  1.00800000E+00  0.00000000E+00  1.60000000E+01  1.00800000E+00
  1.00800000E+00  0.00000000E+00  1.60000000E+01  1.00800000E+00  1.00800000E+00
  0.00000000E+00  1.60000000E+01  1.00800000E+00  1.00800000E+00  0.00000000E+00
  1.60000000E+01  1.00800000E+00  1.00800000E+00  0.00000000E+00  1.60000000E+01
  1.00800000E+00  1.00800000E+00  0.00000000E+00  1.60000000E+01  1.00800000E+00
  1.00800000E+00  0.00000000E+00  1.60000000E+01  1.00800000E+00  1.00800000E+00
  0.00000000E+00  1.60000000E+01  1.00800000E+00  1.00800000E+00  0.00000000E+00
  1.60000000E+01  1.00800000E+00  1.00800000E+00  0.00000000E+00  1.60000000E+01
  1.00800000E+00  1.00800000E+00  0.00000000E+00  1.60000000E+01  1.00800000E+00
  1.00800000E+00  0.00000000E+00  1.60000000E+01  1.00800000E+00  1.00800000E+00
  0.00000000E+00  1.60000000E+01  1.00800000E+00  1.00800000E+00  0.00000000E+00
  1.60000000E+01  1.00800000E+00  1.00800000E+00  0.00000000E+00  1.60000000E+01
  1.00800000E+00  1.00800000E+00  0.00000000E+00  1.60000000E+01  1.00800000E+00
  1.00800000E+00  0.00000000E+00  1.60000000E+01  1.00800000E+00  1.00800000E+00
  0.00000000E+00  1.60000000E+01  1.00800000E+00  1.00800000E+00  0.00000000E+00
  1.60000000E+01  1.00800000E+00  1.00800000E+00  0.00000000E+00  1.60000000E+01
  1.00800000E+00  1.00800000E+00  0.00000000E+00  1.60000000E+01  1.00800000E+00
  1.00800000E+00  0.00000000E+00  1.60000000E+01  1.00800000E+00  1.00800000E+00
  0.00000000E+00  1.60000000E+01  1.00800000E+00  1.00800000E+00  0.00000000E+00
  1.60000000E+01  1.00800000E+00  1.00800000E+00  0.00000000E+00  1.60000000E+01
  1.00800000E+00  1.00800000E+00  0.00000000E+00  1.60000000E+01  1.00800000E+00
  1.00800000E+00  0.00000000E+00  1.60000000E+01  1.00800000E+00  1.00800000E+00
  0.00000000E+00  1.60000000E+01  1.00800000E+00  1.00800000E+00  0.00000000E+00
  1.60000000E+01  1.00800000E+00  1.00800000E+00  0.00000000E+00  1.60000000E+01
  1.00800000E+00  1.00800000E+00  0.00000000E+00  1.60000000E+01  1.00800000E+00
  1.00800000E+00  0.00000000E+00  1.60000000E+01  1.00800000E+00  1.00800000E+00
  0.00000000E+00  1.60000000E+01  1.00800000E+00  1.00800000E+00  0.00000000E+00
  1.60000000E+01  1.00800000E+00  1.00800000E+00  0.00000000E+00  1.60000000E+01
  1.00800000E+00  1.00800000E+00  0.00000000E+00  1.60000000E+01  1.00800000E+00
  1.00800000E+00  0.00000000E+00  1.60000000E+01  1.00800000E+00  1.00800000E+00
  0.00000000E+00  1.60000000E+01  1.00800000E+00  1.00800000E+00  0.00000000E+00
  1.60000000E+01  1.00800000E+00  1.00800000E+00  0.00000000E+00  1.60000000E+01
  1.00800000E+00  1.00800000E+00  0.00000000E+00  1.60000000E+01  1.00800000E+00
  1.00800000E+00  0.00000000E+00  1.60000000E+01  1.00800000E+00  1.00800000E+00
  0.00000000E+00  1.60000000E+01  1.00800000E+00  1.00800000E+00  0.00000000E+00
  1.60000000E+01  1.00800000E+00  1.00800000E+00  0.00000000E+00  1.60000000E+01
  1.00800000E+00  1.00800000E+00  0.00000000E+00  1.60000000E+01  1.00800000E+00
  1.00800000E+00  0.00000000E+00  1.60000000E+01  1.00800000E+00  1.00800000E+00
  0.00000000E+00  1.60000000E+01  1.00800000E+00  1.00800000E+00  0.00000000E+00
  1.60000000E+01  1.00800000E+00  1.00800000E+00  0.00000000E+00  1.60000000E+01
  1.00800000E+00  1.00800000E+00  0.00000000E+00  1.60000000E+01  1.00800000E+00
  1.00800000E+00  0.00000000E+00  1.60000000E+01  1.00800000E+00  1.00800000E+00
  0.00000000E+00  1.60000000E+01  1.00800000E+00  1.00800000E+00  0.00000000E+00
  1.60000000E+01  1.00800000E+00  1.00800000E+00  0.00000000E+00  1.60000000E+01
  1.00800000E+00  1.00800000E+00  0.00000000E+00  1.60000000E+01  1.00800000E+00
  1.00800000E+00  0.00000000E+00  1.60000000E+01  1.00800000E+00  1.00800000E+00
  0.00000000E+00  1.60000000E+01  1.00800000E+00  1.00800000E+00  0.00000000E+00
  1.60000000E+01  1.00800000E+00  1.00800000E+00  0.00000000E+00  1.60000000E+01
  1.00800000E+00  1.00800000E+00  0.00000000E+00  1.60000000E+01  1.00800000E+00
  1.00800000E+00  0.00000000E+00  1.60000000E+01  1.00800000E+00  1.00800000E+00
  0.00000000E+00  1.60000000E+01  1.00800000E+00  1.00800000E+00  0.00000000E+00
  1.60000000E+01  1.00800000E+00  1.00800000E+00  0.00000000E+00  1.60000000E+01
  1.00800000E+00  1.00800000E+00  0.00000000E+00  1.60000000E+01  1.00800000E+00
  1.00800000E+00  0.00000000E+00  1.60000000E+01  1.00800000E+00  1.00800000E+00
  0.00000000E+00  1.60000000E+01  1.00800000E+00  1.00800000E+00  0.00000000E+00
  1.60000000E+01  1.00800000E+00  1.00800000E+00  0.00000000E+00  1.60000000E+01
  1.00800000E+00  1.00800000E+00  0.00000000E+00  1.60000000E+01  1.00800000E+00
  1.00800000E+00  0.00000000E+00  1.60000000E+01  1.00800000E+00  1.00800000E+00
  0.00000000E+00  1.60000000E+01  1.00800000E+00  1.00800000E+00  0.00000000E+00
  1.60000000E+01  1.00800000E+00  1.00800000E+00  0.00000000E+00  1.60000000E+01
  1.00800000E+00  1.00800000E+00  0.00000000E+00  1.60000000E+01  1.00800000E+00
  1.00800000E+00  0.00000000E+00  1.60000000E+01  1.00800000E+00  1.00800000E+00
  0.00000000E+00  1.60000000E+01  1.00800000E+00  1.00800000E+00  0.00000000E+00
  1.60000000E+01  1.00800000E+00  1.00800000E+00  0.00000000E+00  1.60000000E+01
  1.00800000E+00  1.00800000E+00  0.00000000E+00  1.60000000E+01  1.00800000E+00
  1.00800000E+00  0.00000000E+00  1.60000000E+01  1.00800000E+00  1.00800000E+00
  0.00000000E+00  1.60000000E+01  1.00800000E+00  1.00800000E+00  0.00000000E+00
  1.60000000E+01  1.00800000E+00  1.00800000E+00  0.00000000E+00  1.60000000E+01
  1.00800000E+00  1.00800000E+00  0.00000000E+00  1.60000000E+01  1.00800000E+00
  1.00800000E+00  0.00000000E+00  1.60000000E+01  1.00800000E+00  1.00800000E+00
  0.00000000E+00  1.60000000E+01  1.00800000E+00  1.00800000E+00  0.00000000E+00
  1.60000000E+01  1.00800000E+00  1.00800000E+00  0.00000000E+00  1.60000000E+01
  1.00800000E+00  1.00800000E+00  0.00000000E+00  1.60000000E+01  1.00800000E+00
  1.00800000E+00  0.00000000E+00  1.60000000E+01  1.00800000E+00  1.00800000E+00
  0.00000000E+00  1.60000000E+01  1.00800000E+00  1.00800000E+00  0.00000000E+00
  1.60000000E+01  1.00800000E+00  1.00800000E+00  0.00000000E+00  1.60000000E+01
  1.00800000E+00  1.00800000E+00  0.00000000E+00  1.60000000E+01  1.00800000E+00
  1.00800000E+00  0.00000000E+00  1.60000000E+01  1.00800000E+00  1.00800000E+00
  0.00000000E+00  1.60000000E+01  1.00800000E+00  1.00800000E+00  0.00000000E+00
  1.60000000E+01  1.00800000E+00  1.00800000E+00  0.00000000E+00  1.60000000E+01
  1.00800000E+00  1.00800000E+00  0.00000000E+00  1.60000000E+01  1.00800000E+00
  1.00800000E+00  0.00000000E+00  1.60000000E+01  1.00800000E+00  1.00800000E+00
  0.00000000E+00  1.60000000E+01  1.00800000E+00  1.00800000E+00  0.00000000E+00
  1.60000000E+01  1.00800000E+00  1.00800000E+00  0.00000000E+00  1.60000000E+01
  1.00800000E+00  1.00800000E+00  0.00000000E+00  1.60000000E+01  1.00800000E+00
  1.00800000E+00  0.00000000E+00  1.60000000E+01  1.00800000E+00  1.00800000E+00
  0.00000000E+00  1.60000000E+01  1.00800000E+00  1.00800000E+00  0.00000000E+00
  1.60000000E+01  1.00800000E+00  1.00800000E+00  0.00000000E+00  1.60000000E+01
  1.00800000E+00  1.00800000E+00  0.00000000E+00  1.60000000E+01  1.00800000E+00
  1.00800000E+00  0.00000000E+00  1.60000000E+01  1.00800000E+00  1.00800000E+00
  0.00000000E+00  1.60000000E+01  1.00800000E+00  1.00800000E+00  0.00000000E+00
  1.60000000E+01  1.00800000E+00  1.00800000E+00  0.00000000E+00  1.60000000E+01
  1.00800000E+00  1.00800000E+00  0.00000000E+00  1.60000000E+01  1.00800000E+00
  1.00800000E+00  0.00000000E+00  1.60000000E+01  1.00800000E+00  1.00800000E+00
  0.00000000E+00  1.60000000E+01  1.00800000E+00  1.00800000E+00  0.00000000E+00
  1.60000000E+01  1.00800000E+00  1.00800000E+00  0.00000000E+00  1.60000000E+01
  1.00800000E+00  1.00800000E+00  0.00000000E+00  1.60000000E+01  1.00800000E+00
  1.00800000E+00  0.00000000E+00  1.60000000E+01  1.00800000E+00  1.00800000E+00
  0.00000000E+00  1.60000000E+01  1.00800000E+00  1.00800000E+00  0.00000000E+00
  1.60000000E+01  1.00800000E+00  1.00800000E+00  0.00000000E+00  1.60000000E+01
  1.00800000E+00  1.00800000E+00  0.00000000E+00  1.60000000E+01  1.00800000E+00
  1.00800000E+00  0.00000000E+00  1.60000000E+01  1.00800000E+00  1.00800000E+00
  0.00000000E+00  1.60000000E+01  1.00800000E+00  1.00800000E+00  0.00000000E+00
  1.60000000E+01  1.00800000E+00  1.00800000E+00  0.00000000E+00  1.60000000E+01
  1.00800000E+00  1.00800000E+00  0.00000000E+00  1.60000000E+01  1.00800000E+00
  1.00800000E+00  0.00000000E+00  1.60000000E+01  1.00800000E+00  1.00800000E+00
  0.00000000E+00  1.60000000E+01  1.00800000E+00  1.00800000E+00  0.00000000E+00
  1.60000000E+01  1.00800000E+00  1.00800000E+00  0.00000000E+00  1.60000000E+01
  1.00800000E+00  1.00800000E+00  0.00000000E+00  1.60000000E+01  1.00800000E+00
  1.00800000E+00  0.00000000E+00  1.60000000E+01  1.00800000E+00  1.00800000E+00
  0.00000000E+00  1.60000000E+01  1.00800000E+00  1.00800000E+00  0.00000000E+00
  1.60000000E+01  1.00800000E+00  1.00800000E+00  0.00000000E+00  1.60000000E+01
  1.00800000E+00  1.00800000E+00  0.00000000E+00  1.60000000E+01  1.00800000E+00
  1.00800000E+00  0.00000000E+00  1.60000000E+01  1.00800000E+00  1.00800000E+00
  0.00000000E+00  1.60000000E+01  1.00800000E+00  1.00800000E+00  0.00000000E+00
  1.60000000E+01  1.00800000E+00  1.00800000E+00  0.00000000E+00  1.60000000E+01
  1.00800000E+00  1.00800000E+00  0.00000000E+00  1.60000000E+01  1.00800000E+00
  1.00800000E+00  0.00000000E+00  1.60000000E+01  1.00800000E+00  1.00800000E+00
  0.00000000E+00  1.60000000E+01  1.00800000E+00  1.00800000E+00  0.00000000E+00
  1.60000000E+01  1.00800000E+00  1.00800000E+00  0.00000000E+00  1.60000000E+01
  1.00800000E+00  1.00800000E+00  0.00000000E+00  1.60000000E+01  1.00800000E+00
  1.00800000E+00  0.00000000E+00  1.60000000E+01  1.00800000E+00  1.00800000E+00
  0.00000000E+00  1.60000000E+01  1.00800000E+00  1.00800000E+00  0.00000000E+00
  1.60000000E+01  1.00800000E+00  1.00800000E+00  0.00000000E+00  1.60000000E+01
  1.00800000E+00  1.00800000E+00  0.00000000E+00  1.60000000E+01  1.00800000E+00
  1.00800000E+00  0.00000000E+00  1.60000000E+01  1.00800000E+00  1.00800000E+00
  0.00000000E+00  1.60000000E+01  1.00800000E+00  1.00800000E+00  0.00000000E+00
  1.60000000E+01  1.00800000E+00  1.00800000E+00  0.00000000E+00  1.60000000E+01
  1.00800000E+00  1.00800000E+00  0.00000000E+00  1.60000000E+01  1.00800000E+00
  1.00800000E+00  0.00000000E+00  1.60000000E+01  1.00800000E+00  1.00800000E+00
  0.00000000E+00  1.60000000E+01  1.00800000E+00  1.00800000E+00  0.00000000E+00
  1.60000000E+01  1.00800000E+00  1.00800000E+00  0.00000000E+00  1.60000000E+01
  1.00800000E+00  1.00800000E+00  0.00000000E+00  1.60000000E+01  1.00800000E+00
  1.00800000E+00  0.00000000E+00  1.60000000E+01  1.00800000E+00  1.00800000E+00
  0.00000000E+00  1.60000000E+01  1.00800000E+00  1.00800000E+00  0.00000000E+00
  1.60000000E+01  1.00800000E+00  1.00800000E+00  0.00000000E+00  1.60000000E+01
  1.00800000E+00  1.00800000E+00  0.00000000E+00  1.60000000E+01  1.00800000E+00
  1.00800000E+00  0.00000000E+00  1.60000000E+01  1.00800000E+00  1.00800000E+00
  0.00000000E+00  1.60000000E+01  1.00800000E+00  1.00800000E+00  0.00000000E+00
  1.60000000E+01  1.00800000E+00  1.00800000E+00  0.00000000E+00  1.60000000E+01
  1.00800000E+00  1.00800000E+00  0.00000000E+00  1.60000000E+01  1.00800000E+00
  1.00800000E+00  0.00000000E+00  1.60000000E+01  1.00800000E+00  1.00800000E+00
  0.00000000E+00  1.60000000E+01  1.00800000E+00  1.00800000E+00  0.00000000E+00
  1.60000000E+01  1.00800000E+00  1.00800000E+00  0.00000000E+00  1.60000000E+01
  1.00800000E+00  1.00800000E+00  0.00000000E+00  1.60000000E+01  1.00800000E+00
  1.00800000E+00  0.00000000E+00  1.60000000E+01  1.00800000E+00  1.00800000E+00
  0.00000000E+00  1.60000000E+01  1.00800000E+00  1.00800000E+00  0.00000000E+00
  1.60000000E+01  1.00800000E+00  1.00800000E+00  0.00000000E+00  1.60000000E+01
  1.00800000E+00  1.00800000E+00  0.00000000E+00  1.60000000E+01  1.00800000E+00
  1.00800000E+00  0.00000000E+00  1.60000000E+01  1.00800000E+00  1.00800000E+00
  0.00000000E+00  1.60000000E+01  1.00800000E+00  1.00800000E+00  0.00000000E+00
  1.60000000E+01  1.00800000E+00  1.00800000E+00  0.00000000E+00  1.60000000E+01
  1.00800000E+00  1.00800000E+00  0.00000000E+00  1.60000000E+01  1.00800000E+00
  1.00800000E+00  0.00000000E+00  1.60000000E+01  1.00800000E+00  1.00800000E+00
  0.00000000E+00  1.60000000E+01  1.00800000E+00  1.00800000E+00  0.00000000E+00
  1.60000000E+01  1.00800000E+00  1.00800000E+00  0.00000000E+00  1.60000000E+01
  1.00800000E+00  1.00800000E+00  0.00000000E+00  1.60000000E+01  1.00800000E+00
  1.00800000E+00  0.00000000E+00  1.60000000E+01  1.00800000E+00  1.00800000E+00
  0.00000000E+00  1.60000000E+01  1.00800000E+00  1.00800000E+00  0.00000000E+00
  1.60000000E+01  1.00800000E+00  1.00800000E+00  0.00000000E+00  1.60000000E+01
  1.00800000E+00  1.00800000E+00  0.00000000E+00  1.60000000E+01  1.00800000E+00
  1.00800000E+00  0.00000000E+00  1.60000000E+01  1.00800000E+00  1.00800000E+00
  0.00000000E+00  1.60000000E+01  1.00800000E+00  1.00800000E+00  0.00000000E+00
  1.60000000E+01  1.00800000E+00  1.00800000E+00  0.00000000E+00  1.60000000E+01
  1.00800000E+00  1.00800000E+00  0.00000000E+00  1.60000000E+01  1.00800000E+00
  1.00800000E+00  0.00000000E+00  1.60000000E+01  1.00800000E+00  1.00800000E+00
  0.00000000E+00  1.60000000E+01  1.00800000E+00  1.00800000E+00  0.00000000E+00
  1.60000000E+01  1.00800000E+00  1.00800000E+00  0.00000000E+00  1.60000000E+01
  1.00800000E+00  1.00800000E+00  0.00000000E+00  1.60000000E+01  1.00800000E+00
  1.00800000E+00  0.00000000E+00  1.60000000E+01  1.00800000E+00  1.00800000E+00
  0.00000000E+00  1.60000000E+01  1.00800000E+00  1.00800000E+00  0.00000000E+00
  1.60000000E+01  1.00800000E+00  1.00800000E+00  0.00000000E+00  1.60000000E+01
  1.00800000E+00  1.00800000E+00  0.00000000E+00  1.60000000E+01  1.00800000E+00
  1.00800000E+00  0.00000000E+00  1.60000000E+01  1.00800000E+00  1.00800000E+00
  0.00000000E+00  1.60000000E+01  1.00800000E+00  1.00800000E+00  0.00000000E+00
  1.60000000E+01  1.00800000E+00  1.00800000E+00  0.00000000E+00  1.60000000E+01
  1.00800000E+00  1.00800000E+00  0.00000000E+00  1.60000000E+01  1.00800000E+00
  1.00800000E+00  0.00000000E+00  1.60000000E+01  1.00800000E+00  1.00800000E+00
  0.00000000E+00  1.60000000E+01  1.00800000E+00  1.00800000E+00  0.00000000E+00
  1.60000000E+01  1.00800000E+00  1.00800000E+00  0.00000000E+00  1.60000000E+01
  1.00800000E+00  1.00800000E+00  0.00000000E+00  1.60000000E+01  1.00800000E+00
  1.00800000E+00  0.00000000E+00  1.60000000E+01  1.00800000E+00  1.00800000E+00
  0.00000000E+00  1.60000000E+01  1.00800000E+00  1.00800000E+00  0.00000000E+00
  1.60000000E+01  1.00800000E+00  1.00800000E+00  0.00000000E+00  1.60000000E+01
  1.00800000E+00  1.00800000E+00  0.00000000E+00  1.60000000E+01  1.00800000E+00
  1.00800000E+00  0.00000000E+00  1.60000000E+01  1.00800000E+00  1.00800000E+00
  0.00000000E+00  1.60000000E+01  1.00800000E+00  1.00800000E+00  0.00000000E+00
  1.60000000E+01  1.00800000E+00  1.00800000E+00  0.00000000E+00  1.60000000E+01
  1.00800000E+00  1.00800000E+00  0.00000000E+00  1.60000000E+01  1.00800000E+00
  1.00800000E+00  0.00000000E+00  1.60000000E+01  1.00800000E+00  1.00800000E+00
  0.00000000E+00  1.60000000E+01  1.00800000E+00  1.00800000E+00  0.00000000E+00
  1.60000000E+01  1.00800000E+00  1.00800000E+00  0.00000000E+00  1.60000000E+01
  1.00800000E+00  1.00800000E+00  0.00000000E+00  1.60000000E+01  1.00800000E+00
  1.00800000E+00  0.00000000E+00  1.60000000E+01  1.00800000E+00  1.00800000E+00
  0.00000000E+00  1.60000000E+01  1.00800000E+00  1.00800000E+00  0.00000000E+00
  1.60000000E+01  1.00800000E+00  1.00800000E+00  0.00000000E+00  1.60000000E+01
  1.00800000E+00  1.00800000E+00  0.00000000E+00  1.60000000E+01  1.00800000E+00
  1.00800000E+00  0.00000000E+00  1.60000000E+01  1.00800000E+00  1.00800000E+00
  0.00000000E+00  1.60000000E+01  1.00800000E+00  1.00800000E+00  0.00000000E+00
  1.60000000E+01  1.00800000E+00  1.00800000E+00  0.00000000E+00  1.60000000E+01
  1.00800000E+00  1.00800000E+00  0.00000000E+00  1.60000000E+01  1.00800000E+00
  1.00800000E+00  0.00000000E+00  1.60000000E+01  1.00800000E+00  1.00800000E+00
  0.00000000E+00  1.60000000E+01  1.00800000E+00  1.00800000E+00  0.00000000E+00
  1.60000000E+01  1.00800000E+00  1.00800000E+00  0.00000000E+00  1.60000000E+01
  1.00800000E+00  1.00800000E+00  0.00000000E+00  1.60000000E+01  1.00800000E+00
  1.00800000E+00  0.00000000E+00  1.60000000E+01  1.00800000E+00  1.00800000E+00
  0.00000000E+00  1.60000000E+01  1.00800000E+00  1.00800000E+00  0.00000000E+00
  1.60000000E+01  1.00800000E+00  1.00800000E+00  0.00000000E+00  1.60000000E+01
  1.00800000E+00  1.00800000E+00  0.00000000E+00  1.60000000E+01  1.00800000E+00
  1.00800000E+00  0.00000000E+00  1.60000000E+01  1.00800000E+00  1.00800000E+00
  0.00000000E+00  1.60000000E+01  1.00800000E+00  1.00800000E+00  0.00000000E+00
  1.60000000E+01  1.00800000E+00  1.00800000E+00  0.00000000E+00  1.60000000E+01
  1.00800000E+00  1.00800000E+00  0.00000000E+00  1.60000000E+01  1.00800000E+00
  1.00800000E+00  0.00000000E+00  1.60000000E+01  1.00800000E+00  1.00800000E+00
  0.00000000E+00  1.60000000E+01  1.00800000E+00  1.00800000E+00  0.00000000E+00
  1.60000000E+01  1.00800000E+00  1.00800000E+00  0.00000000E+00  1.60000000E+01
  1.00800000E+00  1.00800000E+00  0.00000000E+00  1.60000000E+01  1.00800000E+00
  1.00800000E+00  0.00000000E+00  1.60000000E+01  1.00800000E+00  1.00800000E+00
  0.00000000E+00  1.60000000E+01  1.00800000E+00  1.00800000E+00  0.00000000E+00
  1.60000000E+01  1.00800000E+00  1.00800000E+00  0.00000000E+00  1.60000000E+01
  1.00800000E+00  1.00800000E+00  0.00000000E+00  1.60000000E+01  1.00800000E+00
  1.00800000E+00  0.00000000E+00  1.60000000E+01  1.00800000E+00  1.00800000E+00
  0.00000000E+00  1.60000000E+01  1.00800000E+00  1.00800000E+00  0.00000000E+00
  1.60000000E+01  1.00800000E+00  1.00800000E+00  0.00000000E+00  1.60000000E+01
  1.00800000E+00  1.00800000E+00  0.00000000E+00  1.60000000E+01  1.00800000E+00
  1.00800000E+00  0.00000000E+00  1.60000000E+01  1.00800000E+00  1.00800000E+00
  0.00000000E+00  1.60000000E+01  1.00800000E+00  1.00800000E+00  0.00000000E+00
  1.60000000E+01  1.00800000E+00  1.00800000E+00  0.00000000E+00  1.60000000E+01
  1.00800000E+00  1.00800000E+00  0.00000000E+00  1.60000000E+01  1.00800000E+00
  1.00800000E+00  0.00000000E+00  1.60000000E+01  1.00800000E+00  1.00800000E+00
  0.00000000E+00  1.60000000E+01  1.00800000E+00  1.00800000E+00  0.00000000E+00
  1.60000000E+01  1.00800000E+00  1.00800000E+00  0.00000000E+00  1.60000000E+01
  1.00800000E+00  1.00800000E+00  0.00000000E+00  1.60000000E+01  1.00800000E+00
  1.00800000E+00  0.00000000E+00  1.60000000E+01  1.00800000E+00  1.00800000E+00
  0.00000000E+00  1.60000000E+01  1.00800000E+00  1.00800000E+00  0.00000000E+00
  1.60000000E+01  1.00800000E+00  1.00800000E+00  0.00000000E+00  1.60000000E+01
  1.00800000E+00  1.00800000E+00  0.00000000E+00  1.60000000E+01  1.00800000E+00
  1.00800000E+00  0.00000000E+00  1.60000000E+01  1.00800000E+00  1.00800000E+00
  0.00000000E+00  1.60000000E+01  1.00800000E+00  1.00800000E+00  0.00000000E+00
  1.60000000E+01  1.00800000E+00  1.00800000E+00  0.00000000E+00  1.60000000E+01
  1.00800000E+00  1.00800000E+00  0.00000000E+00  1.60000000E+01  1.00800000E+00
  1.00800000E+00  0.00000000E+00  1.60000000E+01  1.00800000E+00  1.00800000E+00
  0.00000000E+00  1.60000000E+01  1.00800000E+00  1.00800000E+00  0.00000000E+00
  1.60000000E+01  1.00800000E+00  1.00800000E+00  0.00000000E+00  1.60000000E+01
  1.00800000E+00  1.00800000E+00  0.00000000E+00  1.60000000E+01  1.00800000E+00
  1.00800000E+00  0.00000000E+00  1.60000000E+01  1.00800000E+00  1.00800000E+00
  0.00000000E+00  1.60000000E+01  1.00800000E+00  1.00800000E+00  0.00000000E+00
  1.60000000E+01  1.00800000E+00  1.00800000E+00  0.00000000E+00  1.60000000E+01
  1.00800000E+00  1.00800000E+00  0.00000000E+00  1.60000000E+01  1.00800000E+00
  1.00800000E+00  0.00000000E+00  1.60000000E+01  1.00800000E+00  1.00800000E+00
  0.00000000E+00  1.60000000E+01  1.00800000E+00  1.00800000E+00  0.00000000E+00
  1.60000000E+01  1.00800000E+00  1.00800000E+00  0.00000000E+00  1.60000000E+01
  1.00800000E+00  1.00800000E+00  0.00000000E+00  1.60000000E+01  1.00800000E+00
  1.00800000E+00  0.00000000E+00  1.60000000E+01  1.00800000E+00  1.00800000E+00
  0.00000000E+00  1.60000000E+01  1.00800000E+00  1.00800000E+00  0.00000000E+00
  1.60000000E+01  1.00800000E+00  1.00800000E+00  0.00000000E+00  1.60000000E+01
  1.00800000E+00  1.00800000E+00  0.00000000E+00  1.60000000E+01  1.00800000E+00
  1.00800000E+00  0.00000000E+00  1.60000000E+01  1.00800000E+00  1.00800000E+00
  0.00000000E+00  1.60000000E+01  1.00800000E+00  1.00800000E+00  0.00000000E+00
  1.60000000E+01  1.00800000E+00  1.00800000E+00  0.00000000E+00  1.60000000E+01
  1.00800000E+00  1.00800000E+00  0.00000000E+00  1.60000000E+01  1.00800000E+00
  1.00800000E+00  0.00000000E+00  1.60000000E+01  1.00800000E+00  1.00800000E+00
  0.00000000E+00  1.60000000E+01  1.00800000E+00  1.00800000E+00  0.00000000E+00
  1.60000000E+01  1.00800000E+00  1.00800000E+00  0.00000000E+00  1.60000000E+01
  1.00800000E+00  1.00800000E+00  0.00000000E+00  1.60000000E+01  1.00800000E+00
  1.00800000E+00  0.00000000E+00  1.60000000E+01  1.00800000E+00  1.00800000E+00
  0.00000000E+00  1.60000000E+01  1.00800000E+00  1.00800000E+00  0.00000000E+00
  1.60000000E+01  1.00800000E+00  1.00800000E+00  0.00000000E+00  1.60000000E+01
  1.00800000E+00  1.00800000E+00  0.00000000E+00  1.60000000E+01  1.00800000E+00
  1.00800000E+00  0.00000000E+00  1.60000000E+01  1.00800000E+00  1.00800000E+00
  0.00000000E+00  1.60000000E+01  1.00800000E+00  1.00800000E+00  0.00000000E+00
  1.60000000E+01  1.00800000E+00  1.00800000E+00  0.00000000E+00  1.60000000E+01
  1.00800000E+00  1.00800000E+00  0.00000000E+00  1.60000000E+01  1.00800000E+00
  1.00800000E+00  0.00000000E+00  1.60000000E+01  1.00800000E+00  1.00800000E+00
  0.00000000E+00  1.60000000E+01  1.00800000E+00  1.00800000E+00  0.00000000E+00
  1.60000000E+01  1.00800000E+00  1.00800000E+00  0.00000000E+00  1.60000000E+01
  1.00800000E+00  1.00800000E+00  0.00000000E+00  1.60000000E+01  1.00800000E+00
  1.00800000E+00  0.00000000E+00  1.60000000E+01  1.00800000E+00  1.00800000E+00
  0.00000000E+00  1.60000000E+01  1.00800000E+00  1.00800000E+00  0.00000000E+00
  1.60000000E+01  1.00800000E+00  1.00800000E+00  0.00000000E+00  1.60000000E+01
  1.00800000E+00  1.00800000E+00  0.00000000E+00  1.60000000E+01  1.00800000E+00
  1.00800000E+00  0.00000000E+00  1.60000000E+01  1.00800000E+00  1.00800000E+00
  0.00000000E+00  1.60000000E+01  1.00800000E+00  1.00800000E+00  0.00000000E+00
  1.60000000E+01  1.00800000E+00  1.00800000E+00  0.00000000E+00  1.60000000E+01
  1.00800000E+00  1.00800000E+00  0.00000000E+00  1.60000000E+01  1.00800000E+00
  1.00800000E+00  0.00000000E+00  1.60000000E+01  1.00800000E+00  1.00800000E+00
  0.00000000E+00  1.60000000E+01  1.00800000E+00  1.00800000E+00  0.00000000E+00
  1.60000000E+01  1.00800000E+00  1.00800000E+00  0.00000000E+00  1.60000000E+01
  1.00800000E+00  1.00800000E+00  0.00000000E+00  1.60000000E+01  1.00800000E+00
  1.00800000E+00  0.00000000E+00  1.60000000E+01  1.00800000E+00  1.00800000E+00
  0.00000000E+00  1.60000000E+01  1.00800000E+00  1.00800000E+00  0.00000000E+00
  1.60000000E+01  1.00800000E+00  1.00800000E+00  0.00000000E+00  1.60000000E+01
  1.00800000E+00  1.00800000E+00  0.00000000E+00  1.60000000E+01  1.00800000E+00
  1.00800000E+00  0.00000000E+00  1.60000000E+01  1.00800000E+00  1.00800000E+00
  0.00000000E+00  1.60000000E+01  1.00800000E+00  1.00800000E+00  0.00000000E+00
  1.60000000E+01  1.00800000E+00  1.00800000E+00  0.00000000E+00  1.60000000E+01
  1.00800000E+00  1.00800000E+00  0.00000000E+00  1.60000000E+01  1.00800000E+00
  1.00800000E+00  0.00000000E+00  1.60000000E+01  1.00800000E+00  1.00800000E+00
  0.00000000E+00  1.60000000E+01  1.00800000E+00  1.00800000E+00  0.00000000E+00
  1.60000000E+01  1.00800000E+00  1.00800000E+00  0.00000000E+00  1.60000000E+01
  1.00800000E+00  1.00800000E+00  0.00000000E+00  1.60000000E+01  1.00800000E+00
  1.00800000E+00  0.00000000E+00  1.60000000E+01  1.00800000E+00  1.00800000E+00
  0.00000000E+00  1.60000000E+01  1.00800000E+00  1.00800000E+00  0.00000000E+00
  1.60000000E+01  1.00800000E+00  1.00800000E+00  0.00000000E+00  1.60000000E+01
  1.00800000E+00  1.00800000E+00  0.00000000E+00  1.60000000E+01  1.00800000E+00
  1.00800000E+00  0.00000000E+00  1.60000000E+01  1.00800000E+00  1.00800000E+00
  0.00000000E+00  1.60000000E+01  1.00800000E+00  1.00800000E+00  0.00000000E+00
  1.60000000E+01  1.00800000E+00  1.00800000E+00  0.00000000E+00  1.60000000E+01
  1.00800000E+00  1.00800000E+00  0.00000000E+00  1.60000000E+01  1.00800000E+00
  1.00800000E+00  0.00000000E+00  1.60000000E+01  1.00800000E+00  1.00800000E+00
  0.00000000E+00  1.60000000E+01  1.00800000E+00  1.00800000E+00  0.00000000E+00
  1.60000000E+01  1.00800000E+00  1.00800000E+00  0.00000000E+00  1.60000000E+01
  1.00800000E+00  1.00800000E+00  0.00000000E+00  1.60000000E+01  1.00800000E+00
  1.00800000E+00  0.00000000E+00  1.60000000E+01  1.00800000E+00  1.00800000E+00
  0.00000000E+00  1.60000000E+01  1.00800000E+00  1.00800000E+00  0.00000000E+00
  1.60000000E+01  1.00800000E+00  1.00800000E+00  0.00000000E+00  1.60000000E+01
  1.00800000E+00  1.00800000E+00  0.00000000E+00  1.60000000E+01  1.00800000E+00
  1.00800000E+00  0.00000000E+00  1.60000000E+01  1.00800000E+00  1.00800000E+00
  0.00000000E+00  1.60000000E+01  1.00800000E+00  1.00800000E+00  0.00000000E+00
  1.60000000E+01  1.00800000E+00  1.00800000E+00  0.00000000E+00  1.60000000E+01
  1.00800000E+00  1.00800000E+00  0.00000000E+00  1.60000000E+01  1.00800000E+00
  1.00800000E+00  0.00000000E+00  1.60000000E+01  1.00800000E+00  1.00800000E+00
  0.00000000E+00  1.60000000E+01  1.00800000E+00  1.00800000E+00  0.00000000E+00
  1.60000000E+01  1.00800000E+00  1.00800000E+00  0.00000000E+00  1.60000000E+01
  1.00800000E+00  1.00800000E+00  0.00000000E+00  1.60000000E+01  1.00800000E+00
  1.00800000E+00  0.00000000E+00  1.60000000E+01  1.00800000E+00  1.00800000E+00
  0.00000000E+00  1.60000000E+01  1.00800000E+00  1.00800000E+00  0.00000000E+00
  1.60000000E+01  1.00800000E+00  1.00800000E+00  0.00000000E+00  1.60000000E+01
  1.00800000E+00  1.00800000E+00  0.00000000E+00  1.60000000E+01  1.00800000E+00
  1.00800000E+00  0.00000000E+00  1.60000000E+01  1.00800000E+00  1.00800000E+00
  0.00000000E+00  1.60000000E+01  1.00800000E+00  1.00800000E+00  0.00000000E+00
  1.60000000E+01  1.00800000E+00  1.00800000E+00  0.00000000E+00  1.60000000E+01
  1.00800000E+00  1.00800000E+00  0.00000000E+00  1.60000000E+01  1.00800000E+00
  1.00800000E+00  0.00000000E+00  1.60000000E+01  1.00800000E+00  1.00800000E+00
  0.00000000E+00  1.60000000E+01  1.00800000E+00  1.00800000E+00  0.00000000E+00
  1.60000000E+01  1.00800000E+00  1.00800000E+00  0.00000000E+00  1.60000000E+01
  1.00800000E+00  1.00800000E+00  0.00000000E+00  1.60000000E+01  1.00800000E+00
  1.00800000E+00  0.00000000E+00  1.60000000E+01  1.00800000E+00  1.00800000E+00
  0.00000000E+00  1.60000000E+01  1.00800000E+00  1.00800000E+00  0.00000000E+00
  1.60000000E+01  1.00800000E+00  1.00800000E+00  0.00000000E+00  1.60000000E+01
  1.00800000E+00  1.00800000E+00  0.00000000E+00  1.60000000E+01  1.00800000E+00
  1.00800000E+00  0.00000000E+00  1.60000000E+01  1.00800000E+00  1.00800000E+00
  0.00000000E+00  1.60000000E+01  1.00800000E+00  1.00800000E+00  0.00000000E+00
  1.60000000E+01  1.00800000E+00  1.00800000E+00  0.00000000E+00  1.60000000E+01
  1.00800000E+00  1.00800000E+00  0.00000000E+00  1.60000000E+01  1.00800000E+00
  1.00800000E+00  0.00000000E+00  1.60000000E+01  1.00800000E+00  1.00800000E+00
  0.00000000E+00  1.60000000E+01  1.00800000E+00  1.00800000E+00  0.00000000E+00
  1.60000000E+01  1.00800000E+00  1.00800000E+00  0.00000000E+00  1.60000000E+01
  1.00800000E+00  1.00800000E+00  0.00000000E+00  1.60000000E+01  1.00800000E+00
  1.00800000E+00  0.00000000E+00  1.60000000E+01  1.00800000E+00  1.00800000E+00
  0.00000000E+00  1.60000000E+01  1.00800000E+00  1.00800000E+00  0.00000000E+00
  1.60000000E+01  1.00800000E+00  1.00800000E+00  0.00000000E+00  1.60000000E+01
  1.00800000E+00  1.00800000E+00  0.00000000E+00  1.60000000E+01  1.00800000E+00
  1.00800000E+00  0.00000000E+00  1.60000000E+01  1.00800000E+00  1.00800000E+00
  0.00000000E+00  1.60000000E+01  1.00800000E+00  1.00800000E+00  0.00000000E+00
  1.60000000E+01  1.00800000E+00  1.00800000E+00  0.00000000E+00  1.60000000E+01
  1.00800000E+00  1.00800000E+00  0.00000000E+00  1.60000000E+01  1.00800000E+00
  1.00800000E+00  0.00000000E+00  1.60000000E+01  1.00800000E+00  1.00800000E+00
  0.00000000E+00  1.60000000E+01  1.00800000E+00  1.00800000E+00  0.00000000E+00
  1.60000000E+01  1.00800000E+00  1.00800000E+00  0.00000000E+00  1.60000000E+01
  1.00800000E+00  1.00800000E+00  0.00000000E+00  1.60000000E+01  1.00800000E+00
  1.00800000E+00  0.00000000E+00  1.60000000E+01  1.00800000E+00  1.00800000E+00
  0.00000000E+00  1.60000000E+01  1.00800000E+00  1.00800000E+00  0.00000000E+00
  1.60000000E+01  1.00800000E+00  1.00800000E+00  0.00000000E+00  1.60000000E+01
  1.00800000E+00  1.00800000E+00  0.00000000E+00  1.60000000E+01  1.00800000E+00
  1.00800000E+00  0.00000000E+00  1.60000000E+01  1.00800000E+00  1.00800000E+00
  0.00000000E+00  1.60000000E+01  1.00800000E+00  1.00800000E+00  0.00000000E+00
  1.60000000E+01  1.00800000E+00  1.00800000E+00  0.00000000E+00  1.60000000E+01
  1.00800000E+00  1.00800000E+00  0.00000000E+00  1.60000000E+01  1.00800000E+00
  1.00800000E+00  0.00000000E+00  1.60000000E+01  1.00800000E+00  1.00800000E+00
  0.00000000E+00  1.60000000E+01  1.00800000E+00  1.00800000E+00  0.00000000E+00
  1.60000000E+01  1.00800000E+00  1.00800000E+00  0.00000000E+00  1.60000000E+01
  1.00800000E+00  1.00800000E+00  0.00000000E+00  1.60000000E+01  1.00800000E+00
  1.00800000E+00  0.00000000E+00  1.60000000E+01  1.00800000E+00  1.00800000E+00
  0.00000000E+00  1.60000000E+01  1.00800000E+00  1.00800000E+00  0.00000000E+00
  1.60000000E+01  1.00800000E+00  1.00800000E+00  0.00000000E+00  1.60000000E+01
  1.00800000E+00  1.00800000E+00  0.00000000E+00  1.60000000E+01  1.00800000E+00
  1.00800000E+00  0.00000000E+00  1.60000000E+01  1.00800000E+00  1.00800000E+00
  0.00000000E+00  1.60000000E+01  1.00800000E+00  1.00800000E+00  0.00000000E+00
  1.60000000E+01  1.00800000E+00  1.00800000E+00  0.00000000E+00  1.60000000E+01
  1.00800000E+00  1.00800000E+00  0.00000000E+00  1.60000000E+01  1.00800000E+00
  1.00800000E+00  0.00000000E+00  1.60000000E+01  1.00800000E+00  1.00800000E+00
  0.00000000E+00  1.60000000E+01  1.00800000E+00  1.00800000E+00  0.00000000E+00
  1.60000000E+01  1.00800000E+00  1.00800000E+00  0.00000000E+00  1.60000000E+01
  1.00800000E+00  1.00800000E+00  0.00000000E+00  1.60000000E+01  1.00800000E+00
  1.00800000E+00  0.00000000E+00  1.60000000E+01  1.00800000E+00  1.00800000E+00
  0.00000000E+00  1.60000000E+01  1.00800000E+00  1.00800000E+00  0.00000000E+00
  1.60000000E+01  1.00800000E+00  1.00800000E+00  0.00000000E+00  1.60000000E+01
  1.00800000E+00  1.00800000E+00  0.00000000E+00  1.60000000E+01  1.00800000E+00
  1.00800000E+00  0.00000000E+00  1.60000000E+01  1.00800000E+00  1.00800000E+00
  0.00000000E+00  1.60000000E+01  1.00800000E+00  1.00800000E+00  0.00000000E+00
  1.60000000E+01  1.00800000E+00  1.00800000E+00  0.00000000E+00  1.60000000E+01
  1.00800000E+00  1.00800000E+00  0.00000000E+00  1.60000000E+01  1.00800000E+00
  1.00800000E+00  0.00000000E+00  1.60000000E+01  1.00800000E+00  1.00800000E+00
  0.00000000E+00  1.60000000E+01  1.00800000E+00  1.00800000E+00  0.00000000E+00
  1.60000000E+01  1.00800000E+00  1.00800000E+00  0.00000000E+00  1.60000000E+01
  1.00800000E+00  1.00800000E+00  0.00000000E+00  1.60000000E+01  1.00800000E+00
  1.00800000E+00  0.00000000E+00  1.60000000E+01  1.00800000E+00  1.00800000E+00
  0.00000000E+00  1.60000000E+01  1.00800000E+00  1.00800000E+00  0.00000000E+00
  1.60000000E+01  1.00800000E+00  1.00800000E+00  0.00000000E+00  1.60000000E+01
  1.00800000E+00  1.00800000E+00  0.00000000E+00  1.60000000E+01  1.00800000E+00
  1.00800000E+00  0.00000000E+00  1.60000000E+01  1.00800000E+00  1.00800000E+00
  0.00000000E+00  1.60000000E+01  1.00800000E+00  1.00800000E+00  0.00000000E+00
  1.60000000E+01  1.00800000E+00  1.00800000E+00  0.00000000E+00  1.60000000E+01
  1.00800000E+00  1.00800000E+00  0.00000000E+00  1.60000000E+01  1.00800000E+00
  1.00800000E+00  0.00000000E+00  1.60000000E+01  1.00800000E+00  1.00800000E+00
  0.00000000E+00  1.60000000E+01  1.00800000E+00  1.00800000E+00  0.00000000E+00
  1.60000000E+01  1.00800000E+00  1.00800000E+00  0.00000000E+00  1.60000000E+01
  1.00800000E+00  1.00800000E+00  0.00000000E+00  1.60000000E+01  1.00800000E+00
  1.00800000E+00  0.00000000E+00  1.60000000E+01  1.00800000E+00  1.00800000E+00
  0.00000000E+00  1.60000000E+01  1.00800000E+00  1.00800000E+00  0.00000000E+00
  1.60000000E+01  1.00800000E+00  1.00800000E+00  0.00000000E+00  1.60000000E+01
  1.00800000E+00  1.00800000E+00  0.00000000E+00  1.60000000E+01  1.00800000E+00
  1.00800000E+00  0.00000000E+00  1.60000000E+01  1.00800000E+00  1.00800000E+00
  0.00000000E+00  1.60000000E+01  1.00800000E+00  1.00800000E+00  0.00000000E+00
  1.60000000E+01  1.00800000E+00  1.00800000E+00  0.00000000E+00  1.60000000E+01
  1.00800000E+00  1.00800000E+00  0.00000000E+00  1.60000000E+01  1.00800000E+00
  1.00800000E+00  0.00000000E+00  1.60000000E+01  1.00800000E+00  1.00800000E+00
  0.00000000E+00  1.60000000E+01  1.00800000E+00  1.00800000E+00  0.00000000E+00
  1.60000000E+01  1.00800000E+00  1.00800000E+00  0.00000000E+00  1.60000000E+01
  1.00800000E+00  1.00800000E+00  0.00000000E+00  1.60000000E+01  1.00800000E+00
  1.00800000E+00  0.00000000E+00  1.60000000E+01  1.00800000E+00  1.00800000E+00
  0.00000000E+00  1.60000000E+01  1.00800000E+00  1.00800000E+00  0.00000000E+00
  1.60000000E+01  1.00800000E+00  1.00800000E+00  0.00000000E+00  1.60000000E+01
  1.00800000E+00  1.00800000E+00  0.00000000E+00  1.60000000E+01  1.00800000E+00
  1.00800000E+00  0.00000000E+00  1.60000000E+01  1.00800000E+00  1.00800000E+00
  0.00000000E+00  1.60000000E+01  1.00800000E+00  1.00800000E+00  0.00000000E+00
  1.60000000E+01  1.00800000E+00  1.00800000E+00  0.00000000E+00  1.60000000E+01
  1.00800000E+00  1.00800000E+00  0.00000000E+00  1.60000000E+01  1.00800000E+00
  1.00800000E+00  0.00000000E+00  1.60000000E+01  1.00800000E+00  1.00800000E+00
  0.00000000E+00  1.60000000E+01  1.00800000E+00  1.00800000E+00  0.00000000E+00
  1.60000000E+01  1.00800000E+00  1.00800000E+00  0.00000000E+00  1.60000000E+01
  1.00800000E+00  1.00800000E+00  0.00000000E+00  1.60000000E+01  1.00800000E+00
  1.00800000E+00  0.00000000E+00  1.60000000E+01  1.00800000E+00  1.00800000E+00
  0.00000000E+00  1.60000000E+01  1.00800000E+00  1.00800000E+00  0.00000000E+00
  1.60000000E+01  1.00800000E+00  1.00800000E+00  0.00000000E+00  1.60000000E+01
  1.00800000E+00  1.00800000E+00  0.00000000E+00  1.60000000E+01  1.00800000E+00
  1.00800000E+00  0.00000000E+00  1.60000000E+01  1.00800000E+00  1.00800000E+00
  0.00000000E+00  1.60000000E+01  1.00800000E+00  1.00800000E+00  0.00000000E+00
  1.60000000E+01  1.00800000E+00  1.00800000E+00  0.00000000E+00  1.60000000E+01
  1.00800000E+00  1.00800000E+00  0.00000000E+00  1.60000000E+01  1.00800000E+00
  1.00800000E+00  0.00000000E+00  1.60000000E+01  1.00800000E+00  1.00800000E+00
  0.00000000E+00  1.60000000E+01  1.00800000E+00  1.00800000E+00  0.00000000E+00
  1.60000000E+01  1.00800000E+00  1.00800000E+00  0.00000000E+00  1.60000000E+01
  1.00800000E+00  1.00800000E+00  0.00000000E+00  1.60000000E+01  1.00800000E+00
  1.00800000E+00  0.00000000E+00  1.60000000E+01  1.00800000E+00  1.00800000E+00
  0.00000000E+00  1.60000000E+01  1.00800000E+00  1.00800000E+00  0.00000000E+00
  1.60000000E+01  1.00800000E+00  1.00800000E+00  0.00000000E+00  1.60000000E+01
  1.00800000E+00  1.00800000E+00  0.00000000E+00  1.60000000E+01  1.00800000E+00
  1.00800000E+00  0.00000000E+00  1.60000000E+01  1.00800000E+00  1.00800000E+00
  0.00000000E+00  1.60000000E+01  1.00800000E+00  1.00800000E+00  0.00000000E+00
  1.60000000E+01  1.00800000E+00  1.00800000E+00  0.00000000E+00  1.60000000E+01
  1.00800000E+00  1.00800000E+00  0.00000000E+00  1.60000000E+01  1.00800000E+00
  1.00800000E+00  0.00000000E+00  1.60000000E+01  1.00800000E+00  1.00800000E+00
  0.00000000E+00  1.60000000E+01  1.00800000E+00  1.00800000E+00  0.00000000E+00
  1.60000000E+01  1.00800000E+00  1.00800000E+00  0.00000000E+00  1.60000000E+01
  1.00800000E+00  1.00800000E+00  0.00000000E+00  1.60000000E+01  1.00800000E+00
  1.00800000E+00  0.00000000E+00  1.60000000E+01  1.00800000E+00  1.00800000E+00
  0.00000000E+00  1.60000000E+01  1.00800000E+00  1.00800000E+00  0.00000000E+00
  1.60000000E+01  1.00800000E+00  1.00800000E+00  0.00000000E+00  1.60000000E+01
  1.00800000E+00  1.00800000E+00  0.00000000E+00  1.60000000E+01  1.00800000E+00
  1.00800000E+00  0.00000000E+00  1.60000000E+01  1.00800000E+00  1.00800000E+00
  0.00000000E+00  1.60000000E+01  1.00800000E+00  1.00800000E+00  0.00000000E+00
  1.60000000E+01  1.00800000E+00  1.00800000E+00  0.00000000E+00  1.60000000E+01
  1.00800000E+00  1.00800000E+00  0.00000000E+00  1.60000000E+01  1.00800000E+00
  1.00800000E+00  0.00000000E+00  1.60000000E+01  1.00800000E+00  1.00800000E+00
  0.00000000E+00  1.60000000E+01  1.00800000E+00  1.00800000E+00  0.00000000E+00
  1.60000000E+01  1.00800000E+00  1.00800000E+00  0.00000000E+00  1.60000000E+01
  1.00800000E+00  1.00800000E+00  0.00000000E+00  1.60000000E+01  1.00800000E+00
  1.00800000E+00  0.00000000E+00  1.60000000E+01  1.00800000E+00  1.00800000E+00
  0.00000000E+00  1.60000000E+01  1.00800000E+00  1.00800000E+00  0.00000000E+00
  1.60000000E+01  1.00800000E+00  1.00800000E+00  0.00000000E+00  1.60000000E+01
  1.00800000E+00  1.00800000E+00  0.00000000E+00  1.60000000E+01  1.00800000E+00
  1.00800000E+00  0.00000000E+00  1.60000000E+01  1.00800000E+00  1.00800000E+00
  0.00000000E+00  1.60000000E+01  1.00800000E+00  1.00800000E+00  0.00000000E+00
  1.60000000E+01  1.00800000E+00  1.00800000E+00  0.00000000E+00  1.60000000E+01
  1.00800000E+00  1.00800000E+00  0.00000000E+00  1.60000000E+01  1.00800000E+00
  1.00800000E+00  0.00000000E+00  1.60000000E+01  1.00800000E+00  1.00800000E+00
  0.00000000E+00  1.60000000E+01  1.00800000E+00  1.00800000E+00  0.00000000E+00
  1.60000000E+01  1.00800000E+00  1.00800000E+00  0.00000000E+00  1.60000000E+01
  1.00800000E+00  1.00800000E+00  0.00000000E+00  1.60000000E+01  1.00800000E+00
  1.00800000E+00  0.00000000E+00  1.60000000E+01  1.00800000E+00  1.00800000E+00
  0.00000000E+00  1.60000000E+01  1.00800000E+00  1.00800000E+00  0.00000000E+00
  1.60000000E+01  1.00800000E+00  1.00800000E+00  0.00000000E+00  1.60000000E+01
  1.00800000E+00  1.00800000E+00  0.00000000E+00  1.60000000E+01  1.00800000E+00
  1.00800000E+00  0.00000000E+00  1.60000000E+01  1.00800000E+00  1.00800000E+00
  0.00000000E+00  1.60000000E+01  1.00800000E+00  1.00800000E+00  0.00000000E+00
  1.60000000E+01  1.00800000E+00  1.00800000E+00  0.00000000E+00  1.60000000E+01
  1.00800000E+00  1.00800000E+00  0.00000000E+00  1.60000000E+01  1.00800000E+00
  1.00800000E+00  0.00000000E+00  1.60000000E+01  1.00800000E+00  1.00800000E+00
  0.00000000E+00  1.60000000E+01  1.00800000E+00  1.00800000E+00  0.00000000E+00
  1.60000000E+01  1.00800000E+00  1.00800000E+00  0.00000000E+00  1.60000000E+01
  1.00800000E+00  1.00800000E+00  0.00000000E+00  1.60000000E+01  1.00800000E+00
  1.00800000E+00  0.00000000E+00  1.60000000E+01  1.00800000E+00  1.00800000E+00
  0.00000000E+00  1.60000000E+01  1.00800000E+00  1.00800000E+00  0.00000000E+00
  1.60000000E+01  1.00800000E+00  1.00800000E+00  0.00000000E+00  1.60000000E+01
  1.00800000E+00  1.00800000E+00  0.00000000E+00  1.60000000E+01  1.00800000E+00
  1.00800000E+00  0.00000000E+00  1.60000000E+01  1.00800000E+00  1.00800000E+00
  0.00000000E+00  1.60000000E+01  1.00800000E+00  1.00800000E+00  0.00000000E+00
  1.60000000E+01  1.00800000E+00  1.00800000E+00  0.00000000E+00  1.60000000E+01
  1.00800000E+00  1.00800000E+00  0.00000000E+00  1.60000000E+01  1.00800000E+00
  1.00800000E+00  0.00000000E+00  1.60000000E+01  1.00800000E+00  1.00800000E+00
  0.00000000E+00  1.60000000E+01  1.00800000E+00  1.00800000E+00  0.00000000E+00
  1.60000000E+01  1.00800000E+00  1.00800000E+00  0.00000000E+00  1.60000000E+01
  1.00800000E+00  1.00800000E+00  0.00000000E+00  1.60000000E+01  1.00800000E+00
  1.00800000E+00  0.00000000E+00  1.60000000E+01  1.00800000E+00  1.00800000E+00
  0.00000000E+00  1.60000000E+01  1.00800000E+00  1.00800000E+00  0.00000000E+00
  1.60000000E+01  1.00800000E+00  1.00800000E+00  0.00000000E+00  1.60000000E+01
  1.00800000E+00  1.00800000E+00  0.00000000E+00  1.60000000E+01  1.00800000E+00
  1.00800000E+00  0.00000000E+00  1.60000000E+01  1.00800000E+00  1.00800000E+00
  0.00000000E+00  1.60000000E+01  1.00800000E+00  1.00800000E+00  0.00000000E+00
  1.60000000E+01  1.00800000E+00  1.00800000E+00  0.00000000E+00  1.60000000E+01
  1.00800000E+00  1.00800000E+00  0.00000000E+00  1.60000000E+01  1.00800000E+00
  1.00800000E+00  0.00000000E+00  1.60000000E+01  1.00800000E+00  1.00800000E+00
  0.00000000E+00  1.60000000E+01  1.00800000E+00  1.00800000E+00  0.00000000E+00
  1.60000000E+01  1.00800000E+00  1.00800000E+00  0.00000000E+00  1.60000000E+01
  1.00800000E+00  1.00800000E+00  0.00000000E+00  1.60000000E+01  1.00800000E+00
  1.00800000E+00  0.00000000E+00  1.60000000E+01  1.00800000E+00  1.00800000E+00
  0.00000000E+00  1.60000000E+01  1.00800000E+00  1.00800000E+00  0.00000000E+00
  1.60000000E+01  1.00800000E+00  1.00800000E+00  0.00000000E+00  1.60000000E+01
  1.00800000E+00  1.00800000E+00  0.00000000E+00  1.60000000E+01  1.00800000E+00
  1.00800000E+00  0.00000000E+00  1.60000000E+01  1.00800000E+00  1.00800000E+00
  0.00000000E+00  1.60000000E+01  1.00800000E+00  1.00800000E+00  0.00000000E+00
  1.60000000E+01  1.00800000E+00  1.00800000E+00  0.00000000E+00  1.60000000E+01
  1.00800000E+00  1.00800000E+00  0.00000000E+00  1.60000000E+01  1.00800000E+00
  1.00800000E+00  0.00000000E+00  1.60000000E+01  1.00800000E+00  1.00800000E+00
  0.00000000E+00  1.60000000E+01  1.00800000E+00  1.00800000E+00  0.00000000E+00
  1.60000000E+01  1.00800000E+00  1.00800000E+00  0.00000000E+00  1.60000000E+01
  1.00800000E+00  1.00800000E+00  0.00000000E+00  1.60000000E+01  1.00800000E+00
  1.00800000E+00  0.00000000E+00  1.60000000E+01  1.00800000E+00  1.00800000E+00
  0.00000000E+00  1.60000000E+01  1.00800000E+00  1.00800000E+00  0.00000000E+00
  1.60000000E+01  1.00800000E+00  1.00800000E+00  0.00000000E+00  1.60000000E+01
  1.00800000E+00  1.00800000E+00  0.00000000E+00  1.60000000E+01  1.00800000E+00
  1.00800000E+00  0.00000000E+00  1.60000000E+01  1.00800000E+00  1.00800000E+00
  0.00000000E+00  1.60000000E+01  1.00800000E+00  1.00800000E+00  0.00000000E+00
  1.60000000E+01  1.00800000E+00  1.00800000E+00  0.00000000E+00  1.60000000E+01
  1.00800000E+00  1.00800000E+00  0.00000000E+00  1.60000000E+01  1.00800000E+00
  1.00800000E+00  0.00000000E+00  1.60000000E+01  1.00800000E+00  1.00800000E+00
  0.00000000E+00  1.60000000E+01  1.00800000E+00  1.00800000E+00  0.00000000E+00
  1.60000000E+01  1.00800000E+00  1.00800000E+00  0.00000000E+00  1.60000000E+01
  1.00800000E+00  1.00800000E+00  0.00000000E+00  1.60000000E+01  1.00800000E+00
  1.00800000E+00  0.00000000E+00  1.60000000E+01  1.00800000E+00  1.00800000E+00
  0.00000000E+00  1.60000000E+01  1.00800000E+00  1.00800000E+00  0.00000000E+00
  1.60000000E+01  1.00800000E+00  1.00800000E+00  0.00000000E+00  1.60000000E+01
  1.00800000E+00  1.00800000E+00  0.00000000E+00  1.60000000E+01  1.00800000E+00
  1.00800000E+00  0.00000000E+00  1.60000000E+01  1.00800000E+00  1.00800000E+00
  0.00000000E+00  1.60000000E+01  1.00800000E+00  1.00800000E+00  0.00000000E+00
  1.60000000E+01  1.00800000E+00  1.00800000E+00  0.00000000E+00  1.60000000E+01
  1.00800000E+00  1.00800000E+00  0.00000000E+00  1.60000000E+01  1.00800000E+00
  1.00800000E+00  0.00000000E+00  1.60000000E+01  1.00800000E+00  1.00800000E+00
  0.00000000E+00  1.60000000E+01  1.00800000E+00  1.00800000E+00  0.00000000E+00
  1.60000000E+01  1.00800000E+00  1.00800000E+00  0.00000000E+00  1.60000000E+01
  1.00800000E+00  1.00800000E+00  0.00000000E+00  1.60000000E+01  1.00800000E+00
  1.00800000E+00  0.00000000E+00  1.60000000E+01  1.00800000E+00  1.00800000E+00
  0.00000000E+00  1.60000000E+01  1.00800000E+00  1.00800000E+00  0.00000000E+00
  1.60000000E+01  1.00800000E+00  1.00800000E+00  0.00000000E+00  1.60000000E+01
  1.00800000E+00  1.00800000E+00  0.00000000E+00  1.60000000E+01  1.00800000E+00
  1.00800000E+00  0.00000000E+00  1.60000000E+01  1.00800000E+00  1.00800000E+00
  0.00000000E+00  1.60000000E+01  1.00800000E+00  1.00800000E+00  0.00000000E+00
  1.60000000E+01  1.00800000E+00  1.00800000E+00  0.00000000E+00  1.60000000E+01
  1.00800000E+00  1.00800000E+00  0.00000000E+00  1.60000000E+01  1.00800000E+00
  1.00800000E+00  0.00000000E+00  1.60000000E+01  1.00800000E+00  1.00800000E+00
  0.00000000E+00  1.60000000E+01  1.00800000E+00  1.00800000E+00  0.00000000E+00
  1.60000000E+01  1.00800000E+00  1.00800000E+00  0.00000000E+00  1.60000000E+01
  1.00800000E+00  1.00800000E+00  0.00000000E+00  1.60000000E+01  1.00800000E+00
  1.00800000E+00  0.00000000E+00  1.60000000E+01  1.00800000E+00  1.00800000E+00
  0.00000000E+00  1.60000000E+01  1.00800000E+00  1.00800000E+00  0.00000000E+00
  1.60000000E+01  1.00800000E+00  1.00800000E+00  0.00000000E+00  1.60000000E+01
  1.00800000E+00  1.00800000E+00  0.00000000E+00  1.60000000E+01  1.00800000E+00
  1.00800000E+00  0.00000000E+00  1.60000000E+01  1.00800000E+00  1.00800000E+00
  0.00000000E+00  1.60000000E+01  1.00800000E+00  1.00800000E+00  0.00000000E+00
  1.60000000E+01  1.00800000E+00  1.00800000E+00  0.00000000E+00  1.60000000E+01
  1.00800000E+00  1.00800000E+00  0.00000000E+00  1.60000000E+01  1.00800000E+00
  1.00800000E+00  0.00000000E+00  1.60000000E+01  1.00800000E+00  1.00800000E+00
  0.00000000E+00  1.60000000E+01  1.00800000E+00  1.00800000E+00  0.00000000E+00
  1.60000000E+01  1.00800000E+00  1.00800000E+00  0.00000000E+00  1.60000000E+01
  1.00800000E+00  1.00800000E+00  0.00000000E+00  1.60000000E+01  1.00800000E+00
  1.00800000E+00  0.00000000E+00  1.60000000E+01  1.00800000E+00  1.00800000E+00
  0.00000000E+00  1.60000000E+01  1.00800000E+00  1.00800000E+00  0.00000000E+00
  1.60000000E+01  1.00800000E+00  1.00800000E+00  0.00000000E+00  1.60000000E+01
  1.00800000E+00  1.00800000E+00  0.00000000E+00  1.60000000E+01  1.00800000E+00
  1.00800000E+00  0.00000000E+00  1.60000000E+01  1.00800000E+00  1.00800000E+00
  0.00000000E+00  1.60000000E+01  1.00800000E+00  1.00800000E+00  0.00000000E+00
  1.60000000E+01  1.00800000E+00  1.00800000E+00  0.00000000E+00  1.60000000E+01
  1.00800000E+00  1.00800000E+00  0.00000000E+00  1.60000000E+01  1.00800000E+00
  1.00800000E+00  0.00000000E+00  1.60000000E+01  1.00800000E+00  1.00800000E+00
  0.00000000E+00  1.60000000E+01  1.00800000E+00  1.00800000E+00  0.00000000E+00
  1.60000000E+01  1.00800000E+00  1.00800000E+00  0.00000000E+00  1.60000000E+01
  1.00800000E+00  1.00800000E+00  0.00000000E+00  1.60000000E+01  1.00800000E+00
  1.00800000E+00  0.00000000E+00  1.60000000E+01  1.00800000E+00  1.00800000E+00
  0.00000000E+00  1.60000000E+01  1.00800000E+00  1.00800000E+00  0.00000000E+00
  1.60000000E+01  1.00800000E+00  1.00800000E+00  0.00000000E+00  1.60000000E+01
  1.00800000E+00  1.00800000E+00  0.00000000E+00  1.60000000E+01  1.00800000E+00
  1.00800000E+00  0.00000000E+00  1.60000000E+01  1.00800000E+00  1.00800000E+00
  0.00000000E+00  1.60000000E+01  1.00800000E+00  1.00800000E+00  0.00000000E+00
  1.60000000E+01  1.00800000E+00  1.00800000E+00  0.00000000E+00  1.60000000E+01
  1.00800000E+00  1.00800000E+00  0.00000000E+00  1.60000000E+01  1.00800000E+00
  1.00800000E+00  0.00000000E+00  1.60000000E+01  1.00800000E+00  1.00800000E+00
  0.00000000E+00  1.60000000E+01  1.00800000E+00  1.00800000E+00  0.00000000E+00
  1.60000000E+01  1.00800000E+00  1.00800000E+00  0.00000000E+00  1.60000000E+01
  1.00800000E+00  1.00800000E+00  0.00000000E+00  1.60000000E+01  1.00800000E+00
  1.00800000E+00  0.00000000E+00  1.60000000E+01  1.00800000E+00  1.00800000E+00
  0.00000000E+00  1.60000000E+01  1.00800000E+00  1.00800000E+00  0.00000000E+00
  1.60000000E+01  1.00800000E+00  1.00800000E+00  0.00000000E+00  1.60000000E+01
  1.00800000E+00  1.00800000E+00  0.00000000E+00  1.60000000E+01  1.00800000E+00
  1.00800000E+00  0.00000000E+00  1.60000000E+01  1.00800000E+00  1.00800000E+00
  0.00000000E+00  1.60000000E+01  1.00800000E+00  1.00800000E+00  0.00000000E+00
  1.60000000E+01  1.00800000E+00  1.00800000E+00  0.00000000E+00  1.60000000E+01
  1.00800000E+00  1.00800000E+00  0.00000000E+00  1.60000000E+01  1.00800000E+00
  1.00800000E+00  0.00000000E+00  1.60000000E+01  1.00800000E+00  1.00800000E+00
  0.00000000E+00  1.60000000E+01  1.00800000E+00  1.00800000E+00  0.00000000E+00
  1.60000000E+01  1.00800000E+00  1.00800000E+00  0.00000000E+00  1.60000000E+01
  1.00800000E+00  1.00800000E+00  0.00000000E+00  1.60000000E+01  1.00800000E+00
  1.00800000E+00  0.00000000E+00  1.60000000E+01  1.00800000E+00  1.00800000E+00
  0.00000000E+00  1.60000000E+01  1.00800000E+00  1.00800000E+00  0.00000000E+00
  1.60000000E+01  1.00800000E+00  1.00800000E+00  0.00000000E+00  1.60000000E+01
  1.00800000E+00  1.00800000E+00  0.00000000E+00  1.60000000E+01  1.00800000E+00
  1.00800000E+00  0.00000000E+00  1.60000000E+01  1.00800000E+00  1.00800000E+00
  0.00000000E+00  1.60000000E+01  1.00800000E+00  1.00800000E+00  0.00000000E+00
  1.60000000E+01  1.00800000E+00  1.00800000E+00  0.00000000E+00  1.60000000E+01
  1.00800000E+00  1.00800000E+00  0.00000000E+00  1.60000000E+01  1.00800000E+00
  1.00800000E+00  0.00000000E+00  1.60000000E+01  1.00800000E+00  1.00800000E+00
  0.00000000E+00  1.60000000E+01  1.00800000E+00  1.00800000E+00  0.00000000E+00
  1.60000000E+01  1.00800000E+00  1.00800000E+00  0.00000000E+00  1.60000000E+01
  1.00800000E+00  1.00800000E+00  0.00000000E+00  1.60000000E+01  1.00800000E+00
  1.00800000E+00  0.00000000E+00  1.60000000E+01  1.00800000E+00  1.00800000E+00
  0.00000000E+00  1.60000000E+01  1.00800000E+00  1.00800000E+00  0.00000000E+00
  1.60000000E+01  1.00800000E+00  1.00800000E+00  0.00000000E+00  1.60000000E+01
  1.00800000E+00  1.00800000E+00  0.00000000E+00  1.60000000E+01  1.00800000E+00
  1.00800000E+00  0.00000000E+00  1.60000000E+01  1.00800000E+00  1.00800000E+00
  0.00000000E+00  1.60000000E+01  1.00800000E+00  1.00800000E+00  0.00000000E+00
  1.60000000E+01  1.00800000E+00  1.00800000E+00  0.00000000E+00  1.60000000E+01
  1.00800000E+00  1.00800000E+00  0.00000000E+00  1.60000000E+01  1.00800000E+00
  1.00800000E+00  0.00000000E+00  1.60000000E+01  1.00800000E+00  1.00800000E+00
  0.00000000E+00  1.60000000E+01  1.00800000E+00  1.00800000E+00  0.00000000E+00
  1.60000000E+01  1.00800000E+00  1.00800000E+00  0.00000000E+00  1.60000000E+01
  1.00800000E+00  1.00800000E+00  0.00000000E+00  1.60000000E+01  1.00800000E+00
  1.00800000E+00  0.00000000E+00  1.60000000E+01  1.00800000E+00  1.00800000E+00
  0.00000000E+00  1.60000000E+01  1.00800000E+00  1.00800000E+00  0.00000000E+00
  1.60000000E+01  1.00800000E+00  1.00800000E+00  0.00000000E+00  1.60000000E+01
  1.00800000E+00  1.00800000E+00  0.00000000E+00  1.60000000E+01  1.00800000E+00
  1.00800000E+00  0.00000000E+00  1.60000000E+01  1.00800000E+00  1.00800000E+00
  0.00000000E+00  1.60000000E+01  1.00800000E+00  1.00800000E+00  0.00000000E+00
  1.60000000E+01  1.00800000E+00  1.00800000E+00  0.00000000E+00  1.60000000E+01
  1.00800000E+00  1.00800000E+00  0.00000000E+00  1.60000000E+01  1.00800000E+00
  1.00800000E+00  0.00000000E+00  1.60000000E+01  1.00800000E+00  1.00800000E+00
  0.00000000E+00  1.60000000E+01  1.00800000E+00  1.00800000E+00  0.00000000E+00
  1.60000000E+01  1.00800000E+00  1.00800000E+00  0.00000000E+00  1.60000000E+01
  1.00800000E+00  1.00800000E+00  0.00000000E+00  1.60000000E+01  1.00800000E+00
  1.00800000E+00  0.00000000E+00  1.60000000E+01  1.00800000E+00  1.00800000E+00
  0.00000000E+00  1.60000000E+01  1.00800000E+00  1.00800000E+00  0.00000000E+00
  1.60000000E+01  1.00800000E+00  1.00800000E+00  0.00000000E+00  1.60000000E+01
  1.00800000E+00  1.00800000E+00  0.00000000E+00  1.60000000E+01  1.00800000E+00
  1.00800000E+00  0.00000000E+00  1.60000000E+01  1.00800000E+00  1.00800000E+00
  0.00000000E+00  1.60000000E+01  1.00800000E+00  1.00800000E+00  0.00000000E+00
  1.60000000E+01  1.00800000E+00  1.00800000E+00  0.00000000E+00  1.60000000E+01
  1.00800000E+00  1.00800000E+00  0.00000000E+00  1.60000000E+01  1.00800000E+00
  1.00800000E+00  0.00000000E+00  1.60000000E+01  1.00800000E+00  1.00800000E+00
  0.00000000E+00  1.60000000E+01  1.00800000E+00  1.00800000E+00  0.00000000E+00
  1.60000000E+01  1.00800000E+00  1.00800000E+00  0.00000000E+00  1.60000000E+01
  1.00800000E+00  1.00800000E+00  0.00000000E+00  1.60000000E+01  1.00800000E+00
  1.00800000E+00  0.00000000E+00  1.60000000E+01  1.00800000E+00  1.00800000E+00
  0.00000000E+00  1.60000000E+01  1.00800000E+00  1.00800000E+00  0.00000000E+00
  1.60000000E+01  1.00800000E+00  1.00800000E+00  0.00000000E+00  1.60000000E+01
  1.00800000E+00  1.00800000E+00  0.00000000E+00  1.60000000E+01  1.00800000E+00
  1.00800000E+00  0.00000000E+00  1.60000000E+01  1.00800000E+00  1.00800000E+00
  0.00000000E+00  1.60000000E+01  1.00800000E+00  1.00800000E+00  0.00000000E+00
  1.60000000E+01  1.00800000E+00  1.00800000E+00  0.00000000E+00  1.60000000E+01
  1.00800000E+00  1.00800000E+00  0.00000000E+00  1.60000000E+01  1.00800000E+00
  1.00800000E+00  0.00000000E+00  1.60000000E+01  1.00800000E+00  1.00800000E+00
  0.00000000E+00  1.60000000E+01  1.00800000E+00  1.00800000E+00  0.00000000E+00
  1.60000000E+01  1.00800000E+00  1.00800000E+00  0.00000000E+00  1.60000000E+01
  1.00800000E+00  1.00800000E+00  0.00000000E+00  1.60000000E+01  1.00800000E+00
  1.00800000E+00  0.00000000E+00  1.60000000E+01  1.00800000E+00  1.00800000E+00
  0.00000000E+00  1.60000000E+01  1.00800000E+00  1.00800000E+00  0.00000000E+00
  1.60000000E+01  1.00800000E+00  1.00800000E+00  0.00000000E+00  1.60000000E+01
  1.00800000E+00  1.00800000E+00  0.00000000E+00  1.60000000E+01  1.00800000E+00
  1.00800000E+00  0.00000000E+00  1.60000000E+01  1.00800000E+00  1.00800000E+00
  0.00000000E+00  1.60000000E+01  1.00800000E+00  1.00800000E+00  0.00000000E+00
  1.60000000E+01  1.00800000E+00  1.00800000E+00  0.00000000E+00  1.60000000E+01
  1.00800000E+00  1.00800000E+00  0.00000000E+00  1.60000000E+01  1.00800000E+00
  1.00800000E+00  0.00000000E+00  1.60000000E+01  1.00800000E+00  1.00800000E+00
  0.00000000E+00  1.60000000E+01  1.00800000E+00  1.00800000E+00  0.00000000E+00
  1.60000000E+01  1.00800000E+00  1.00800000E+00  0.00000000E+00  1.60000000E+01
  1.00800000E+00  1.00800000E+00  0.00000000E+00  1.60000000E+01  1.00800000E+00
  1.00800000E+00  0.00000000E+00  1.60000000E+01  1.00800000E+00  1.00800000E+00
  0.00000000E+00  1.60000000E+01  1.00800000E+00  1.00800000E+00  0.00000000E+00
  1.60000000E+01  1.00800000E+00  1.00800000E+00  0.00000000E+00  1.60000000E+01
  1.00800000E+00  1.00800000E+00  0.00000000E+00  1.60000000E+01  1.00800000E+00
  1.00800000E+00  0.00000000E+00  1.60000000E+01  1.00800000E+00  1.00800000E+00
  0.00000000E+00  1.60000000E+01  1.00800000E+00  1.00800000E+00  0.00000000E+00
  1.60000000E+01  1.00800000E+00  1.00800000E+00  0.00000000E+00  1.60000000E+01
  1.00800000E+00  1.00800000E+00  0.00000000E+00  1.60000000E+01  1.00800000E+00
  1.00800000E+00  0.00000000E+00  1.60000000E+01  1.00800000E+00  1.00800000E+00
  0.00000000E+00  1.60000000E+01  1.00800000E+00  1.00800000E+00  0.00000000E+00
  1.60000000E+01  1.00800000E+00  1.00800000E+00  0.00000000E+00  1.60000000E+01
  1.00800000E+00  1.00800000E+00  0.00000000E+00  1.60000000E+01  1.00800000E+00
  1.00800000E+00  0.00000000E+00  1.60000000E+01  1.00800000E+00  1.00800000E+00
  0.00000000E+00  1.60000000E+01  1.00800000E+00  1.00800000E+00  0.00000000E+00
  1.60000000E+01  1.00800000E+00  1.00800000E+00  0.00000000E+00  1.60000000E+01
  1.00800000E+00  1.00800000E+00  0.00000000E+00  1.60000000E+01  1.00800000E+00
  1.00800000E+00  0.00000000E+00  1.60000000E+01  1.00800000E+00  1.00800000E+00
  0.00000000E+00  1.60000000E+01  1.00800000E+00  1.00800000E+00  0.00000000E+00
  1.60000000E+01  1.00800000E+00  1.00800000E+00  0.00000000E+00  1.60000000E+01
  1.00800000E+00  1.00800000E+00  0.00000000E+00  1.60000000E+01  1.00800000E+00
  1.00800000E+00  0.00000000E+00  1.60000000E+01  1.00800000E+00  1.00800000E+00
  0.00000000E+00  1.60000000E+01  1.00800000E+00  1.00800000E+00  0.00000000E+00
  1.60000000E+01  1.00800000E+00  1.00800000E+00  0.00000000E+00  1.60000000E+01
  1.00800000E+00  1.00800000E+00  0.00000000E+00  1.60000000E+01  1.00800000E+00
  1.00800000E+00  0.00000000E+00  1.60000000E+01  1.00800000E+00  1.00800000E+00
  0.00000000E+00  1.60000000E+01  1.00800000E+00  1.00800000E+00  0.00000000E+00
  1.60000000E+01  1.00800000E+00  1.00800000E+00  0.00000000E+00  1.60000000E+01
  1.00800000E+00  1.00800000E+00  0.00000000E+00  1.60000000E+01  1.00800000E+00
  1.00800000E+00  0.00000000E+00  1.60000000E+01  1.00800000E+00  1.00800000E+00
  0.00000000E+00  1.60000000E+01  1.00800000E+00  1.00800000E+00  0.00000000E+00
  1.60000000E+01  1.00800000E+00  1.00800000E+00  0.00000000E+00  1.60000000E+01
  1.00800000E+00  1.00800000E+00  0.00000000E+00  1.60000000E+01  1.00800000E+00
  1.00800000E+00  0.00000000E+00  1.60000000E+01  1.00800000E+00  1.00800000E+00
  0.00000000E+00  1.60000000E+01  1.00800000E+00  1.00800000E+00  0.00000000E+00
  1.60000000E+01  1.00800000E+00  1.00800000E+00  0.00000000E+00  1.60000000E+01
  1.00800000E+00  1.00800000E+00  0.00000000E+00  1.60000000E+01  1.00800000E+00
  1.00800000E+00  0.00000000E+00  1.60000000E+01  1.00800000E+00  1.00800000E+00
  0.00000000E+00  1.60000000E+01  1.00800000E+00  1.00800000E+00  0.00000000E+00
  1.60000000E+01  1.00800000E+00  1.00800000E+00  0.00000000E+00  1.60000000E+01
  1.00800000E+00  1.00800000E+00  0.00000000E+00  1.60000000E+01  1.00800000E+00
  1.00800000E+00  0.00000000E+00  1.60000000E+01  1.00800000E+00  1.00800000E+00
  0.00000000E+00  1.60000000E+01  1.00800000E+00  1.00800000E+00  0.00000000E+00
  1.60000000E+01  1.00800000E+00  1.00800000E+00  0.00000000E+00  1.60000000E+01
  1.00800000E+00  1.00800000E+00  0.00000000E+00  1.60000000E+01  1.00800000E+00
  1.00800000E+00  0.00000000E+00  1.60000000E+01  1.00800000E+00  1.00800000E+00
  0.00000000E+00  1.60000000E+01  1.00800000E+00  1.00800000E+00  0.00000000E+00
  1.60000000E+01  1.00800000E+00  1.00800000E+00  0.00000000E+00  1.60000000E+01
  1.00800000E+00  1.00800000E+00  0.00000000E+00  1.60000000E+01  1.00800000E+00
  1.00800000E+00  0.00000000E+00  1.60000000E+01  1.00800000E+00  1.00800000E+00
  0.00000000E+00  1.60000000E+01  1.00800000E+00  1.00800000E+00  0.00000000E+00
  1.60000000E+01  1.00800000E+00  1.00800000E+00  0.00000000E+00  1.60000000E+01
  1.00800000E+00  1.00800000E+00  0.00000000E+00  1.60000000E+01  1.00800000E+00
  1.00800000E+00  0.00000000E+00  1.60000000E+01  1.00800000E+00  1.00800000E+00
  0.00000000E+00  1.60000000E+01  1.00800000E+00  1.00800000E+00  0.00000000E+00
  1.60000000E+01  1.00800000E+00  1.00800000E+00  0.00000000E+00  1.60000000E+01
  1.00800000E+00  1.00800000E+00  0.00000000E+00  1.60000000E+01  1.00800000E+00
  1.00800000E+00  0.00000000E+00  1.60000000E+01  1.00800000E+00  1.00800000E+00
  0.00000000E+00  1.60000000E+01  1.00800000E+00  1.00800000E+00  0.00000000E+00
  1.60000000E+01  1.00800000E+00  1.00800000E+00  0.00000000E+00  1.60000000E+01
  1.00800000E+00  1.00800000E+00  0.00000000E+00  1.60000000E+01  1.00800000E+00
  1.00800000E+00  0.00000000E+00  1.60000000E+01  1.00800000E+00  1.00800000E+00
  0.00000000E+00  1.60000000E+01  1.00800000E+00  1.00800000E+00  0.00000000E+00
  1.60000000E+01  1.00800000E+00  1.00800000E+00  0.00000000E+00  1.60000000E+01
  1.00800000E+00  1.00800000E+00  0.00000000E+00  1.60000000E+01  1.00800000E+00
  1.00800000E+00  0.00000000E+00  1.60000000E+01  1.00800000E+00  1.00800000E+00
  0.00000000E+00  1.60000000E+01  1.00800000E+00  1.00800000E+00  0.00000000E+00
  1.60000000E+01  1.00800000E+00  1.00800000E+00  0.00000000E+00  1.60000000E+01
  1.00800000E+00  1.00800000E+00  0.00000000E+00  1.60000000E+01  1.00800000E+00
  1.00800000E+00  0.00000000E+00  1.60000000E+01  1.00800000E+00  1.00800000E+00
  0.00000000E+00  1.60000000E+01  1.00800000E+00  1.00800000E+00  0.00000000E+00
  1.60000000E+01  1.00800000E+00  1.00800000E+00  0.00000000E+00  1.60000000E+01
  1.00800000E+00  1.00800000E+00  0.00000000E+00  1.60000000E+01  1.00800000E+00
  1.00800000E+00  0.00000000E+00  1.60000000E+01  1.00800000E+00  1.00800000E+00
  0.00000000E+00  1.60000000E+01  1.00800000E+00  1.00800000E+00  0.00000000E+00
  1.60000000E+01  1.00800000E+00  1.00800000E+00  0.00000000E+00  1.60000000E+01
  1.00800000E+00  1.00800000E+00  0.00000000E+00  1.60000000E+01  1.00800000E+00
  1.00800000E+00  0.00000000E+00  1.60000000E+01  1.00800000E+00  1.00800000E+00
  0.00000000E+00  1.60000000E+01  1.00800000E+00  1.00800000E+00  0.00000000E+00
  1.60000000E+01  1.00800000E+00  1.00800000E+00  0.00000000E+00  1.60000000E+01
  1.00800000E+00  1.00800000E+00  0.00000000E+00  1.60000000E+01  1.00800000E+00
  1.00800000E+00  0.00000000E+00  1.60000000E+01  1.00800000E+00  1.00800000E+00
  0.00000000E+00  1.60000000E+01  1.00800000E+00  1.00800000E+00  0.00000000E+00
  1.60000000E+01  1.00800000E+00  1.00800000E+00  0.00000000E+00  1.60000000E+01
  1.00800000E+00  1.00800000E+00  0.00000000E+00  1.60000000E+01  1.00800000E+00
  1.00800000E+00  0.00000000E+00  1.60000000E+01  1.00800000E+00  1.00800000E+00
  0.00000000E+00  1.60000000E+01  1.00800000E+00  1.00800000E+00  0.00000000E+00
  1.60000000E+01  1.00800000E+00  1.00800000E+00  0.00000000E+00  1.60000000E+01
  1.00800000E+00  1.00800000E+00  0.00000000E+00  1.60000000E+01  1.00800000E+00
  1.00800000E+00  0.00000000E+00  1.60000000E+01  1.00800000E+00  1.00800000E+00
  0.00000000E+00  1.60000000E+01  1.00800000E+00  1.00800000E+00  0.00000000E+00
  1.60000000E+01  1.00800000E+00  1.00800000E+00  0.00000000E+00  1.60000000E+01
  1.00800000E+00  1.00800000E+00  0.00000000E+00  1.60000000E+01  1.00800000E+00
  1.00800000E+00  0.00000000E+00  1.60000000E+01  1.00800000E+00  1.00800000E+00
  0.00000000E+00  1.60000000E+01  1.00800000E+00  1.00800000E+00  0.00000000E+00
  1.60000000E+01  1.00800000E+00  1.00800000E+00  0.00000000E+00  1.60000000E+01
  1.00800000E+00  1.00800000E+00  0.00000000E+00  1.60000000E+01  1.00800000E+00
  1.00800000E+00  0.00000000E+00  1.60000000E+01  1.00800000E+00  1.00800000E+00
  0.00000000E+00  1.60000000E+01  1.00800000E+00  1.00800000E+00  0.00000000E+00
  1.60000000E+01  1.00800000E+00  1.00800000E+00  0.00000000E+00  1.60000000E+01
  1.00800000E+00  1.00800000E+00  0.00000000E+00  1.60000000E+01  1.00800000E+00
  1.00800000E+00  0.00000000E+00  1.60000000E+01  1.00800000E+00  1.00800000E+00
  0.00000000E+00  1.60000000E+01  1.00800000E+00  1.00800000E+00  0.00000000E+00
  1.60000000E+01  1.00800000E+00  1.00800000E+00  0.00000000E+00  1.60000000E+01
  1.00800000E+00  1.00800000E+00  0.00000000E+00  1.60000000E+01  1.00800000E+00
  1.00800000E+00  0.00000000E+00  1.60000000E+01  1.00800000E+00  1.00800000E+00
  0.00000000E+00  1.60000000E+01  1.00800000E+00  1.00800000E+00  0.00000000E+00
  1.60000000E+01  1.00800000E+00  1.00800000E+00  0.00000000E+00  1.60000000E+01
  1.00800000E+00  1.00800000E+00  0.00000000E+00  1.60000000E+01  1.00800000E+00
  1.00800000E+00  0.00000000E+00  1.60000000E+01  1.00800000E+00  1.00800000E+00
  0.00000000E+00  1.60000000E+01  1.00800000E+00  1.00800000E+00  0.00000000E+00
  1.60000000E+01  1.00800000E+00  1.00800000E+00  0.00000000E+00  1.60000000E+01
  1.00800000E+00  1.00800000E+00  0.00000000E+00  1.60000000E+01  1.00800000E+00
  1.00800000E+00  0.00000000E+00  1.60000000E+01  1.00800000E+00  1.00800000E+00
  0.00000000E+00  1.60000000E+01  1.00800000E+00  1.00800000E+00  0.00000000E+00
  1.60000000E+01  1.00800000E+00  1.00800000E+00  0.00000000E+00  1.60000000E+01
  1.00800000E+00  1.00800000E+00  0.00000000E+00  1.60000000E+01  1.00800000E+00
  1.00800000E+00  0.00000000E+00  1.60000000E+01  1.00800000E+00  1.00800000E+00
  0.00000000E+00  1.60000000E+01  1.00800000E+00  1.00800000E+00  0.00000000E+00
  1.60000000E+01  1.00800000E+00  1.00800000E+00  0.00000000E+00  1.60000000E+01
  1.00800000E+00  1.00800000E+00  0.00000000E+00  1.60000000E+01  1.00800000E+00
  1.00800000E+00  0.00000000E+00  1.60000000E+01  1.00800000E+00  1.00800000E+00
  0.00000000E+00  1.60000000E+01  1.00800000E+00  1.00800000E+00  0.00000000E+00
  1.60000000E+01  1.00800000E+00  1.00800000E+00  0.00000000E+00  1.60000000E+01
  1.00800000E+00  1.00800000E+00  0.00000000E+00  1.60000000E+01  1.00800000E+00
  1.00800000E+00  0.00000000E+00  1.60000000E+01  1.00800000E+00  1.00800000E+00
  0.00000000E+00  1.60000000E+01  1.00800000E+00  1.00800000E+00  0.00000000E+00
  1.60000000E+01  1.00800000E+00  1.00800000E+00  0.00000000E+00  1.60000000E+01
  1.00800000E+00  1.00800000E+00  0.00000000E+00  1.60000000E+01  1.00800000E+00
  1.00800000E+00  0.00000000E+00  1.60000000E+01  1.00800000E+00  1.00800000E+00
  0.00000000E+00  1.60000000E+01  1.00800000E+00  1.00800000E+00  0.00000000E+00
  1.60000000E+01  1.00800000E+00  1.00800000E+00  0.00000000E+00  1.60000000E+01
  1.00800000E+00  1.00800000E+00  0.00000000E+00  1.60000000E+01  1.00800000E+00
  1.00800000E+00  0.00000000E+00  1.60000000E+01  1.00800000E+00  1.00800000E+00
  0.00000000E+00  1.60000000E+01  1.00800000E+00  1.00800000E+00  0.00000000E+00
  1.60000000E+01  1.00800000E+00  1.00800000E+00  0.00000000E+00  1.60000000E+01
  1.00800000E+00  1.00800000E+00  0.00000000E+00  1.60000000E+01  1.00800000E+00
  1.00800000E+00  0.00000000E+00  1.60000000E+01  1.00800000E+00  1.00800000E+00
  0.00000000E+00  1.60000000E+01  1.00800000E+00  1.00800000E+00  0.00000000E+00
  1.60000000E+01  1.00800000E+00  1.00800000E+00  0.00000000E+00  1.60000000E+01
  1.00800000E+00  1.00800000E+00  0.00000000E+00  1.60000000E+01  1.00800000E+00
  1.00800000E+00  0.00000000E+00  1.60000000E+01  1.00800000E+00  1.00800000E+00
  0.00000000E+00  1.60000000E+01  1.00800000E+00  1.00800000E+00  0.00000000E+00
  1.60000000E+01  1.00800000E+00  1.00800000E+00  0.00000000E+00  1.60000000E+01
  1.00800000E+00  1.00800000E+00  0.00000000E+00  1.60000000E+01  1.00800000E+00
  1.00800000E+00  0.00000000E+00  1.60000000E+01  1.00800000E+00  1.00800000E+00
  0.00000000E+00  1.60000000E+01  1.00800000E+00  1.00800000E+00  0.00000000E+00
  1.60000000E+01  1.00800000E+00  1.00800000E+00  0.00000000E+00  1.60000000E+01
  1.00800000E+00  1.00800000E+00  0.00000000E+00  1.60000000E+01  1.00800000E+00
  1.00800000E+00  0.00000000E+00  1.60000000E+01  1.00800000E+00  1.00800000E+00
  0.00000000E+00  1.60000000E+01  1.00800000E+00  1.00800000E+00  0.00000000E+00
  1.60000000E+01  1.00800000E+00  1.00800000E+00  0.00000000E+00  1.60000000E+01
  1.00800000E+00  1.00800000E+00  0.00000000E+00  1.60000000E+01  1.00800000E+00
  1.00800000E+00  0.00000000E+00  1.60000000E+01  1.00800000E+00  1.00800000E+00
  0.00000000E+00  1.60000000E+01  1.00800000E+00  1.00800000E+00  0.00000000E+00
  1.60000000E+01  1.00800000E+00  1.00800000E+00  0.00000000E+00  1.60000000E+01
  1.00800000E+00  1.00800000E+00  0.00000000E+00  1.60000000E+01  1.00800000E+00
  1.00800000E+00  0.00000000E+00  1.60000000E+01  1.00800000E+00  1.00800000E+00
  0.00000000E+00  1.60000000E+01  1.00800000E+00  1.00800000E+00  0.00000000E+00
  1.60000000E+01  1.00800000E+00  1.00800000E+00  0.00000000E+00  1.60000000E+01
  1.00800000E+00  1.00800000E+00  0.00000000E+00  1.60000000E+01  1.00800000E+00
  1.00800000E+00  0.00000000E+00  1.60000000E+01  1.00800000E+00  1.00800000E+00
  0.00000000E+00  1.60000000E+01  1.00800000E+00  1.00800000E+00  0.00000000E+00
  1.60000000E+01  1.00800000E+00  1.00800000E+00  0.00000000E+00  1.60000000E+01
  1.00800000E+00  1.00800000E+00  0.00000000E+00  1.60000000E+01  1.00800000E+00
  1.00800000E+00  0.00000000E+00  1.60000000E+01  1.00800000E+00  1.00800000E+00
  0.00000000E+00  1.60000000E+01  1.00800000E+00  1.00800000E+00  0.00000000E+00
  1.60000000E+01  1.00800000E+00  1.00800000E+00  0.00000000E+00  1.60000000E+01
  1.00800000E+00  1.00800000E+00  0.00000000E+00  1.60000000E+01  1.00800000E+00
  1.00800000E+00  0.00000000E+00  1.60000000E+01  1.00800000E+00  1.00800000E+00
  0.00000000E+00  1.60000000E+01  1.00800000E+00  1.00800000E+00  0.00000000E+00
  1.60000000E+01  1.00800000E+00  1.00800000E+00  0.00000000E+00  1.60000000E+01
  1.00800000E+00  1.00800000E+00  0.00000000E+00  1.60000000E+01  1.00800000E+00
  1.00800000E+00  0.00000000E+00  1.60000000E+01  1.00800000E+00  1.00800000E+00
  0.00000000E+00  1.60000000E+01  1.00800000E+00  1.00800000E+00  0.00000000E+00
  1.60000000E+01  1.00800000E+00  1.00800000E+00  0.00000000E+00  1.60000000E+01
  1.00800000E+00  1.00800000E+00  0.00000000E+00  1.60000000E+01  1.00800000E+00
  1.00800000E+00  0.00000000E+00  1.60000000E+01  1.00800000E+00  1.00800000E+00
  0.00000000E+00  1.60000000E+01  1.00800000E+00  1.00800000E+00  0.00000000E+00
  1.60000000E+01  1.00800000E+00  1.00800000E+00  0.00000000E+00  1.60000000E+01
  1.00800000E+00  1.00800000E+00  0.00000000E+00  1.60000000E+01  1.00800000E+00
  1.00800000E+00  0.00000000E+00  1.60000000E+01  1.00800000E+00  1.00800000E+00
  0.00000000E+00  1.60000000E+01  1.00800000E+00  1.00800000E+00  0.00000000E+00
  1.60000000E+01  1.00800000E+00  1.00800000E+00  0.00000000E+00  1.60000000E+01
  1.00800000E+00  1.00800000E+00  0.00000000E+00  1.60000000E+01  1.00800000E+00
  1.00800000E+00  0.00000000E+00  1.60000000E+01  1.00800000E+00  1.00800000E+00
  0.00000000E+00  1.60000000E+01  1.00800000E+00  1.00800000E+00  0.00000000E+00
  1.60000000E+01  1.00800000E+00  1.00800000E+00  0.00000000E+00  1.60000000E+01
  1.00800000E+00  1.00800000E+00  0.00000000E+00  1.60000000E+01  1.00800000E+00
  1.00800000E+00  0.00000000E+00  1.60000000E+01  1.00800000E+00  1.00800000E+00
  0.00000000E+00  1.60000000E+01  1.00800000E+00  1.00800000E+00  0.00000000E+00
  1.60000000E+01  1.00800000E+00  1.00800000E+00  0.00000000E+00  1.60000000E+01
  1.00800000E+00  1.00800000E+00  0.00000000E+00  1.60000000E+01  1.00800000E+00
  1.00800000E+00  0.00000000E+00  1.60000000E+01  1.00800000E+00  1.00800000E+00
  0.00000000E+00  1.60000000E+01  1.00800000E+00  1.00800000E+00  0.00000000E+00
  1.60000000E+01  1.00800000E+00  1.00800000E+00  0.00000000E+00  1.60000000E+01
  1.00800000E+00  1.00800000E+00  0.00000000E+00  1.60000000E+01  1.00800000E+00
  1.00800000E+00  0.00000000E+00  1.60000000E+01  1.00800000E+00  1.00800000E+00
  0.00000000E+00  1.60000000E+01  1.00800000E+00  1.00800000E+00  0.00000000E+00
  1.60000000E+01  1.00800000E+00  1.00800000E+00  0.00000000E+00  1.60000000E+01
  1.00800000E+00  1.00800000E+00  0.00000000E+00  1.60000000E+01  1.00800000E+00
  1.00800000E+00  0.00000000E+00  1.60000000E+01  1.00800000E+00  1.00800000E+00
  0.00000000E+00  1.60000000E+01  1.00800000E+00  1.00800000E+00  0.00000000E+00
  1.60000000E+01  1.00800000E+00  1.00800000E+00  0.00000000E+00  1.60000000E+01
  1.00800000E+00  1.00800000E+00  0.00000000E+00  1.60000000E+01  1.00800000E+00
  1.00800000E+00  0.00000000E+00  1.60000000E+01  1.00800000E+00  1.00800000E+00
  0.00000000E+00  1.60000000E+01  1.00800000E+00  1.00800000E+00  0.00000000E+00
  1.60000000E+01  1.00800000E+00  1.00800000E+00  0.00000000E+00  1.60000000E+01
  1.00800000E+00  1.00800000E+00  0.00000000E+00  1.60000000E+01  1.00800000E+00
  1.00800000E+00  0.00000000E+00  1.60000000E+01  1.00800000E+00  1.00800000E+00
  0.00000000E+00  1.60000000E+01  1.00800000E+00  1.00800000E+00  0.00000000E+00
  1.60000000E+01  1.00800000E+00  1.00800000E+00  0.00000000E+00  1.60000000E+01
  1.00800000E+00  1.00800000E+00  0.00000000E+00  1.60000000E+01  1.00800000E+00
  1.00800000E+00  0.00000000E+00  1.60000000E+01  1.00800000E+00  1.00800000E+00
  0.00000000E+00  1.60000000E+01  1.00800000E+00  1.00800000E+00  0.00000000E+00
  1.60000000E+01  1.00800000E+00  1.00800000E+00  0.00000000E+00  1.60000000E+01
  1.00800000E+00  1.00800000E+00  0.00000000E+00  1.60000000E+01  1.00800000E+00
  1.00800000E+00  0.00000000E+00  1.60000000E+01  1.00800000E+00  1.00800000E+00
  0.00000000E+00  1.60000000E+01  1.00800000E+00  1.00800000E+00  0.00000000E+00
  1.60000000E+01  1.00800000E+00  1.00800000E+00  0.00000000E+00  1.60000000E+01
  1.00800000E+00  1.00800000E+00  0.00000000E+00  1.60000000E+01  1.00800000E+00
  1.00800000E+00  0.00000000E+00  1.60000000E+01  1.00800000E+00  1.00800000E+00
  0.00000000E+00  1.60000000E+01  1.00800000E+00  1.00800000E+00  0.00000000E+00
  1.60000000E+01  1.00800000E+00  1.00800000E+00  0.00000000E+00  1.60000000E+01
  1.00800000E+00  1.00800000E+00  0.00000000E+00  1.60000000E+01  1.00800000E+00
  1.00800000E+00  0.00000000E+00  1.60000000E+01  1.00800000E+00  1.00800000E+00
  0.00000000E+00  1.60000000E+01  1.00800000E+00  1.00800000E+00  0.00000000E+00
  1.60000000E+01  1.00800000E+00  1.00800000E+00  0.00000000E+00  1.60000000E+01
  1.00800000E+00  1.00800000E+00  0.00000000E+00  1.60000000E+01  1.00800000E+00
  1.00800000E+00  0.00000000E+00  1.60000000E+01  1.00800000E+00  1.00800000E+00
  0.00000000E+00  1.60000000E+01  1.00800000E+00  1.00800000E+00  0.00000000E+00
  1.60000000E+01  1.00800000E+00  1.00800000E+00  0.00000000E+00  1.60000000E+01
  1.00800000E+00  1.00800000E+00  0.00000000E+00  1.60000000E+01  1.00800000E+00
  1.00800000E+00  0.00000000E+00  1.60000000E+01  1.00800000E+00  1.00800000E+00
  0.00000000E+00  1.60000000E+01  1.00800000E+00  1.00800000E+00  0.00000000E+00
  1.60000000E+01  1.00800000E+00  1.00800000E+00  0.00000000E+00  1.60000000E+01
  1.00800000E+00  1.00800000E+00  0.00000000E+00  1.60000000E+01  1.00800000E+00
  1.00800000E+00  0.00000000E+00  1.60000000E+01  1.00800000E+00  1.00800000E+00
  0.00000000E+00  1.60000000E+01  1.00800000E+00  1.00800000E+00  0.00000000E+00
  1.60000000E+01  1.00800000E+00  1.00800000E+00  0.00000000E+00  1.60000000E+01
  1.00800000E+00  1.00800000E+00  0.00000000E+00  1.60000000E+01  1.00800000E+00
  1.00800000E+00  0.00000000E+00  1.60000000E+01  1.00800000E+00  1.00800000E+00
  0.00000000E+00  1.60000000E+01  1.00800000E+00  1.00800000E+00  0.00000000E+00
  1.60000000E+01  1.00800000E+00  1.00800000E+00  0.00000000E+00  1.60000000E+01
  1.00800000E+00  1.00800000E+00  0.00000000E+00  1.60000000E+01  1.00800000E+00
  1.00800000E+00  0.00000000E+00  1.60000000E+01  1.00800000E+00  1.00800000E+00
  0.00000000E+00  1.60000000E+01  1.00800000E+00  1.00800000E+00  0.00000000E+00
  1.60000000E+01  1.00800000E+00  1.00800000E+00  0.00000000E+00  1.60000000E+01
  1.00800000E+00  1.00800000E+00  0.00000000E+00  1.60000000E+01  1.00800000E+00
  1.00800000E+00  0.00000000E+00  1.60000000E+01  1.00800000E+00  1.00800000E+00
  0.00000000E+00  1.60000000E+01  1.00800000E+00  1.00800000E+00  0.00000000E+00
  1.60000000E+01  1.00800000E+00  1.00800000E+00  0.00000000E+00  1.60000000E+01
  1.00800000E+00  1.00800000E+00  0.00000000E+00  1.60000000E+01  1.00800000E+00
  1.00800000E+00  0.00000000E+00  1.60000000E+01  1.00800000E+00  1.00800000E+00
  0.00000000E+00  1.60000000E+01  1.00800000E+00  1.00800000E+00  0.00000000E+00
  1.60000000E+01  1.00800000E+00  1.00800000E+00  0.00000000E+00  1.60000000E+01
  1.00800000E+00  1.00800000E+00  0.00000000E+00  1.60000000E+01  1.00800000E+00
  1.00800000E+00  0.00000000E+00  1.60000000E+01  1.00800000E+00  1.00800000E+00
  0.00000000E+00  1.60000000E+01  1.00800000E+00  1.00800000E+00  0.00000000E+00
  1.60000000E+01  1.00800000E+00  1.00800000E+00  0.00000000E+00  1.60000000E+01
  1.00800000E+00  1.00800000E+00  0.00000000E+00  1.60000000E+01  1.00800000E+00
  1.00800000E+00  0.00000000E+00  1.60000000E+01  1.00800000E+00  1.00800000E+00
  0.00000000E+00  1.60000000E+01  1.00800000E+00  1.00800000E+00  0.00000000E+00
  1.60000000E+01  1.00800000E+00  1.00800000E+00  0.00000000E+00  1.60000000E+01
  1.00800000E+00  1.00800000E+00  0.00000000E+00  1.60000000E+01  1.00800000E+00
  1.00800000E+00  0.00000000E+00  1.60000000E+01  1.00800000E+00  1.00800000E+00
  0.00000000E+00  1.60000000E+01  1.00800000E+00  1.00800000E+00  0.00000000E+00
  1.60000000E+01  1.00800000E+00  1.00800000E+00  0.00000000E+00  1.60000000E+01
  1.00800000E+00  1.00800000E+00  0.00000000E+00  1.60000000E+01  1.00800000E+00
  1.00800000E+00  0.00000000E+00  1.60000000E+01  1.00800000E+00  1.00800000E+00
  0.00000000E+00  1.60000000E+01  1.00800000E+00  1.00800000E+00  0.00000000E+00
  1.60000000E+01  1.00800000E+00  1.00800000E+00  0.00000000E+00  1.60000000E+01
  1.00800000E+00  1.00800000E+00  0.00000000E+00  1.60000000E+01  1.00800000E+00
  1.00800000E+00  0.00000000E+00  1.60000000E+01  1.00800000E+00  1.00800000E+00
  0.00000000E+00  1.60000000E+01  1.00800000E+00  1.00800000E+00  0.00000000E+00
  1.60000000E+01  1.00800000E+00  1.00800000E+00  0.00000000E+00  1.60000000E+01
  1.00800000E+00  1.00800000E+00  0.00000000E+00  1.60000000E+01  1.00800000E+00
  1.00800000E+00  0.00000000E+00  1.60000000E+01  1.00800000E+00  1.00800000E+00
  0.00000000E+00  1.60000000E+01  1.00800000E+00  1.00800000E+00  0.00000000E+00
  1.60000000E+01  1.00800000E+00  1.00800000E+00  0.00000000E+00  1.60000000E+01
  1.00800000E+00  1.00800000E+00  0.00000000E+00  1.60000000E+01  1.00800000E+00
  1.00800000E+00  0.00000000E+00  1.60000000E+01  1.00800000E+00  1.00800000E+00
  0.00000000E+00  1.60000000E+01  1.00800000E+00  1.00800000E+00  0.00000000E+00
  1.60000000E+01  1.00800000E+00  1.00800000E+00  0.00000000E+00  1.60000000E+01
  1.00800000E+00  1.00800000E+00  0.00000000E+00  1.60000000E+01  1.00800000E+00
  1.00800000E+00  0.00000000E+00  1.60000000E+01  1.00800000E+00  1.00800000E+00
  0.00000000E+00  1.60000000E+01  1.00800000E+00  1.00800000E+00  0.00000000E+00
  1.60000000E+01  1.00800000E+00  1.00800000E+00  0.00000000E+00  1.60000000E+01
  1.00800000E+00  1.00800000E+00  0.00000000E+00  1.60000000E+01  1.00800000E+00
  1.00800000E+00  0.00000000E+00  1.60000000E+01  1.00800000E+00  1.00800000E+00
  0.00000000E+00  1.60000000E+01  1.00800000E+00  1.00800000E+00  0.00000000E+00
  1.60000000E+01  1.00800000E+00  1.00800000E+00  0.00000000E+00  1.60000000E+01
  1.00800000E+00  1.00800000E+00  0.00000000E+00  1.60000000E+01  1.00800000E+00
  1.00800000E+00  0.00000000E+00  1.60000000E+01  1.00800000E+00  1.00800000E+00
  0.00000000E+00  1.60000000E+01  1.00800000E+00  1.00800000E+00  0.00000000E+00
  1.60000000E+01  1.00800000E+00  1.00800000E+00  0.00000000E+00  1.60000000E+01
  1.00800000E+00  1.00800000E+00  0.00000000E+00  1.60000000E+01  1.00800000E+00
  1.00800000E+00  0.00000000E+00  1.60000000E+01  1.00800000E+00  1.00800000E+00
  0.00000000E+00  1.60000000E+01  1.00800000E+00  1.00800000E+00  0.00000000E+00
  1.60000000E+01  1.00800000E+00  1.00800000E+00  0.00000000E+00  1.60000000E+01
  1.00800000E+00  1.00800000E+00  0.00000000E+00  1.60000000E+01  1.00800000E+00
  1.00800000E+00  0.00000000E+00  1.60000000E+01  1.00800000E+00  1.00800000E+00
  0.00000000E+00  1.60000000E+01  1.00800000E+00  1.00800000E+00  0.00000000E+00
  1.60000000E+01  1.00800000E+00  1.00800000E+00  0.00000000E+00  1.60000000E+01
  1.00800000E+00  1.00800000E+00  0.00000000E+00  1.60000000E+01  1.00800000E+00
  1.00800000E+00  0.00000000E+00  1.60000000E+01  1.00800000E+00  1.00800000E+00
  0.00000000E+00  1.60000000E+01  1.00800000E+00  1.00800000E+00  0.00000000E+00
  1.60000000E+01  1.00800000E+00  1.00800000E+00  0.00000000E+00  1.60000000E+01
  1.00800000E+00  1.00800000E+00  0.00000000E+00  1.60000000E+01  1.00800000E+00
  1.00800000E+00  0.00000000E+00  1.60000000E+01  1.00800000E+00  1.00800000E+00
  0.00000000E+00  1.60000000E+01  1.00800000E+00  1.00800000E+00  0.00000000E+00
  1.60000000E+01  1.00800000E+00  1.00800000E+00  0.00000000E+00  1.60000000E+01
  1.00800000E+00  1.00800000E+00  0.00000000E+00  1.60000000E+01  1.00800000E+00
  1.00800000E+00  0.00000000E+00  1.60000000E+01  1.00800000E+00  1.00800000E+00
  0.00000000E+00  1.60000000E+01  1.00800000E+00  1.00800000E+00  0.00000000E+00
  1.60000000E+01  1.00800000E+00  1.00800000E+00  0.00000000E+00  1.60000000E+01
  1.00800000E+00  1.00800000E+00  0.00000000E+00  1.60000000E+01  1.00800000E+00
  1.00800000E+00  0.00000000E+00  1.60000000E+01  1.00800000E+00  1.00800000E+00
  0.00000000E+00  1.60000000E+01  1.00800000E+00  1.00800000E+00  0.00000000E+00
  1.60000000E+01  1.00800000E+00  1.00800000E+00  0.00000000E+00  1.60000000E+01
  1.00800000E+00  1.00800000E+00  0.00000000E+00  1.60000000E+01  1.00800000E+00
  1.00800000E+00  0.00000000E+00  1.60000000E+01  1.00800000E+00  1.00800000E+00
  0.00000000E+00  1.60000000E+01  1.00800000E+00  1.00800000E+00  0.00000000E+00
  1.60000000E+01  1.00800000E+00  1.00800000E+00  0.00000000E+00  1.60000000E+01
  1.00800000E+00  1.00800000E+00  0.00000000E+00  1.60000000E+01  1.00800000E+00
  1.00800000E+00  0.00000000E+00  1.60000000E+01  1.00800000E+00  1.00800000E+00
  0.00000000E+00  1.60000000E+01  1.00800000E+00  1.00800000E+00  0.00000000E+00
  1.60000000E+01  1.00800000E+00  1.00800000E+00  0.00000000E+00  1.60000000E+01
  1.00800000E+00  1.00800000E+00  0.00000000E+00  1.60000000E+01  1.00800000E+00
  1.00800000E+00  0.00000000E+00  1.60000000E+01  1.00800000E+00  1.00800000E+00
  0.00000000E+00  1.60000000E+01  1.00800000E+00  1.00800000E+00  0.00000000E+00
  1.60000000E+01  1.00800000E+00  1.00800000E+00  0.00000000E+00  1.60000000E+01
  1.00800000E+00  1.00800000E+00  0.00000000E+00  1.60000000E+01  1.00800000E+00
  1.00800000E+00  0.00000000E+00  1.60000000E+01  1.00800000E+00  1.00800000E+00
  0.00000000E+00  1.60000000E+01  1.00800000E+00  1.00800000E+00  0.00000000E+00
  1.60000000E+01  1.00800000E+00  1.00800000E+00  0.00000000E+00  1.60000000E+01
  1.00800000E+00  1.00800000E+00  0.00000000E+00  1.60000000E+01  1.00800000E+00
  1.00800000E+00  0.00000000E+00  1.60000000E+01  1.00800000E+00  1.00800000E+00
  0.00000000E+00  1.60000000E+01  1.00800000E+00  1.00800000E+00  0.00000000E+00
  1.60000000E+01  1.00800000E+00  1.00800000E+00  0.00000000E+00  1.60000000E+01
  1.00800000E+00  1.00800000E+00  0.00000000E+00  1.60000000E+01  1.00800000E+00
  1.00800000E+00  0.00000000E+00  1.60000000E+01  1.00800000E+00  1.00800000E+00
  0.00000000E+00  1.60000000E+01  1.00800000E+00  1.00800000E+00  0.00000000E+00
  1.60000000E+01  1.00800000E+00  1.00800000E+00  0.00000000E+00  1.60000000E+01
  1.00800000E+00  1.00800000E+00  0.00000000E+00  1.60000000E+01  1.00800000E+00
  1.00800000E+00  0.00000000E+00  1.60000000E+01  1.00800000E+00  1.00800000E+00
  0.00000000E+00  1.60000000E+01  1.00800000E+00  1.00800000E+00  0.00000000E+00
  1.60000000E+01  1.00800000E+00  1.00800000E+00  0.00000000E+00  1.60000000E+01
  1.00800000E+00  1.00800000E+00  0.00000000E+00  1.60000000E+01  1.00800000E+00
  1.00800000E+00  0.00000000E+00  1.60000000E+01  1.00800000E+00  1.00800000E+00
  0.00000000E+00  1.60000000E+01  1.00800000E+00  1.00800000E+00  0.00000000E+00
  1.60000000E+01  1.00800000E+00  1.00800000E+00  0.00000000E+00  1.60000000E+01
  1.00800000E+00  1.00800000E+00  0.00000000E+00  1.60000000E+01  1.00800000E+00
  1.00800000E+00  0.00000000E+00  1.60000000E+01  1.00800000E+00  1.00800000E+00
  0.00000000E+00  1.60000000E+01  1.00800000E+00  1.00800000E+00  0.00000000E+00
  1.60000000E+01  1.00800000E+00  1.00800000E+00  0.00000000E+00  1.60000000E+01
  1.00800000E+00  1.00800000E+00  0.00000000E+00  1.60000000E+01  1.00800000E+00
  1.00800000E+00  0.00000000E+00  1.60000000E+01  1.00800000E+00  1.00800000E+00
  0.00000000E+00  1.60000000E+01  1.00800000E+00  1.00800000E+00  0.00000000E+00
  1.60000000E+01  1.00800000E+00  1.00800000E+00  0.00000000E+00  1.60000000E+01
  1.00800000E+00  1.00800000E+00  0.00000000E+00  1.60000000E+01  1.00800000E+00
  1.00800000E+00  0.00000000E+00  1.60000000E+01  1.00800000E+00  1.00800000E+00
  0.00000000E+00  1.60000000E+01  1.00800000E+00  1.00800000E+00  0.00000000E+00
  1.60000000E+01  1.00800000E+00  1.00800000E+00  0.00000000E+00  1.60000000E+01
  1.00800000E+00  1.00800000E+00  0.00000000E+00  1.60000000E+01  1.00800000E+00
  1.00800000E+00  0.00000000E+00  1.60000000E+01  1.00800000E+00  1.00800000E+00
  0.00000000E+00  1.60000000E+01  1.00800000E+00  1.00800000E+00  0.00000000E+00
  1.60000000E+01  1.00800000E+00  1.00800000E+00  0.00000000E+00  1.60000000E+01
  1.00800000E+00  1.00800000E+00  0.00000000E+00  1.60000000E+01  1.00800000E+00
  1.00800000E+00  0.00000000E+00  1.60000000E+01  1.00800000E+00  1.00800000E+00
  0.00000000E+00  1.60000000E+01  1.00800000E+00  1.00800000E+00  0.00000000E+00
  1.60000000E+01  1.00800000E+00  1.00800000E+00  0.00000000E+00  1.60000000E+01
  1.00800000E+00  1.00800000E+00  0.00000000E+00  1.60000000E+01  1.00800000E+00
  1.00800000E+00  0.00000000E+00  1.60000000E+01  1.00800000E+00  1.00800000E+00
  0.00000000E+00  1.60000000E+01  1.00800000E+00  1.00800000E+00  0.00000000E+00
  1.60000000E+01  1.00800000E+00  1.00800000E+00  0.00000000E+00  1.60000000E+01
  1.00800000E+00  1.00800000E+00  0.00000000E+00  1.60000000E+01  1.00800000E+00
  1.00800000E+00  0.00000000E+00  1.60000000E+01  1.00800000E+00  1.00800000E+00
  0.00000000E+00  1.60000000E+01  1.00800000E+00  1.00800000E+00  0.00000000E+00
  1.60000000E+01  1.00800000E+00  1.00800000E+00  0.00000000E+00  1.60000000E+01
  1.00800000E+00  1.00800000E+00  0.00000000E+00  1.60000000E+01  1.00800000E+00
  1.00800000E+00  0.00000000E+00  1.60000000E+01  1.00800000E+00  1.00800000E+00
  0.00000000E+00  1.60000000E+01  1.00800000E+00  1.00800000E+00  0.00000000E+00
  1.60000000E+01  1.00800000E+00  1.00800000E+00  0.00000000E+00  1.60000000E+01
  1.00800000E+00  1.00800000E+00  0.00000000E+00  1.60000000E+01  1.00800000E+00
  1.00800000E+00  0.00000000E+00  1.60000000E+01  1.00800000E+00  1.00800000E+00
  0.00000000E+00  1.60000000E+01  1.00800000E+00  1.00800000E+00  0.00000000E+00
  1.60000000E+01  1.00800000E+00  1.00800000E+00  0.00000000E+00  1.60000000E+01
  1.00800000E+00  1.00800000E+00  0.00000000E+00  1.60000000E+01  1.00800000E+00
  1.00800000E+00  0.00000000E+00  1.60000000E+01  1.00800000E+00  1.00800000E+00
  0.00000000E+00  1.60000000E+01  1.00800000E+00  1.00800000E+00  0.00000000E+00
  1.60000000E+01  1.00800000E+00  1.00800000E+00  0.00000000E+00  1.60000000E+01
  1.00800000E+00  1.00800000E+00  0.00000000E+00  1.60000000E+01  1.00800000E+00
  1.00800000E+00  0.00000000E+00  1.60000000E+01  1.00800000E+00  1.00800000E+00
  0.00000000E+00  1.60000000E+01  1.00800000E+00  1.00800000E+00  0.00000000E+00
  1.60000000E+01  1.00800000E+00  1.00800000E+00  0.00000000E+00  1.60000000E+01
  1.00800000E+00  1.00800000E+00  0.00000000E+00  1.60000000E+01  1.00800000E+00
  1.00800000E+00  0.00000000E+00  1.60000000E+01  1.00800000E+00  1.00800000E+00
  0.00000000E+00  1.60000000E+01  1.00800000E+00  1.00800000E+00  0.00000000E+00
  1.60000000E+01  1.00800000E+00  1.00800000E+00  0.00000000E+00  1.60000000E+01
  1.00800000E+00  1.00800000E+00  0.00000000E+00  1.60000000E+01  1.00800000E+00
  1.00800000E+00  0.00000000E+00  1.60000000E+01  1.00800000E+00  1.00800000E+00
  0.00000000E+00  1.60000000E+01  1.00800000E+00  1.00800000E+00  0.00000000E+00
  1.60000000E+01  1.00800000E+00  1.00800000E+00  0.00000000E+00  1.60000000E+01
  1.00800000E+00  1.00800000E+00  0.00000000E+00  1.60000000E+01  1.00800000E+00
  1.00800000E+00  0.00000000E+00  1.60000000E+01  1.00800000E+00  1.00800000E+00
  0.00000000E+00  1.60000000E+01  1.00800000E+00  1.00800000E+00  0.00000000E+00
  1.60000000E+01  1.00800000E+00  1.00800000E+00  0.00000000E+00  1.60000000E+01
  1.00800000E+00  1.00800000E+00  0.00000000E+00  1.60000000E+01  1.00800000E+00
  1.00800000E+00  0.00000000E+00  1.60000000E+01  1.00800000E+00  1.00800000E+00
  0.00000000E+00  1.60000000E+01  1.00800000E+00  1.00800000E+00  0.00000000E+00
  1.60000000E+01  1.00800000E+00  1.00800000E+00  0.00000000E+00  1.60000000E+01
  1.00800000E+00  1.00800000E+00  0.00000000E+00  1.60000000E+01  1.00800000E+00
  1.00800000E+00  0.00000000E+00  1.60000000E+01  1.00800000E+00  1.00800000E+00
  0.00000000E+00  1.60000000E+01  1.00800000E+00  1.00800000E+00  0.00000000E+00
  1.60000000E+01  1.00800000E+00  1.00800000E+00  0.00000000E+00  1.60000000E+01
  1.00800000E+00  1.00800000E+00  0.00000000E+00  1.60000000E+01  1.00800000E+00
  1.00800000E+00  0.00000000E+00  1.60000000E+01  1.00800000E+00  1.00800000E+00
  0.00000000E+00  1.60000000E+01  1.00800000E+00  1.00800000E+00  0.00000000E+00
  1.60000000E+01  1.00800000E+00  1.00800000E+00  0.00000000E+00  1.60000000E+01
  1.00800000E+00  1.00800000E+00  0.00000000E+00  1.60000000E+01  1.00800000E+00
  1.00800000E+00  0.00000000E+00  1.60000000E+01  1.00800000E+00  1.00800000E+00
  0.00000000E+00  1.60000000E+01  1.00800000E+00  1.00800000E+00  0.00000000E+00
  1.60000000E+01  1.00800000E+00  1.00800000E+00  0.00000000E+00  1.60000000E+01
  1.00800000E+00  1.00800000E+00  0.00000000E+00  1.60000000E+01  1.00800000E+00
  1.00800000E+00  0.00000000E+00  1.60000000E+01  1.00800000E+00  1.00800000E+00
  0.00000000E+00  1.60000000E+01  1.00800000E+00  1.00800000E+00  0.00000000E+00
  1.60000000E+01  1.00800000E+00  1.00800000E+00  0.00000000E+00  1.60000000E+01
  1.00800000E+00  1.00800000E+00  0.00000000E+00  1.60000000E+01  1.00800000E+00
  1.00800000E+00  0.00000000E+00  1.60000000E+01  1.00800000E+00  1.00800000E+00
  0.00000000E+00  1.60000000E+01  1.00800000E+00  1.00800000E+00  0.00000000E+00
  1.60000000E+01  1.00800000E+00  1.00800000E+00  0.00000000E+00  1.60000000E+01
  1.00800000E+00  1.00800000E+00  0.00000000E+00  1.60000000E+01  1.00800000E+00
  1.00800000E+00  0.00000000E+00  1.60000000E+01  1.00800000E+00  1.00800000E+00
  0.00000000E+00  1.60000000E+01  1.00800000E+00  1.00800000E+00  0.00000000E+00
  1.60000000E+01  1.00800000E+00  1.00800000E+00  0.00000000E+00  1.60000000E+01
  1.00800000E+00  1.00800000E+00  0.00000000E+00  1.60000000E+01  1.00800000E+00
  1.00800000E+00  0.00000000E+00  1.60000000E+01  1.00800000E+00  1.00800000E+00
  0.00000000E+00  1.60000000E+01  1.00800000E+00  1.00800000E+00  0.00000000E+00
  1.60000000E+01  1.00800000E+00  1.00800000E+00  0.00000000E+00  1.60000000E+01
  1.00800000E+00  1.00800000E+00  0.00000000E+00  1.60000000E+01  1.00800000E+00
  1.00800000E+00  0.00000000E+00  1.60000000E+01  1.00800000E+00  1.00800000E+00
  0.00000000E+00  1.60000000E+01  1.00800000E+00  1.00800000E+00  0.00000000E+00
  1.60000000E+01  1.00800000E+00  1.00800000E+00  0.00000000E+00  1.60000000E+01
  1.00800000E+00  1.00800000E+00  0.00000000E+00  1.60000000E+01  1.00800000E+00
  1.00800000E+00  0.00000000E+00  1.60000000E+01  1.00800000E+00  1.00800000E+00
  0.00000000E+00  1.60000000E+01  1.00800000E+00  1.00800000E+00  0.00000000E+00
  1.60000000E+01  1.00800000E+00  1.00800000E+00  0.00000000E+00  1.60000000E+01
  1.00800000E+00  1.00800000E+00  0.00000000E+00  1.60000000E+01  1.00800000E+00
  1.00800000E+00  0.00000000E+00  1.60000000E+01  1.00800000E+00  1.00800000E+00
  0.00000000E+00  1.60000000E+01  1.00800000E+00  1.00800000E+00  0.00000000E+00
  1.60000000E+01  1.00800000E+00  1.00800000E+00  0.00000000E+00  1.60000000E+01
  1.00800000E+00  1.00800000E+00  0.00000000E+00  1.60000000E+01  1.00800000E+00
  1.00800000E+00  0.00000000E+00  1.60000000E+01  1.00800000E+00  1.00800000E+00
  0.00000000E+00  1.60000000E+01  1.00800000E+00  1.00800000E+00  0.00000000E+00
  1.60000000E+01  1.00800000E+00  1.00800000E+00  0.00000000E+00  1.60000000E+01
  1.00800000E+00  1.00800000E+00  0.00000000E+00  1.60000000E+01  1.00800000E+00
  1.00800000E+00  0.00000000E+00  1.60000000E+01  1.00800000E+00  1.00800000E+00
  0.00000000E+00  1.60000000E+01  1.00800000E+00  1.00800000E+00  0.00000000E+00
  1.60000000E+01  1.00800000E+00  1.00800000E+00  0.00000000E+00  1.60000000E+01
  1.00800000E+00  1.00800000E+00  0.00000000E+00  1.60000000E+01  1.00800000E+00
  1.00800000E+00  0.00000000E+00  1.60000000E+01  1.00800000E+00  1.00800000E+00
  0.00000000E+00  1.60000000E+01  1.00800000E+00  1.00800000E+00  0.00000000E+00
  1.60000000E+01  1.00800000E+00  1.00800000E+00  0.00000000E+00  1.60000000E+01
  1.00800000E+00  1.00800000E+00  0.00000000E+00  1.60000000E+01  1.00800000E+00
  1.00800000E+00  0.00000000E+00  1.60000000E+01  1.00800000E+00  1.00800000E+00
  0.00000000E+00  1.60000000E+01  1.00800000E+00  1.00800000E+00  0.00000000E+00
  1.60000000E+01  1.00800000E+00  1.00800000E+00  0.00000000E+00  1.60000000E+01
  1.00800000E+00  1.00800000E+00  0.00000000E+00  1.60000000E+01  1.00800000E+00
  1.00800000E+00  0.00000000E+00  1.60000000E+01  1.00800000E+00  1.00800000E+00
  0.00000000E+00  1.60000000E+01  1.00800000E+00  1.00800000E+00  0.00000000E+00
  1.60000000E+01  1.00800000E+00  1.00800000E+00  0.00000000E+00  1.60000000E+01
  1.00800000E+00  1.00800000E+00  0.00000000E+00  1.60000000E+01  1.00800000E+00
  1.00800000E+00  0.00000000E+00  1.60000000E+01  1.00800000E+00  1.00800000E+00
  0.00000000E+00  1.60000000E+01  1.00800000E+00  1.00800000E+00  0.00000000E+00
  1.60000000E+01  1.00800000E+00  1.00800000E+00  0.00000000E+00  1.60000000E+01
  1.00800000E+00  1.00800000E+00  0.00000000E+00  1.60000000E+01  1.00800000E+00
  1.00800000E+00  0.00000000E+00  1.60000000E+01  1.00800000E+00  1.00800000E+00
  0.00000000E+00  1.60000000E+01  1.00800000E+00  1.00800000E+00  0.00000000E+00
  1.60000000E+01  1.00800000E+00  1.00800000E+00  0.00000000E+00  1.60000000E+01
  1.00800000E+00  1.00800000E+00  0.00000000E+00  1.60000000E+01  1.00800000E+00
  1.00800000E+00  0.00000000E+00  1.60000000E+01  1.00800000E+00  1.00800000E+00
  0.00000000E+00  1.60000000E+01  1.00800000E+00  1.00800000E+00  0.00000000E+00
  1.60000000E+01  1.00800000E+00  1.00800000E+00  0.00000000E+00  1.60000000E+01
  1.00800000E+00  1.00800000E+00  0.00000000E+00  1.60000000E+01  1.00800000E+00
  1.00800000E+00  0.00000000E+00  1.60000000E+01  1.00800000E+00  1.00800000E+00
  0.00000000E+00  1.60000000E+01  1.00800000E+00  1.00800000E+00  0.00000000E+00
  1.60000000E+01  1.00800000E+00  1.00800000E+00  0.00000000E+00  1.60000000E+01
  1.00800000E+00  1.00800000E+00  0.00000000E+00  1.60000000E+01  1.00800000E+00
  1.00800000E+00  0.00000000E+00  1.60000000E+01  1.00800000E+00  1.00800000E+00
  0.00000000E+00  1.60000000E+01  1.00800000E+00  1.00800000E+00  0.00000000E+00
  1.60000000E+01  1.00800000E+00  1.00800000E+00  0.00000000E+00  1.60000000E+01
  1.00800000E+00  1.00800000E+00  0.00000000E+00  1.60000000E+01  1.00800000E+00
  1.00800000E+00  0.00000000E+00  1.60000000E+01  1.00800000E+00  1.00800000E+00
  0.00000000E+00  1.60000000E+01  1.00800000E+00  1.00800000E+00  0.00000000E+00
  1.60000000E+01  1.00800000E+00  1.00800000E+00  0.00000000E+00  1.60000000E+01
  1.00800000E+00  1.00800000E+00  0.00000000E+00  1.60000000E+01  1.00800000E+00
  1.00800000E+00  0.00000000E+00  1.60000000E+01  1.00800000E+00  1.00800000E+00
  0.00000000E+00  1.60000000E+01  1.00800000E+00  1.00800000E+00  0.00000000E+00
  1.60000000E+01  1.00800000E+00  1.00800000E+00  0.00000000E+00  1.60000000E+01
  1.00800000E+00  1.00800000E+00  0.00000000E+00  1.60000000E+01  1.00800000E+00
  1.00800000E+00  0.00000000E+00  1.60000000E+01  1.00800000E+00  1.00800000E+00
  0.00000000E+00  1.60000000E+01  1.00800000E+00  1.00800000E+00  0.00000000E+00
  1.60000000E+01  1.00800000E+00  1.00800000E+00  0.00000000E+00  1.60000000E+01
  1.00800000E+00  1.00800000E+00  0.00000000E+00  1.60000000E+01  1.00800000E+00
  1.00800000E+00  0.00000000E+00  1.60000000E+01  1.00800000E+00  1.00800000E+00
  0.00000000E+00  1.60000000E+01  1.00800000E+00  1.00800000E+00  0.00000000E+00
  1.60000000E+01  1.00800000E+00  1.00800000E+00  0.00000000E+00  1.60000000E+01
  1.00800000E+00  1.00800000E+00  0.00000000E+00  1.60000000E+01  1.00800000E+00
  1.00800000E+00  0.00000000E+00  1.60000000E+01  1.00800000E+00  1.00800000E+00
  0.00000000E+00  1.60000000E+01  1.00800000E+00  1.00800000E+00  0.00000000E+00
  1.60000000E+01  1.00800000E+00  1.00800000E+00  0.00000000E+00  1.60000000E+01
  1.00800000E+00  1.00800000E+00  0.00000000E+00  1.60000000E+01  1.00800000E+00
  1.00800000E+00  0.00000000E+00  1.60000000E+01  1.00800000E+00  1.00800000E+00
  0.00000000E+00  1.60000000E+01  1.00800000E+00  1.00800000E+00  0.00000000E+00
  1.60000000E+01  1.00800000E+00  1.00800000E+00  0.00000000E+00  1.60000000E+01
  1.00800000E+00  1.00800000E+00  0.00000000E+00  1.60000000E+01  1.00800000E+00
  1.00800000E+00  0.00000000E+00  1.60000000E+01  1.00800000E+00  1.00800000E+00
  0.00000000E+00  1.60000000E+01  1.00800000E+00  1.00800000E+00  0.00000000E+00
  1.60000000E+01  1.00800000E+00  1.00800000E+00  0.00000000E+00  1.60000000E+01
  1.00800000E+00  1.00800000E+00  0.00000000E+00  1.60000000E+01  1.00800000E+00
  1.00800000E+00  0.00000000E+00  1.60000000E+01  1.00800000E+00  1.00800000E+00
  0.00000000E+00  1.60000000E+01  1.00800000E+00  1.00800000E+00  0.00000000E+00
  1.60000000E+01  1.00800000E+00  1.00800000E+00  0.00000000E+00  1.60000000E+01
  1.00800000E+00  1.00800000E+00  0.00000000E+00  1.60000000E+01  1.00800000E+00
  1.00800000E+00  0.00000000E+00  1.60000000E+01  1.00800000E+00  1.00800000E+00
  0.00000000E+00  1.60000000E+01  1.00800000E+00  1.00800000E+00  0.00000000E+00
  1.60000000E+01  1.00800000E+00  1.00800000E+00  0.00000000E+00  1.60000000E+01
  1.00800000E+00  1.00800000E+00  0.00000000E+00  1.60000000E+01  1.00800000E+00
  1.00800000E+00  0.00000000E+00  1.60000000E+01  1.00800000E+00  1.00800000E+00
  0.00000000E+00  1.60000000E+01  1.00800000E+00  1.00800000E+00  0.00000000E+00
  1.60000000E+01  1.00800000E+00  1.00800000E+00  0.00000000E+00  1.60000000E+01
  1.00800000E+00  1.00800000E+00  0.00000000E+00  1.60000000E+01  1.00800000E+00
  1.00800000E+00  0.00000000E+00  1.60000000E+01  1.00800000E+00  1.00800000E+00
  0.00000000E+00  1.60000000E+01  1.00800000E+00  1.00800000E+00  0.00000000E+00
  1.60000000E+01  1.00800000E+00  1.00800000E+00  0.00000000E+00  1.60000000E+01
  1.00800000E+00  1.00800000E+00  0.00000000E+00  1.60000000E+01  1.00800000E+00
  1.00800000E+00  0.00000000E+00  1.60000000E+01  1.00800000E+00  1.00800000E+00
  0.00000000E+00  1.60000000E+01  1.00800000E+00  1.00800000E+00  0.00000000E+00
  1.60000000E+01  1.00800000E+00  1.00800000E+00  0.00000000E+00  1.60000000E+01
  1.00800000E+00  1.00800000E+00  0.00000000E+00  1.60000000E+01  1.00800000E+00
  1.00800000E+00  0.00000000E+00  1.60000000E+01  1.00800000E+00  1.00800000E+00
  0.00000000E+00  1.60000000E+01  1.00800000E+00  1.00800000E+00  0.00000000E+00
  1.60000000E+01  1.00800000E+00  1.00800000E+00  0.00000000E+00  1.60000000E+01
  1.00800000E+00  1.00800000E+00  0.00000000E+00  1.60000000E+01  1.00800000E+00
  1.00800000E+00  0.00000000E+00  1.60000000E+01  1.00800000E+00  1.00800000E+00
  0.00000000E+00  1.60000000E+01  1.00800000E+00  1.00800000E+00  0.00000000E+00
  1.60000000E+01  1.00800000E+00  1.00800000E+00  0.00000000E+00  1.60000000E+01
  1.00800000E+00  1.00800000E+00  0.00000000E+00  1.60000000E+01  1.00800000E+00
  1.00800000E+00  0.00000000E+00  1.60000000E+01  1.00800000E+00  1.00800000E+00
  0.00000000E+00  1.60000000E+01  1.00800000E+00  1.00800000E+00  0.00000000E+00
  1.60000000E+01  1.00800000E+00  1.00800000E+00  0.00000000E+00  1.60000000E+01
  1.00800000E+00  1.00800000E+00  0.00000000E+00  1.60000000E+01  1.00800000E+00
  1.00800000E+00  0.00000000E+00  1.60000000E+01  1.00800000E+00  1.00800000E+00
  0.00000000E+00  1.60000000E+01  1.00800000E+00  1.00800000E+00  0.00000000E+00
  1.60000000E+01  1.00800000E+00  1.00800000E+00  0.00000000E+00  1.60000000E+01
  1.00800000E+00  1.00800000E+00  0.00000000E+00  1.60000000E+01  1.00800000E+00
  1.00800000E+00  0.00000000E+00  1.60000000E+01  1.00800000E+00  1.00800000E+00
  0.00000000E+00  1.60000000E+01  1.00800000E+00  1.00800000E+00  0.00000000E+00
  1.60000000E+01  1.00800000E+00  1.00800000E+00  0.00000000E+00  1.60000000E+01
  1.00800000E+00  1.00800000E+00  0.00000000E+00  1.60000000E+01  1.00800000E+00
  1.00800000E+00  0.00000000E+00  1.60000000E+01  1.00800000E+00  1.00800000E+00
  0.00000000E+00  1.60000000E+01  1.00800000E+00  1.00800000E+00  0.00000000E+00
  1.60000000E+01  1.00800000E+00  1.00800000E+00  0.00000000E+00  1.60000000E+01
  1.00800000E+00  1.00800000E+00  0.00000000E+00  1.60000000E+01  1.00800000E+00
  1.00800000E+00  0.00000000E+00  1.60000000E+01  1.00800000E+00  1.00800000E+00
  0.00000000E+00  1.60000000E+01  1.00800000E+00  1.00800000E+00  0.00000000E+00
  1.60000000E+01  1.00800000E+00  1.00800000E+00  0.00000000E+00  1.60000000E+01
  1.00800000E+00  1.00800000E+00  0.00000000E+00  1.60000000E+01  1.00800000E+00
  1.00800000E+00  0.00000000E+00  1.60000000E+01  1.00800000E+00  1.00800000E+00
  0.00000000E+00  1.60000000E+01  1.00800000E+00  1.00800000E+00  0.00000000E+00
  1.60000000E+01  1.00800000E+00  1.00800000E+00  0.00000000E+00  1.60000000E+01
  1.00800000E+00  1.00800000E+00  0.00000000E+00  1.60000000E+01  1.00800000E+00
  1.00800000E+00  0.00000000E+00  1.60000000E+01  1.00800000E+00  1.00800000E+00
  0.00000000E+00  1.60000000E+01  1.00800000E+00  1.00800000E+00  0.00000000E+00
  1.60000000E+01  1.00800000E+00  1.00800000E+00  0.00000000E+00  1.60000000E+01
  1.00800000E+00  1.00800000E+00  0.00000000E+00  1.60000000E+01  1.00800000E+00
  1.00800000E+00  0.00000000E+00  1.60000000E+01  1.00800000E+00  1.00800000E+00
  0.00000000E+00  1.60000000E+01  1.00800000E+00  1.00800000E+00  0.00000000E+00
  1.60000000E+01  1.00800000E+00  1.00800000E+00  0.00000000E+00  1.60000000E+01
  1.00800000E+00  1.00800000E+00  0.00000000E+00  1.60000000E+01  1.00800000E+00
  1.00800000E+00  0.00000000E+00  1.60000000E+01  1.00800000E+00  1.00800000E+00
  0.00000000E+00  1.60000000E+01  1.00800000E+00  1.00800000E+00  0.00000000E+00
  1.60000000E+01  1.00800000E+00  1.00800000E+00  0.00000000E+00  1.60000000E+01
  1.00800000E+00  1.00800000E+00  0.00000000E+00  1.60000000E+01  1.00800000E+00
  1.00800000E+00  0.00000000E+00  1.60000000E+01  1.00800000E+00  1.00800000E+00
  0.00000000E+00  1.60000000E+01  1.00800000E+00  1.00800000E+00  0.00000000E+00
  1.60000000E+01  1.00800000E+00  1.00800000E+00  0.00000000E+00  1.60000000E+01
  1.00800000E+00  1.00800000E+00  0.00000000E+00  1.60000000E+01  1.00800000E+00
  1.00800000E+00  0.00000000E+00  1.60000000E+01  1.00800000E+00  1.00800000E+00
  0.00000000E+00  1.60000000E+01  1.00800000E+00  1.00800000E+00  0.00000000E+00
  1.60000000E+01  1.00800000E+00  1.00800000E+00  0.00000000E+00  1.60000000E+01
  1.00800000E+00  1.00800000E+00  0.00000000E+00  1.60000000E+01  1.00800000E+00
  1.00800000E+00  0.00000000E+00  1.60000000E+01  1.00800000E+00  1.00800000E+00
  0.00000000E+00  1.60000000E+01  1.00800000E+00  1.00800000E+00  0.00000000E+00
  1.60000000E+01  1.00800000E+00  1.00800000E+00  0.00000000E+00  1.60000000E+01
  1.00800000E+00  1.00800000E+00  0.00000000E+00  1.60000000E+01  1.00800000E+00
  1.00800000E+00  0.00000000E+00  1.60000000E+01  1.00800000E+00  1.00800000E+00
  0.00000000E+00  1.60000000E+01  1.00800000E+00  1.00800000E+00  0.00000000E+00
  1.60000000E+01  1.00800000E+00  1.00800000E+00  0.00000000E+00  1.60000000E+01
  1.00800000E+00  1.00800000E+00  0.00000000E+00  1.60000000E+01  1.00800000E+00
  1.00800000E+00  0.00000000E+00  1.60000000E+01  1.00800000E+00  1.00800000E+00
  0.00000000E+00  1.60000000E+01  1.00800000E+00  1.00800000E+00  0.00000000E+00
  1.60000000E+01  1.00800000E+00  1.00800000E+00  0.00000000E+00  1.60000000E+01
  1.00800000E+00  1.00800000E+00  0.00000000E+00  1.60000000E+01  1.00800000E+00
  1.00800000E+00  0.00000000E+00  1.60000000E+01  1.00800000E+00  1.00800000E+00
  0.00000000E+00  1.60000000E+01  1.00800000E+00  1.00800000E+00  0.00000000E+00
  1.60000000E+01  1.00800000E+00  1.00800000E+00  0.00000000E+00  1.60000000E+01
  1.00800000E+00  1.00800000E+00  0.00000000E+00  1.60000000E+01  1.00800000E+00
  1.00800000E+00  0.00000000E+00  1.60000000E+01  1.00800000E+00  1.00800000E+00
  0.00000000E+00  1.60000000E+01  1.00800000E+00  1.00800000E+00  0.00000000E+00
  1.60000000E+01  1.00800000E+00  1.00800000E+00  0.00000000E+00  1.60000000E+01
  1.00800000E+00  1.00800000E+00  0.00000000E+00  1.60000000E+01  1.00800000E+00
  1.00800000E+00  0.00000000E+00  1.60000000E+01  1.00800000E+00  1.00800000E+00
  0.00000000E+00  1.60000000E+01  1.00800000E+00  1.00800000E+00  0.00000000E+00
  1.60000000E+01  1.00800000E+00  1.00800000E+00  0.00000000E+00  1.60000000E+01
  1.00800000E+00  1.00800000E+00  0.00000000E+00  1.60000000E+01  1.00800000E+00
  1.00800000E+00  0.00000000E+00  1.60000000E+01  1.00800000E+00  1.00800000E+00
  0.00000000E+00  1.60000000E+01  1.00800000E+00  1.00800000E+00  0.00000000E+00
  1.60000000E+01  1.00800000E+00  1.00800000E+00  0.00000000E+00  1.60000000E+01
  1.00800000E+00  1.00800000E+00  0.00000000E+00  1.60000000E+01  1.00800000E+00
  1.00800000E+00  0.00000000E+00  1.60000000E+01  1.00800000E+00  1.00800000E+00
  0.00000000E+00  1.60000000E+01  1.00800000E+00  1.00800000E+00  0.00000000E+00
  1.60000000E+01  1.00800000E+00  1.00800000E+00  0.00000000E+00  1.60000000E+01
  1.00800000E+00  1.00800000E+00  0.00000000E+00  1.60000000E+01  1.00800000E+00
  1.00800000E+00  0.00000000E+00  1.60000000E+01  1.00800000E+00  1.00800000E+00
  0.00000000E+00  1.60000000E+01  1.00800000E+00  1.00800000E+00  0.00000000E+00
  1.60000000E+01  1.00800000E+00  1.00800000E+00  0.00000000E+00  1.60000000E+01
  1.00800000E+00  1.00800000E+00  0.00000000E+00  1.60000000E+01  1.00800000E+00
  1.00800000E+00  0.00000000E+00  1.60000000E+01  1.00800000E+00  1.00800000E+00
  0.00000000E+00  1.60000000E+01  1.00800000E+00  1.00800000E+00  0.00000000E+00
  1.60000000E+01  1.00800000E+00  1.00800000E+00  0.00000000E+00  1.60000000E+01
  1.00800000E+00  1.00800000E+00  0.00000000E+00  1.60000000E+01  1.00800000E+00
  1.00800000E+00  0.00000000E+00  1.60000000E+01  1.00800000E+00  1.00800000E+00
  0.00000000E+00  1.60000000E+01  1.00800000E+00  1.00800000E+00  0.00000000E+00
  1.60000000E+01  1.00800000E+00  1.00800000E+00  0.00000000E+00  1.60000000E+01
  1.00800000E+00  1.00800000E+00  0.00000000E+00  1.60000000E+01  1.00800000E+00
  1.00800000E+00  0.00000000E+00  1.60000000E+01  1.00800000E+00  1.00800000E+00
  0.00000000E+00  1.60000000E+01  1.00800000E+00  1.00800000E+00  0.00000000E+00
  1.60000000E+01  1.00800000E+00  1.00800000E+00  0.00000000E+00  1.60000000E+01
  1.00800000E+00  1.00800000E+00  0.00000000E+00  1.60000000E+01  1.00800000E+00
  1.00800000E+00  0.00000000E+00  1.60000000E+01  1.00800000E+00  1.00800000E+00
  0.00000000E+00  1.60000000E+01  1.00800000E+00  1.00800000E+00  0.00000000E+00
  1.60000000E+01  1.00800000E+00  1.00800000E+00  0.00000000E+00  1.60000000E+01
  1.00800000E+00  1.00800000E+00  0.00000000E+00  1.60000000E+01  1.00800000E+00
  1.00800000E+00  0.00000000E+00  1.60000000E+01  1.00800000E+00  1.00800000E+00
  0.00000000E+00  1.60000000E+01  1.00800000E+00  1.00800000E+00  0.00000000E+00
  1.60000000E+01  1.00800000E+00  1.00800000E+00  0.00000000E+00  1.60000000E+01
  1.00800000E+00  1.00800000E+00  0.00000000E+00  1.60000000E+01  1.00800000E+00
  1.00800000E+00  0.00000000E+00  1.60000000E+01  1.00800000E+00  1.00800000E+00
  0.00000000E+00  1.60000000E+01  1.00800000E+00  1.00800000E+00  0.00000000E+00
  1.60000000E+01  1.00800000E+00  1.00800000E+00  0.00000000E+00  1.60000000E+01
  1.00800000E+00  1.00800000E+00  0.00000000E+00  1.60000000E+01  1.00800000E+00
  1.00800000E+00  0.00000000E+00  1.60000000E+01  1.00800000E+00  1.00800000E+00
  0.00000000E+00  1.60000000E+01  1.00800000E+00  1.00800000E+00  0.00000000E+00
  1.60000000E+01  1.00800000E+00  1.00800000E+00  0.00000000E+00  1.60000000E+01
  1.00800000E+00  1.00800000E+00  0.00000000E+00  1.60000000E+01  1.00800000E+00
  1.00800000E+00  0.00000000E+00  1.60000000E+01  1.00800000E+00  1.00800000E+00
  0.00000000E+00  1.60000000E+01  1.00800000E+00  1.00800000E+00  0.00000000E+00
  1.60000000E+01  1.00800000E+00  1.00800000E+00  0.00000000E+00  1.60000000E+01
  1.00800000E+00  1.00800000E+00  0.00000000E+00  1.60000000E+01  1.00800000E+00
  1.00800000E+00  0.00000000E+00  1.60000000E+01  1.00800000E+00  1.00800000E+00
  0.00000000E+00  1.60000000E+01  1.00800000E+00  1.00800000E+00  0.00000000E+00
  1.60000000E+01  1.00800000E+00  1.00800000E+00  0.00000000E+00  1.60000000E+01
  1.00800000E+00  1.00800000E+00  0.00000000E+00  1.60000000E+01  1.00800000E+00
  1.00800000E+00  0.00000000E+00  1.60000000E+01  1.00800000E+00  1.00800000E+00
  0.00000000E+00  1.60000000E+01  1.00800000E+00  1.00800000E+00  0.00000000E+00
  1.60000000E+01  1.00800000E+00  1.00800000E+00  0.00000000E+00  1.60000000E+01
  1.00800000E+00  1.00800000E+00  0.00000000E+00  1.60000000E+01  1.00800000E+00
  1.00800000E+00  0.00000000E+00  1.60000000E+01  1.00800000E+00  1.00800000E+00
  0.00000000E+00  1.60000000E+01  1.00800000E+00  1.00800000E+00  0.00000000E+00
  1.60000000E+01  1.00800000E+00  1.00800000E+00  0.00000000E+00  1.60000000E+01
  1.00800000E+00  1.00800000E+00  0.00000000E+00  1.60000000E+01  1.00800000E+00
  1.00800000E+00  0.00000000E+00  1.60000000E+01  1.00800000E+00  1.00800000E+00
  0.00000000E+00  1.60000000E+01  1.00800000E+00  1.00800000E+00  0.00000000E+00
  1.60000000E+01  1.00800000E+00  1.00800000E+00  0.00000000E+00  1.60000000E+01
  1.00800000E+00  1.00800000E+00  0.00000000E+00  1.60000000E+01  1.00800000E+00
  1.00800000E+00  0.00000000E+00  1.60000000E+01  1.00800000E+00  1.00800000E+00
  0.00000000E+00  1.60000000E+01  1.00800000E+00  1.00800000E+00  0.00000000E+00
  1.60000000E+01  1.00800000E+00  1.00800000E+00  0.00000000E+00  1.60000000E+01
  1.00800000E+00  1.00800000E+00  0.00000000E+00  1.60000000E+01  1.00800000E+00
  1.00800000E+00  0.00000000E+00  1.60000000E+01  1.00800000E+00  1.00800000E+00
  0.00000000E+00  1.60000000E+01  1.00800000E+00  1.00800000E+00  0.00000000E+00
  1.60000000E+01  1.00800000E+00  1.00800000E+00  0.00000000E+00  1.60000000E+01
  1.00800000E+00  1.00800000E+00  0.00000000E+00  1.60000000E+01  1.00800000E+00
  1.00800000E+00  0.00000000E+00  1.60000000E+01  1.00800000E+00  1.00800000E+00
  0.00000000E+00  1.60000000E+01  1.00800000E+00  1.00800000E+00  0.00000000E+00
  1.60000000E+01  1.00800000E+00  1.00800000E+00  0.00000000E+00  1.60000000E+01
  1.00800000E+00  1.00800000E+00  0.00000000E+00  1.60000000E+01  1.00800000E+00
  1.00800000E+00  0.00000000E+00  1.60000000E+01  1.00800000E+00  1.00800000E+00
  0.00000000E+00  1.60000000E+01  1.00800000E+00  1.00800000E+00  0.00000000E+00
  1.60000000E+01  1.00800000E+00  1.00800000E+00  0.00000000E+00  1.60000000E+01
  1.00800000E+00  1.00800000E+00  0.00000000E+00  1.60000000E+01  1.00800000E+00
  1.00800000E+00  0.00000000E+00  1.60000000E+01  1.00800000E+00  1.00800000E+00
  0.00000000E+00  1.60000000E+01  1.00800000E+00  1.00800000E+00  0.00000000E+00
  1.60000000E+01  1.00800000E+00  1.00800000E+00  0.00000000E+00  1.60000000E+01
  1.00800000E+00  1.00800000E+00  0.00000000E+00  1.60000000E+01  1.00800000E+00
  1.00800000E+00  0.00000000E+00  1.60000000E+01  1.00800000E+00  1.00800000E+00
  0.00000000E+00  1.60000000E+01  1.00800000E+00  1.00800000E+00  0.00000000E+00
  1.60000000E+01  1.00800000E+00  1.00800000E+00  0.00000000E+00  1.60000000E+01
  1.00800000E+00  1.00800000E+00  0.00000000E+00  1.60000000E+01  1.00800000E+00
  1.00800000E+00  0.00000000E+00  1.60000000E+01  1.00800000E+00  1.00800000E+00
  0.00000000E+00  1.60000000E+01  1.00800000E+00  1.00800000E+00  0.00000000E+00
  1.60000000E+01  1.00800000E+00  1.00800000E+00  0.00000000E+00  1.60000000E+01
  1.00800000E+00  1.00800000E+00  0.00000000E+00  1.60000000E+01  1.00800000E+00
  1.00800000E+00  0.00000000E+00  1.60000000E+01  1.00800000E+00  1.00800000E+00
  0.00000000E+00  1.60000000E+01  1.00800000E+00  1.00800000E+00  0.00000000E+00
  1.60000000E+01  1.00800000E+00  1.00800000E+00  0.00000000E+00  1.60000000E+01
  1.00800000E+00  1.00800000E+00  0.00000000E+00  1.60000000E+01  1.00800000E+00
  1.00800000E+00  0.00000000E+00  1.60000000E+01  1.00800000E+00  1.00800000E+00
  0.00000000E+00  1.60000000E+01  1.00800000E+00  1.00800000E+00  0.00000000E+00
  1.60000000E+01  1.00800000E+00  1.00800000E+00  0.00000000E+00  1.60000000E+01
  1.00800000E+00  1.00800000E+00  0.00000000E+00  1.60000000E+01  1.00800000E+00
  1.00800000E+00  0.00000000E+00  1.60000000E+01  1.00800000E+00  1.00800000E+00
  0.00000000E+00  1.60000000E+01  1.00800000E+00  1.00800000E+00  0.00000000E+00
  1.60000000E+01  1.00800000E+00  1.00800000E+00  0.00000000E+00  1.60000000E+01
  1.00800000E+00  1.00800000E+00  0.00000000E+00  1.60000000E+01  1.00800000E+00
  1.00800000E+00  0.00000000E+00  1.60000000E+01  1.00800000E+00  1.00800000E+00
  0.00000000E+00  1.60000000E+01  1.00800000E+00  1.00800000E+00  0.00000000E+00
  1.60000000E+01  1.00800000E+00  1.00800000E+00  0.00000000E+00  1.60000000E+01
  1.00800000E+00  1.00800000E+00  0.00000000E+00  1.60000000E+01  1.00800000E+00
  1.00800000E+00  0.00000000E+00  1.60000000E+01  1.00800000E+00  1.00800000E+00
  0.00000000E+00  1.60000000E+01  1.00800000E+00  1.00800000E+00  0.00000000E+00
  1.60000000E+01  1.00800000E+00  1.00800000E+00  0.00000000E+00  1.60000000E+01
  1.00800000E+00  1.00800000E+00  0.00000000E+00  1.60000000E+01  1.00800000E+00
  1.00800000E+00  0.00000000E+00  1.60000000E+01  1.00800000E+00  1.00800000E+00
  0.00000000E+00  1.60000000E+01  1.00800000E+00  1.00800000E+00  0.00000000E+00
  1.60000000E+01  1.00800000E+00  1.00800000E+00  0.00000000E+00  1.60000000E+01
  1.00800000E+00  1.00800000E+00  0.00000000E+00  1.60000000E+01  1.00800000E+00
  1.00800000E+00  0.00000000E+00  1.60000000E+01  1.00800000E+00  1.00800000E+00
  0.00000000E+00  1.60000000E+01  1.00800000E+00  1.00800000E+00  0.00000000E+00
  1.60000000E+01  1.00800000E+00  1.00800000E+00  0.00000000E+00  1.60000000E+01
  1.00800000E+00  1.00800000E+00  0.00000000E+00  1.60000000E+01  1.00800000E+00
  1.00800000E+00  0.00000000E+00  1.60000000E+01  1.00800000E+00  1.00800000E+00
  0.00000000E+00  1.60000000E+01  1.00800000E+00  1.00800000E+00  0.00000000E+00
  1.60000000E+01  1.00800000E+00  1.00800000E+00  0.00000000E+00  1.60000000E+01
  1.00800000E+00  1.00800000E+00  0.00000000E+00  1.60000000E+01  1.00800000E+00
  1.00800000E+00  0.00000000E+00  1.60000000E+01  1.00800000E+00  1.00800000E+00
  0.00000000E+00  1.60000000E+01  1.00800000E+00  1.00800000E+00  0.00000000E+00
  1.60000000E+01  1.00800000E+00  1.00800000E+00  0.00000000E+00  1.60000000E+01
  1.00800000E+00  1.00800000E+00  0.00000000E+00  1.60000000E+01  1.00800000E+00
  1.00800000E+00  0.00000000E+00  1.60000000E+01  1.00800000E+00  1.00800000E+00
  0.00000000E+00  1.60000000E+01  1.00800000E+00  1.00800000E+00  0.00000000E+00
  1.60000000E+01  1.00800000E+00  1.00800000E+00  0.00000000E+00  1.60000000E+01
  1.00800000E+00  1.00800000E+00  0.00000000E+00  1.60000000E+01  1.00800000E+00
  1.00800000E+00  0.00000000E+00  1.60000000E+01  1.00800000E+00  1.00800000E+00
  0.00000000E+00  1.60000000E+01  1.00800000E+00  1.00800000E+00  0.00000000E+00
  1.60000000E+01  1.00800000E+00  1.00800000E+00  0.00000000E+00  1.60000000E+01
  1.00800000E+00  1.00800000E+00  0.00000000E+00  1.60000000E+01  1.00800000E+00
  1.00800000E+00  0.00000000E+00  1.60000000E+01  1.00800000E+00  1.00800000E+00
  0.00000000E+00  1.60000000E+01  1.00800000E+00  1.00800000E+00  0.00000000E+00
  1.60000000E+01  1.00800000E+00  1.00800000E+00  0.00000000E+00  1.60000000E+01
  1.00800000E+00  1.00800000E+00  0.00000000E+00  1.60000000E+01  1.00800000E+00
  1.00800000E+00  0.00000000E+00  1.60000000E+01  1.00800000E+00  1.00800000E+00
  0.00000000E+00  1.60000000E+01  1.00800000E+00  1.00800000E+00  0.00000000E+00
  1.60000000E+01  1.00800000E+00  1.00800000E+00  0.00000000E+00  1.60000000E+01
  1.00800000E+00  1.00800000E+00  0.00000000E+00  1.60000000E+01  1.00800000E+00
  1.00800000E+00  0.00000000E+00  1.60000000E+01  1.00800000E+00  1.00800000E+00
  0.00000000E+00  1.60000000E+01  1.00800000E+00  1.00800000E+00  0.00000000E+00
  1.60000000E+01  1.00800000E+00  1.00800000E+00  0.00000000E+00  1.60000000E+01
  1.00800000E+00  1.00800000E+00  0.00000000E+00  1.60000000E+01  1.00800000E+00
  1.00800000E+00  0.00000000E+00  1.60000000E+01  1.00800000E+00  1.00800000E+00
  0.00000000E+00  1.60000000E+01  1.00800000E+00  1.00800000E+00  0.00000000E+00
  1.60000000E+01  1.00800000E+00  1.00800000E+00  0.00000000E+00  1.60000000E+01
  1.00800000E+00  1.00800000E+00  0.00000000E+00  1.60000000E+01  1.00800000E+00
  1.00800000E+00  0.00000000E+00  1.60000000E+01  1.00800000E+00  1.00800000E+00
  0.00000000E+00  1.60000000E+01  1.00800000E+00  1.00800000E+00  0.00000000E+00
  1.60000000E+01  1.00800000E+00  1.00800000E+00  0.00000000E+00  1.60000000E+01
  1.00800000E+00  1.00800000E+00  0.00000000E+00  1.60000000E+01  1.00800000E+00
  1.00800000E+00  0.00000000E+00  1.60000000E+01  1.00800000E+00  1.00800000E+00
  0.00000000E+00  1.60000000E+01  1.00800000E+00  1.00800000E+00  0.00000000E+00
  1.60000000E+01  1.00800000E+00  1.00800000E+00  0.00000000E+00  1.60000000E+01
  1.00800000E+00  1.00800000E+00  0.00000000E+00  1.60000000E+01  1.00800000E+00
  1.00800000E+00  0.00000000E+00  1.60000000E+01  1.00800000E+00  1.00800000E+00
  0.00000000E+00  1.60000000E+01  1.00800000E+00  1.00800000E+00  0.00000000E+00
  1.60000000E+01  1.00800000E+00  1.00800000E+00  0.00000000E+00  1.60000000E+01
  1.00800000E+00  1.00800000E+00  0.00000000E+00  1.60000000E+01  1.00800000E+00
  1.00800000E+00  0.00000000E+00  1.60000000E+01  1.00800000E+00  1.00800000E+00
  0.00000000E+00  1.60000000E+01  1.00800000E+00  1.00800000E+00  0.00000000E+00
  1.60000000E+01  1.00800000E+00  1.00800000E+00  0.00000000E+00  1.60000000E+01
  1.00800000E+00  1.00800000E+00  0.00000000E+00  1.60000000E+01  1.00800000E+00
  1.00800000E+00  0.00000000E+00  1.60000000E+01  1.00800000E+00  1.00800000E+00
  0.00000000E+00  1.60000000E+01  1.00800000E+00  1.00800000E+00  0.00000000E+00
  1.60000000E+01  1.00800000E+00  1.00800000E+00  0.00000000E+00  1.60000000E+01
  1.00800000E+00  1.00800000E+00  0.00000000E+00  1.60000000E+01  1.00800000E+00
  1.00800000E+00  0.00000000E+00  1.60000000E+01  1.00800000E+00  1.00800000E+00
  0.00000000E+00  1.60000000E+01  1.00800000E+00  1.00800000E+00  0.00000000E+00
  1.60000000E+01  1.00800000E+00  1.00800000E+00  0.00000000E+00  1.60000000E+01
  1.00800000E+00  1.00800000E+00  0.00000000E+00  1.60000000E+01  1.00800000E+00
  1.00800000E+00  0.00000000E+00  1.60000000E+01  1.00800000E+00  1.00800000E+00
  0.00000000E+00  1.60000000E+01  1.00800000E+00  1.00800000E+00  0.00000000E+00
  1.60000000E+01  1.00800000E+00  1.00800000E+00  0.00000000E+00  1.60000000E+01
  1.00800000E+00  1.00800000E+00  0.00000000E+00  1.60000000E+01  1.00800000E+00
  1.00800000E+00  0.00000000E+00  1.60000000E+01  1.00800000E+00  1.00800000E+00
  0.00000000E+00  1.60000000E+01  1.00800000E+00  1.00800000E+00  0.00000000E+00
  1.60000000E+01  1.00800000E+00  1.00800000E+00  0.00000000E+00  1.60000000E+01
  1.00800000E+00  1.00800000E+00  0.00000000E+00  1.60000000E+01  1.00800000E+00
  1.00800000E+00  0.00000000E+00  1.60000000E+01  1.00800000E+00  1.00800000E+00
  0.00000000E+00  1.60000000E+01  1.00800000E+00  1.00800000E+00  0.00000000E+00
  1.60000000E+01  1.00800000E+00  1.00800000E+00  0.00000000E+00  1.60000000E+01
  1.00800000E+00  1.00800000E+00  0.00000000E+00  1.60000000E+01  1.00800000E+00
  1.00800000E+00  0.00000000E+00  1.60000000E+01  1.00800000E+00  1.00800000E+00
  0.00000000E+00  1.60000000E+01  1.00800000E+00  1.00800000E+00  0.00000000E+00
  1.60000000E+01  1.00800000E+00  1.00800000E+00  0.00000000E+00  1.60000000E+01
  1.00800000E+00  1.00800000E+00  0.00000000E+00  1.60000000E+01  1.00800000E+00
  1.00800000E+00  0.00000000E+00  1.60000000E+01  1.00800000E+00  1.00800000E+00
  0.00000000E+00  1.60000000E+01  1.00800000E+00  1.00800000E+00  0.00000000E+00
  1.60000000E+01  1.00800000E+00  1.00800000E+00  0.00000000E+00  1.60000000E+01
  1.00800000E+00  1.00800000E+00  0.00000000E+00  1.60000000E+01  1.00800000E+00
  1.00800000E+00  0.00000000E+00  1.60000000E+01  1.00800000E+00  1.00800000E+00
  0.00000000E+00  1.60000000E+01  1.00800000E+00  1.00800000E+00  0.00000000E+00
  1.60000000E+01  1.00800000E+00  1.00800000E+00  0.00000000E+00  1.60000000E+01
  1.00800000E+00  1.00800000E+00  0.00000000E+00  1.60000000E+01  1.00800000E+00
  1.00800000E+00  0.00000000E+00  1.60000000E+01  1.00800000E+00  1.00800000E+00
  0.00000000E+00  1.60000000E+01  1.00800000E+00  1.00800000E+00  0.00000000E+00
  1.60000000E+01  1.00800000E+00  1.00800000E+00  0.00000000E+00  1.60000000E+01
  1.00800000E+00  1.00800000E+00  0.00000000E+00  1.60000000E+01  1.00800000E+00
  1.00800000E+00  0.00000000E+00  1.60000000E+01  1.00800000E+00  1.00800000E+00
  0.00000000E+00  1.60000000E+01  1.00800000E+00  1.00800000E+00  0.00000000E+00
  1.60000000E+01  1.00800000E+00  1.00800000E+00  0.00000000E+00  1.60000000E+01
  1.00800000E+00  1.00800000E+00  0.00000000E+00  1.60000000E+01  1.00800000E+00
  1.00800000E+00  0.00000000E+00  1.60000000E+01  1.00800000E+00  1.00800000E+00
  0.00000000E+00  1.60000000E+01  1.00800000E+00  1.00800000E+00  0.00000000E+00
  1.60000000E+01  1.00800000E+00  1.00800000E+00  0.00000000E+00  1.60000000E+01
  1.00800000E+00  1.00800000E+00  0.00000000E+00  1.60000000E+01  1.00800000E+00
  1.00800000E+00  0.00000000E+00  1.60000000E+01  1.00800000E+00  1.00800000E+00
  0.00000000E+00  1.60000000E+01  1.00800000E+00  1.00800000E+00  0.00000000E+00
  1.60000000E+01  1.00800000E+00  1.00800000E+00  0.00000000E+00  1.60000000E+01
  1.00800000E+00  1.00800000E+00  0.00000000E+00  1.60000000E+01  1.00800000E+00
  1.00800000E+00  0.00000000E+00  1.60000000E+01  1.00800000E+00  1.00800000E+00
  0.00000000E+00  1.60000000E+01  1.00800000E+00  1.00800000E+00  0.00000000E+00
  1.60000000E+01  1.00800000E+00  1.00800000E+00  0.00000000E+00  1.60000000E+01
  1.00800000E+00  1.00800000E+00  0.00000000E+00  1.60000000E+01  1.00800000E+00
  1.00800000E+00  0.00000000E+00  1.60000000E+01  1.00800000E+00  1.00800000E+00
  0.00000000E+00  1.60000000E+01  1.00800000E+00  1.00800000E+00  0.00000000E+00
  1.60000000E+01  1.00800000E+00  1.00800000E+00  0.00000000E+00  1.60000000E+01
  1.00800000E+00  1.00800000E+00  0.00000000E+00  1.60000000E+01  1.00800000E+00
  1.00800000E+00  0.00000000E+00  1.60000000E+01  1.00800000E+00  1.00800000E+00
  0.00000000E+00  1.60000000E+01  1.00800000E+00  1.00800000E+00  0.00000000E+00
  1.60000000E+01  1.00800000E+00  1.00800000E+00  0.00000000E+00  1.60000000E+01
  1.00800000E+00  1.00800000E+00  0.00000000E+00  1.60000000E+01  1.00800000E+00
  1.00800000E+00  0.00000000E+00  1.60000000E+01  1.00800000E+00  1.00800000E+00
  0.00000000E+00  1.60000000E+01  1.00800000E+00  1.00800000E+00  0.00000000E+00
  1.60000000E+01  1.00800000E+00  1.00800000E+00  0.00000000E+00  1.60000000E+01
  1.00800000E+00  1.00800000E+00  0.00000000E+00  1.60000000E+01  1.00800000E+00
  1.00800000E+00  0.00000000E+00  1.60000000E+01  1.00800000E+00  1.00800000E+00
  0.00000000E+00  1.60000000E+01  1.00800000E+00  1.00800000E+00  0.00000000E+00
  1.60000000E+01  1.00800000E+00  1.00800000E+00  0.00000000E+00  1.60000000E+01
  1.00800000E+00  1.00800000E+00  0.00000000E+00  1.60000000E+01  1.00800000E+00
  1.00800000E+00  0.00000000E+00  1.60000000E+01  1.00800000E+00  1.00800000E+00
  0.00000000E+00  1.60000000E+01  1.00800000E+00  1.00800000E+00  0.00000000E+00
  1.60000000E+01  1.00800000E+00  1.00800000E+00  0.00000000E+00  1.60000000E+01
  1.00800000E+00  1.00800000E+00  0.00000000E+00  1.60000000E+01  1.00800000E+00
  1.00800000E+00  0.00000000E+00  1.60000000E+01  1.00800000E+00  1.00800000E+00
  0.00000000E+00  1.60000000E+01  1.00800000E+00  1.00800000E+00  0.00000000E+00
  1.60000000E+01  1.00800000E+00  1.00800000E+00  0.00000000E+00  1.60000000E+01
  1.00800000E+00  1.00800000E+00  0.00000000E+00  1.60000000E+01  1.00800000E+00
  1.00800000E+00  0.00000000E+00  1.60000000E+01  1.00800000E+00  1.00800000E+00
  0.00000000E+00  1.60000000E+01  1.00800000E+00  1.00800000E+00  0.00000000E+00
  1.60000000E+01  1.00800000E+00  1.00800000E+00  0.00000000E+00  1.60000000E+01
  1.00800000E+00  1.00800000E+00  0.00000000E+00  1.60000000E+01  1.00800000E+00
  1.00800000E+00  0.00000000E+00  1.60000000E+01  1.00800000E+00  1.00800000E+00
  0.00000000E+00  1.60000000E+01  1.00800000E+00  1.00800000E+00  0.00000000E+00
  1.60000000E+01  1.00800000E+00  1.00800000E+00  0.00000000E+00  1.60000000E+01
  1.00800000E+00  1.00800000E+00  0.00000000E+00  1.60000000E+01  1.00800000E+00
  1.00800000E+00  0.00000000E+00  1.60000000E+01  1.00800000E+00  1.00800000E+00
  0.00000000E+00  1.60000000E+01  1.00800000E+00  1.00800000E+00  0.00000000E+00
  1.60000000E+01  1.00800000E+00  1.00800000E+00  0.00000000E+00  1.60000000E+01
  1.00800000E+00  1.00800000E+00  0.00000000E+00  1.60000000E+01  1.00800000E+00
  1.00800000E+00  0.00000000E+00  1.60000000E+01  1.00800000E+00  1.00800000E+00
  0.00000000E+00  1.60000000E+01  1.00800000E+00  1.00800000E+00  0.00000000E+00
  1.60000000E+01  1.00800000E+00  1.00800000E+00  0.00000000E+00  1.60000000E+01
  1.00800000E+00  1.00800000E+00  0.00000000E+00  1.60000000E+01  1.00800000E+00
  1.00800000E+00  0.00000000E+00  1.60000000E+01  1.00800000E+00  1.00800000E+00
  0.00000000E+00  1.60000000E+01  1.00800000E+00  1.00800000E+00  0.00000000E+00
  1.60000000E+01  1.00800000E+00  1.00800000E+00  0.00000000E+00  1.60000000E+01
  1.00800000E+00  1.00800000E+00  0.00000000E+00  1.60000000E+01  1.00800000E+00
  1.00800000E+00  0.00000000E+00  1.60000000E+01  1.00800000E+00  1.00800000E+00
  0.00000000E+00  1.60000000E+01  1.00800000E+00  1.00800000E+00  0.00000000E+00
  1.60000000E+01  1.00800000E+00  1.00800000E+00  0.00000000E+00  1.60000000E+01
  1.00800000E+00  1.00800000E+00  0.00000000E+00  1.60000000E+01  1.00800000E+00
  1.00800000E+00  0.00000000E+00  1.60000000E+01  1.00800000E+00  1.00800000E+00
  0.00000000E+00  1.60000000E+01  1.00800000E+00  1.00800000E+00  0.00000000E+00
  1.60000000E+01  1.00800000E+00  1.00800000E+00  0.00000000E+00  1.60000000E+01
  1.00800000E+00  1.00800000E+00  0.00000000E+00  1.60000000E+01  1.00800000E+00
  1.00800000E+00  0.00000000E+00  1.60000000E+01  1.00800000E+00  1.00800000E+00
  0.00000000E+00  1.60000000E+01  1.00800000E+00  1.00800000E+00  0.00000000E+00
  1.60000000E+01  1.00800000E+00  1.00800000E+00  0.00000000E+00  1.60000000E+01
  1.00800000E+00  1.00800000E+00  0.00000000E+00  1.60000000E+01  1.00800000E+00
  1.00800000E+00  0.00000000E+00  1.60000000E+01  1.00800000E+00  1.00800000E+00
  0.00000000E+00  1.60000000E+01  1.00800000E+00  1.00800000E+00  0.00000000E+00
  1.60000000E+01  1.00800000E+00  1.00800000E+00  0.00000000E+00  1.60000000E+01
  1.00800000E+00  1.00800000E+00  0.00000000E+00  1.60000000E+01  1.00800000E+00
  1.00800000E+00  0.00000000E+00  1.60000000E+01  1.00800000E+00  1.00800000E+00
  0.00000000E+00  1.60000000E+01  1.00800000E+00  1.00800000E+00  0.00000000E+00
  1.60000000E+01  1.00800000E+00  1.00800000E+00  0.00000000E+00  1.60000000E+01
  1.00800000E+00  1.00800000E+00  0.00000000E+00  1.60000000E+01  1.00800000E+00
  1.00800000E+00  0.00000000E+00  1.60000000E+01  1.00800000E+00  1.00800000E+00
  0.00000000E+00  1.60000000E+01  1.00800000E+00  1.00800000E+00  0.00000000E+00
  1.60000000E+01  1.00800000E+00  1.00800000E+00  0.00000000E+00  1.60000000E+01
  1.00800000E+00  1.00800000E+00  0.00000000E+00  1.60000000E+01  1.00800000E+00
  1.00800000E+00  0.00000000E+00  1.60000000E+01  1.00800000E+00  1.00800000E+00
  0.00000000E+00  1.60000000E+01  1.00800000E+00  1.00800000E+00  0.00000000E+00
  1.60000000E+01  1.00800000E+00  1.00800000E+00  0.00000000E+00  1.60000000E+01
  1.00800000E+00  1.00800000E+00  0.00000000E+00  1.60000000E+01  1.00800000E+00
  1.00800000E+00  0.00000000E+00  1.60000000E+01  1.00800000E+00  1.00800000E+00
  0.00000000E+00  1.60000000E+01  1.00800000E+00  1.00800000E+00  0.00000000E+00
  1.60000000E+01  1.00800000E+00  1.00800000E+00  0.00000000E+00  1.60000000E+01
  1.00800000E+00  1.00800000E+00  0.00000000E+00  1.60000000E+01  1.00800000E+00
  1.00800000E+00  0.00000000E+00  1.60000000E+01  1.00800000E+00  1.00800000E+00
  0.00000000E+00  1.60000000E+01  1.00800000E+00  1.00800000E+00  0.00000000E+00
  1.60000000E+01  1.00800000E+00  1.00800000E+00  0.00000000E+00  1.60000000E+01
  1.00800000E+00  1.00800000E+00  0.00000000E+00  1.60000000E+01  1.00800000E+00
  1.00800000E+00  0.00000000E+00  1.60000000E+01  1.00800000E+00  1.00800000E+00
  0.00000000E+00  1.60000000E+01  1.00800000E+00  1.00800000E+00  0.00000000E+00
  1.60000000E+01  1.00800000E+00  1.00800000E+00  0.00000000E+00  1.60000000E+01
  1.00800000E+00  1.00800000E+00  0.00000000E+00  1.60000000E+01  1.00800000E+00
  1.00800000E+00  0.00000000E+00  1.60000000E+01  1.00800000E+00  1.00800000E+00
  0.00000000E+00  1.60000000E+01  1.00800000E+00  1.00800000E+00  0.00000000E+00
  1.60000000E+01  1.00800000E+00  1.00800000E+00  0.00000000E+00  1.60000000E+01
  1.00800000E+00  1.00800000E+00  0.00000000E+00  1.60000000E+01  1.00800000E+00
  1.00800000E+00  0.00000000E+00  1.60000000E+01  1.00800000E+00  1.00800000E+00
  0.00000000E+00  1.60000000E+01  1.00800000E+00  1.00800000E+00  0.00000000E+00
  1.60000000E+01  1.00800000E+00  1.00800000E+00  0.00000000E+00  1.60000000E+01
  1.00800000E+00  1.00800000E+00  0.00000000E+00  1.60000000E+01  1.00800000E+00
  1.00800000E+00  0.00000000E+00  1.60000000E+01  1.00800000E+00  1.00800000E+00
  0.00000000E+00  1.60000000E+01  1.00800000E+00  1.00800000E+00  0.00000000E+00
  1.60000000E+01  1.00800000E+00  1.00800000E+00  0.00000000E+00  1.60000000E+01
  1.00800000E+00  1.00800000E+00  0.00000000E+00  1.60000000E+01  1.00800000E+00
  1.00800000E+00  0.00000000E+00  1.60000000E+01  1.00800000E+00  1.00800000E+00
  0.00000000E+00  1.60000000E+01  1.00800000E+00  1.00800000E+00  0.00000000E+00
  1.60000000E+01  1.00800000E+00  1.00800000E+00  0.00000000E+00  1.60000000E+01
  1.00800000E+00  1.00800000E+00  0.00000000E+00  1.60000000E+01  1.00800000E+00
  1.00800000E+00  0.00000000E+00  1.60000000E+01  1.00800000E+00  1.00800000E+00
  0.00000000E+00  1.60000000E+01  1.00800000E+00  1.00800000E+00  0.00000000E+00
  1.60000000E+01  1.00800000E+00  1.00800000E+00  0.00000000E+00  1.60000000E+01
  1.00800000E+00  1.00800000E+00  0.00000000E+00  1.60000000E+01  1.00800000E+00
  1.00800000E+00  0.00000000E+00  1.60000000E+01  1.00800000E+00  1.00800000E+00
  0.00000000E+00  1.60000000E+01  1.00800000E+00  1.00800000E+00  0.00000000E+00
  1.60000000E+01  1.00800000E+00  1.00800000E+00  0.00000000E+00  1.60000000E+01
  1.00800000E+00  1.00800000E+00  0.00000000E+00  1.60000000E+01  1.00800000E+00
  1.00800000E+00  0.00000000E+00  1.60000000E+01  1.00800000E+00  1.00800000E+00
  0.00000000E+00  1.60000000E+01  1.00800000E+00  1.00800000E+00  0.00000000E+00
  1.60000000E+01  1.00800000E+00  1.00800000E+00  0.00000000E+00  1.60000000E+01
  1.00800000E+00  1.00800000E+00  0.00000000E+00  1.60000000E+01  1.00800000E+00
  1.00800000E+00  0.00000000E+00  1.60000000E+01  1.00800000E+00  1.00800000E+00
  0.00000000E+00  1.60000000E+01  1.00800000E+00  1.00800000E+00  0.00000000E+00
  1.60000000E+01  1.00800000E+00  1.00800000E+00  0.00000000E+00  1.60000000E+01
  1.00800000E+00  1.00800000E+00  0.00000000E+00  1.60000000E+01  1.00800000E+00
  1.00800000E+00  0.00000000E+00  1.60000000E+01  1.00800000E+00  1.00800000E+00
  0.00000000E+00  1.60000000E+01  1.00800000E+00  1.00800000E+00  0.00000000E+00
  1.60000000E+01  1.00800000E+00  1.00800000E+00  0.00000000E+00  1.60000000E+01
  1.00800000E+00  1.00800000E+00  0.00000000E+00  1.60000000E+01  1.00800000E+00
  1.00800000E+00  0.00000000E+00  1.60000000E+01  1.00800000E+00  1.00800000E+00
  0.00000000E+00  1.60000000E+01  1.00800000E+00  1.00800000E+00  0.00000000E+00
  1.60000000E+01  1.00800000E+00  1.00800000E+00  0.00000000E+00  1.60000000E+01
  1.00800000E+00  1.00800000E+00  0.00000000E+00  1.60000000E+01  1.00800000E+00
  1.00800000E+00  0.00000000E+00  1.60000000E+01  1.00800000E+00  1.00800000E+00
  0.00000000E+00  1.60000000E+01  1.00800000E+00  1.00800000E+00  0.00000000E+00
  1.60000000E+01  1.00800000E+00  1.00800000E+00  0.00000000E+00  1.60000000E+01
  1.00800000E+00  1.00800000E+00  0.00000000E+00  1.60000000E+01  1.00800000E+00
  1.00800000E+00  0.00000000E+00  1.60000000E+01  1.00800000E+00  1.00800000E+00
  0.00000000E+00  1.60000000E+01  1.00800000E+00  1.00800000E+00  0.00000000E+00
  1.60000000E+01  1.00800000E+00  1.00800000E+00  0.00000000E+00  1.60000000E+01
  1.00800000E+00  1.00800000E+00  0.00000000E+00  1.60000000E+01  1.00800000E+00
  1.00800000E+00  0.00000000E+00  1.60000000E+01  1.00800000E+00  1.00800000E+00
  0.00000000E+00  1.60000000E+01  1.00800000E+00  1.00800000E+00  0.00000000E+00
  1.60000000E+01  1.00800000E+00  1.00800000E+00  0.00000000E+00  1.60000000E+01
  1.00800000E+00  1.00800000E+00  0.00000000E+00  1.60000000E+01  1.00800000E+00
  1.00800000E+00  0.00000000E+00  1.60000000E+01  1.00800000E+00  1.00800000E+00
  0.00000000E+00  1.60000000E+01  1.00800000E+00  1.00800000E+00  0.00000000E+00
  1.60000000E+01  1.00800000E+00  1.00800000E+00  0.00000000E+00  1.60000000E+01
  1.00800000E+00  1.00800000E+00  0.00000000E+00  1.60000000E+01  1.00800000E+00
  1.00800000E+00  0.00000000E+00  1.60000000E+01  1.00800000E+00  1.00800000E+00
  0.00000000E+00  1.60000000E+01  1.00800000E+00  1.00800000E+00  0.00000000E+00
  1.60000000E+01  1.00800000E+00  1.00800000E+00  0.00000000E+00  1.60000000E+01
  1.00800000E+00  1.00800000E+00  0.00000000E+00  1.60000000E+01  1.00800000E+00
  1.00800000E+00  0.00000000E+00  1.60000000E+01  1.00800000E+00  1.00800000E+00
  0.00000000E+00  1.60000000E+01  1.00800000E+00  1.00800000E+00  0.00000000E+00
  1.60000000E+01  1.00800000E+00  1.00800000E+00  0.00000000E+00  1.60000000E+01
  1.00800000E+00  1.00800000E+00  0.00000000E+00  1.60000000E+01  1.00800000E+00
  1.00800000E+00  0.00000000E+00  1.60000000E+01  1.00800000E+00  1.00800000E+00
  0.00000000E+00  1.60000000E+01  1.00800000E+00  1.00800000E+00  0.00000000E+00
  1.60000000E+01  1.00800000E+00  1.00800000E+00  0.00000000E+00  1.60000000E+01
  1.00800000E+00  1.00800000E+00  0.00000000E+00  1.60000000E+01  1.00800000E+00
  1.00800000E+00  0.00000000E+00  1.60000000E+01  1.00800000E+00  1.00800000E+00
  0.00000000E+00  1.60000000E+01  1.00800000E+00  1.00800000E+00  0.00000000E+00
  1.60000000E+01  1.00800000E+00  1.00800000E+00  0.00000000E+00  1.60000000E+01
  1.00800000E+00  1.00800000E+00  0.00000000E+00  1.60000000E+01  1.00800000E+00
  1.00800000E+00  0.00000000E+00  1.60000000E+01  1.00800000E+00  1.00800000E+00
  0.00000000E+00  1.60000000E+01  1.00800000E+00  1.00800000E+00  0.00000000E+00
  1.60000000E+01  1.00800000E+00  1.00800000E+00  0.00000000E+00  1.60000000E+01
  1.00800000E+00  1.00800000E+00  0.00000000E+00  1.60000000E+01  1.00800000E+00
  1.00800000E+00  0.00000000E+00  1.60000000E+01  1.00800000E+00  1.00800000E+00
  0.00000000E+00  1.60000000E+01  1.00800000E+00  1.00800000E+00  0.00000000E+00
  1.60000000E+01  1.00800000E+00  1.00800000E+00  0.00000000E+00  1.60000000E+01
  1.00800000E+00  1.00800000E+00  0.00000000E+00  1.60000000E+01  1.00800000E+00
  1.00800000E+00  0.00000000E+00  1.60000000E+01  1.00800000E+00  1.00800000E+00
  0.00000000E+00  1.60000000E+01  1.00800000E+00  1.00800000E+00  0.00000000E+00
  1.60000000E+01  1.00800000E+00  1.00800000E+00  0.00000000E+00  1.60000000E+01
  1.00800000E+00  1.00800000E+00  0.00000000E+00  1.60000000E+01  1.00800000E+00
  1.00800000E+00  0.00000000E+00  1.60000000E+01  1.00800000E+00  1.00800000E+00
  0.00000000E+00  1.60000000E+01  1.00800000E+00  1.00800000E+00  0.00000000E+00
  1.60000000E+01  1.00800000E+00  1.00800000E+00  0.00000000E+00  1.60000000E+01
  1.00800000E+00  1.00800000E+00  0.00000000E+00  1.60000000E+01  1.00800000E+00
  1.00800000E+00  0.00000000E+00  1.60000000E+01  1.00800000E+00  1.00800000E+00
  0.00000000E+00  1.60000000E+01  1.00800000E+00  1.00800000E+00  0.00000000E+00
  1.60000000E+01  1.00800000E+00  1.00800000E+00  0.00000000E+00  1.60000000E+01
  1.00800000E+00  1.00800000E+00  0.00000000E+00  1.60000000E+01  1.00800000E+00
  1.00800000E+00  0.00000000E+00  1.60000000E+01  1.00800000E+00  1.00800000E+00
  0.00000000E+00  1.60000000E+01  1.00800000E+00  1.00800000E+00  0.00000000E+00
  1.60000000E+01  1.00800000E+00  1.00800000E+00  0.00000000E+00  1.60000000E+01
  1.00800000E+00  1.00800000E+00  0.00000000E+00  1.60000000E+01  1.00800000E+00
  1.00800000E+00  0.00000000E+00  1.60000000E+01  1.00800000E+00  1.00800000E+00
  0.00000000E+00  1.60000000E+01  1.00800000E+00  1.00800000E+00  0.00000000E+00
  1.60000000E+01  1.00800000E+00  1.00800000E+00  0.00000000E+00  1.60000000E+01
  1.00800000E+00  1.00800000E+00  0.00000000E+00  1.60000000E+01  1.00800000E+00
  1.00800000E+00  0.00000000E+00  1.60000000E+01  1.00800000E+00  1.00800000E+00
  0.00000000E+00  1.60000000E+01  1.00800000E+00  1.00800000E+00  0.00000000E+00
  1.60000000E+01  1.00800000E+00  1.00800000E+00  0.00000000E+00  1.60000000E+01
  1.00800000E+00  1.00800000E+00  0.00000000E+00  1.60000000E+01  1.00800000E+00
  1.00800000E+00  0.00000000E+00  1.60000000E+01  1.00800000E+00  1.00800000E+00
  0.00000000E+00  1.60000000E+01  1.00800000E+00  1.00800000E+00  0.00000000E+00
  1.60000000E+01  1.00800000E+00  1.00800000E+00  0.00000000E+00  1.60000000E+01
  1.00800000E+00  1.00800000E+00  0.00000000E+00  1.60000000E+01  1.00800000E+00
  1.00800000E+00  0.00000000E+00  1.60000000E+01  1.00800000E+00  1.00800000E+00
  0.00000000E+00  1.60000000E+01  1.00800000E+00  1.00800000E+00  0.00000000E+00
  1.60000000E+01  1.00800000E+00  1.00800000E+00  0.00000000E+00  1.60000000E+01
  1.00800000E+00  1.00800000E+00  0.00000000E+00  1.60000000E+01  1.00800000E+00
  1.00800000E+00  0.00000000E+00  1.60000000E+01  1.00800000E+00  1.00800000E+00
  0.00000000E+00  1.60000000E+01  1.00800000E+00  1.00800000E+00  0.00000000E+00
  1.60000000E+01  1.00800000E+00  1.00800000E+00  0.00000000E+00  1.60000000E+01
  1.00800000E+00  1.00800000E+00  0.00000000E+00  1.60000000E+01  1.00800000E+00
  1.00800000E+00  0.00000000E+00  1.60000000E+01  1.00800000E+00  1.00800000E+00
  0.00000000E+00  1.60000000E+01  1.00800000E+00  1.00800000E+00  0.00000000E+00
  1.60000000E+01  1.00800000E+00  1.00800000E+00  0.00000000E+00  1.60000000E+01
  1.00800000E+00  1.00800000E+00  0.00000000E+00  1.60000000E+01  1.00800000E+00
  1.00800000E+00  0.00000000E+00  1.60000000E+01  1.00800000E+00  1.00800000E+00
  0.00000000E+00  1.60000000E+01  1.00800000E+00  1.00800000E+00  0.00000000E+00
  1.60000000E+01  1.00800000E+00  1.00800000E+00  0.00000000E+00  1.60000000E+01
  1.00800000E+00  1.00800000E+00  0.00000000E+00  1.60000000E+01  1.00800000E+00
  1.00800000E+00  0.00000000E+00  1.60000000E+01  1.00800000E+00  1.00800000E+00
  0.00000000E+00  1.60000000E+01  1.00800000E+00  1.00800000E+00  0.00000000E+00
  1.60000000E+01  1.00800000E+00  1.00800000E+00  0.00000000E+00  1.60000000E+01
  1.00800000E+00  1.00800000E+00  0.00000000E+00  1.60000000E+01  1.00800000E+00
  1.00800000E+00  0.00000000E+00  1.60000000E+01  1.00800000E+00  1.00800000E+00
  0.00000000E+00  1.60000000E+01  1.00800000E+00  1.00800000E+00  0.00000000E+00
  1.60000000E+01  1.00800000E+00  1.00800000E+00  0.00000000E+00  1.60000000E+01
  1.00800000E+00  1.00800000E+00  0.00000000E+00  1.60000000E+01  1.00800000E+00
  1.00800000E+00  0.00000000E+00  1.60000000E+01  1.00800000E+00  1.00800000E+00
  0.00000000E+00  1.60000000E+01  1.00800000E+00  1.00800000E+00  0.00000000E+00
  1.60000000E+01  1.00800000E+00  1.00800000E+00  0.00000000E+00  1.60000000E+01
  1.00800000E+00  1.00800000E+00  0.00000000E+00  1.60000000E+01  1.00800000E+00
  1.00800000E+00  0.00000000E+00  1.60000000E+01  1.00800000E+00  1.00800000E+00
  0.00000000E+00  1.60000000E+01  1.00800000E+00  1.00800000E+00  0.00000000E+00
  1.60000000E+01  1.00800000E+00  1.00800000E+00  0.00000000E+00  1.60000000E+01
  1.00800000E+00  1.00800000E+00  0.00000000E+00  1.60000000E+01  1.00800000E+00
  1.00800000E+00  0.00000000E+00  1.60000000E+01  1.00800000E+00  1.00800000E+00
  0.00000000E+00  1.60000000E+01  1.00800000E+00  1.00800000E+00  0.00000000E+00
  1.60000000E+01  1.00800000E+00  1.00800000E+00  0.00000000E+00  1.60000000E+01
  1.00800000E+00  1.00800000E+00  0.00000000E+00  1.60000000E+01  1.00800000E+00
  1.00800000E+00  0.00000000E+00  1.60000000E+01  1.00800000E+00  1.00800000E+00
  0.00000000E+00  1.60000000E+01  1.00800000E+00  1.00800000E+00  0.00000000E+00
  1.60000000E+01  1.00800000E+00  1.00800000E+00  0.00000000E+00  1.60000000E+01
  1.00800000E+00  1.00800000E+00  0.00000000E+00  1.60000000E+01  1.00800000E+00
  1.00800000E+00  0.00000000E+00  1.60000000E+01  1.00800000E+00  1.00800000E+00
  0.00000000E+00  1.60000000E+01  1.00800000E+00  1.00800000E+00  0.00000000E+00
  1.60000000E+01  1.00800000E+00  1.00800000E+00  0.00000000E+00  1.60000000E+01
  1.00800000E+00  1.00800000E+00  0.00000000E+00  1.60000000E+01  1.00800000E+00
  1.00800000E+00  0.00000000E+00  1.60000000E+01  1.00800000E+00  1.00800000E+00
  0.00000000E+00  1.60000000E+01  1.00800000E+00  1.00800000E+00  0.00000000E+00
  1.60000000E+01  1.00800000E+00  1.00800000E+00  0.00000000E+00  1.60000000E+01
  1.00800000E+00  1.00800000E+00  0.00000000E+00  1.60000000E+01  1.00800000E+00
  1.00800000E+00  0.00000000E+00  1.60000000E+01  1.00800000E+00  1.00800000E+00
  0.00000000E+00  1.60000000E+01  1.00800000E+00  1.00800000E+00  0.00000000E+00
  1.60000000E+01  1.00800000E+00  1.00800000E+00  0.00000000E+00  1.60000000E+01
  1.00800000E+00  1.00800000E+00  0.00000000E+00  1.60000000E+01  1.00800000E+00
  1.00800000E+00  0.00000000E+00  1.60000000E+01  1.00800000E+00  1.00800000E+00
  0.00000000E+00  1.60000000E+01  1.00800000E+00  1.00800000E+00  0.00000000E+00
  1.60000000E+01  1.00800000E+00  1.00800000E+00  0.00000000E+00  1.60000000E+01
  1.00800000E+00  1.00800000E+00  0.00000000E+00  1.60000000E+01  1.00800000E+00
  1.00800000E+00  0.00000000E+00  1.60000000E+01  1.00800000E+00  1.00800000E+00
  0.00000000E+00  1.60000000E+01  1.00800000E+00  1.00800000E+00  0.00000000E+00
  1.60000000E+01  1.00800000E+00  1.00800000E+00  0.00000000E+00  1.60000000E+01
  1.00800000E+00  1.00800000E+00  0.00000000E+00  1.60000000E+01  1.00800000E+00
  1.00800000E+00  0.00000000E+00  1.60000000E+01  1.00800000E+00  1.00800000E+00
  0.00000000E+00  1.60000000E+01  1.00800000E+00  1.00800000E+00  0.00000000E+00
  1.60000000E+01  1.00800000E+00  1.00800000E+00  0.00000000E+00  1.60000000E+01
  1.00800000E+00  1.00800000E+00  0.00000000E+00  1.60000000E+01  1.00800000E+00
  1.00800000E+00  0.00000000E+00  1.60000000E+01  1.00800000E+00  1.00800000E+00
  0.00000000E+00  1.60000000E+01  1.00800000E+00  1.00800000E+00  0.00000000E+00
  1.60000000E+01  1.00800000E+00  1.00800000E+00  0.00000000E+00  1.60000000E+01
  1.00800000E+00  1.00800000E+00  0.00000000E+00  1.60000000E+01  1.00800000E+00
  1.00800000E+00  0.00000000E+00  1.60000000E+01  1.00800000E+00  1.00800000E+00
  0.00000000E+00  1.60000000E+01  1.00800000E+00  1.00800000E+00  0.00000000E+00
  1.60000000E+01  1.00800000E+00  1.00800000E+00  0.00000000E+00  1.60000000E+01
  1.00800000E+00  1.00800000E+00  0.00000000E+00  1.60000000E+01  1.00800000E+00
  1.00800000E+00  0.00000000E+00  1.60000000E+01  1.00800000E+00  1.00800000E+00
  0.00000000E+00  1.60000000E+01  1.00800000E+00  1.00800000E+00  0.00000000E+00
  1.60000000E+01  1.00800000E+00  1.00800000E+00  0.00000000E+00  1.60000000E+01
  1.00800000E+00  1.00800000E+00  0.00000000E+00  1.60000000E+01  1.00800000E+00
  1.00800000E+00  0.00000000E+00  1.60000000E+01  1.00800000E+00  1.00800000E+00
  0.00000000E+00  1.60000000E+01  1.00800000E+00  1.00800000E+00  0.00000000E+00
  1.60000000E+01  1.00800000E+00  1.00800000E+00  0.00000000E+00  1.60000000E+01
  1.00800000E+00  1.00800000E+00  0.00000000E+00  1.60000000E+01  1.00800000E+00
  1.00800000E+00  0.00000000E+00  1.60000000E+01  1.00800000E+00  1.00800000E+00
  0.00000000E+00  1.60000000E+01  1.00800000E+00  1.00800000E+00  0.00000000E+00
  1.60000000E+01  1.00800000E+00  1.00800000E+00  0.00000000E+00  1.60000000E+01
  1.00800000E+00  1.00800000E+00  0.00000000E+00  1.60000000E+01  1.00800000E+00
  1.00800000E+00  0.00000000E+00  1.60000000E+01  1.00800000E+00  1.00800000E+00
  0.00000000E+00  1.60000000E+01  1.00800000E+00  1.00800000E+00  0.00000000E+00
  1.60000000E+01  1.00800000E+00  1.00800000E+00  0.00000000E+00  1.60000000E+01
  1.00800000E+00  1.00800000E+00  0.00000000E+00  1.60000000E+01  1.00800000E+00
  1.00800000E+00  0.00000000E+00  1.60000000E+01  1.00800000E+00  1.00800000E+00
  0.00000000E+00  1.60000000E+01  1.00800000E+00  1.00800000E+00  0.00000000E+00
  1.60000000E+01  1.00800000E+00  1.00800000E+00  0.00000000E+00  1.60000000E+01
  1.00800000E+00  1.00800000E+00  0.00000000E+00  1.60000000E+01  1.00800000E+00
  1.00800000E+00  0.00000000E+00  1.60000000E+01  1.00800000E+00  1.00800000E+00
  0.00000000E+00  1.60000000E+01  1.00800000E+00  1.00800000E+00  0.00000000E+00
  1.60000000E+01  1.00800000E+00  1.00800000E+00  0.00000000E+00  1.60000000E+01
  1.00800000E+00  1.00800000E+00  0.00000000E+00  1.60000000E+01  1.00800000E+00
  1.00800000E+00  0.00000000E+00  1.60000000E+01  1.00800000E+00  1.00800000E+00
  0.00000000E+00  1.60000000E+01  1.00800000E+00  1.00800000E+00  0.00000000E+00
  1.60000000E+01  1.00800000E+00  1.00800000E+00  0.00000000E+00  1.60000000E+01
  1.00800000E+00  1.00800000E+00  0.00000000E+00  1.60000000E+01  1.00800000E+00
  1.00800000E+00  0.00000000E+00  1.60000000E+01  1.00800000E+00  1.00800000E+00
  0.00000000E+00  1.60000000E+01  1.00800000E+00  1.00800000E+00  0.00000000E+00
  1.60000000E+01  1.00800000E+00  1.00800000E+00  0.00000000E+00  1.60000000E+01
  1.00800000E+00  1.00800000E+00  0.00000000E+00  1.60000000E+01  1.00800000E+00
  1.00800000E+00  0.00000000E+00  1.60000000E+01  1.00800000E+00  1.00800000E+00
  0.00000000E+00  1.60000000E+01  1.00800000E+00  1.00800000E+00  0.00000000E+00
  1.60000000E+01  1.00800000E+00  1.00800000E+00  0.00000000E+00  1.60000000E+01
  1.00800000E+00  1.00800000E+00  0.00000000E+00  1.60000000E+01  1.00800000E+00
  1.00800000E+00  0.00000000E+00  1.60000000E+01  1.00800000E+00  1.00800000E+00
  0.00000000E+00  1.60000000E+01  1.00800000E+00  1.00800000E+00  0.00000000E+00
  1.60000000E+01  1.00800000E+00  1.00800000E+00  0.00000000E+00  1.60000000E+01
  1.00800000E+00  1.00800000E+00  0.00000000E+00  1.60000000E+01  1.00800000E+00
  1.00800000E+00  0.00000000E+00  1.60000000E+01  1.00800000E+00  1.00800000E+00
  0.00000000E+00  1.60000000E+01  1.00800000E+00  1.00800000E+00  0.00000000E+00
  1.60000000E+01  1.00800000E+00  1.00800000E+00  0.00000000E+00  1.60000000E+01
  1.00800000E+00  1.00800000E+00  0.00000000E+00  1.60000000E+01  1.00800000E+00
  1.00800000E+00  0.00000000E+00  1.60000000E+01  1.00800000E+00  1.00800000E+00
  0.00000000E+00  1.60000000E+01  1.00800000E+00  1.00800000E+00  0.00000000E+00
  1.60000000E+01  1.00800000E+00  1.00800000E+00  0.00000000E+00  1.60000000E+01
  1.00800000E+00  1.00800000E+00  0.00000000E+00  1.60000000E+01  1.00800000E+00
  1.00800000E+00  0.00000000E+00  1.60000000E+01  1.00800000E+00  1.00800000E+00
  0.00000000E+00  1.60000000E+01  1.00800000E+00  1.00800000E+00  0.00000000E+00
  1.60000000E+01  1.00800000E+00  1.00800000E+00  0.00000000E+00  1.60000000E+01
  1.00800000E+00  1.00800000E+00  0.00000000E+00  1.60000000E+01  1.00800000E+00
  1.00800000E+00  0.00000000E+00  1.60000000E+01  1.00800000E+00  1.00800000E+00
  0.00000000E+00  1.60000000E+01  1.00800000E+00  1.00800000E+00  0.00000000E+00
  1.60000000E+01  1.00800000E+00  1.00800000E+00  0.00000000E+00  1.60000000E+01
  1.00800000E+00  1.00800000E+00  0.00000000E+00  1.60000000E+01  1.00800000E+00
  1.00800000E+00  0.00000000E+00  1.60000000E+01  1.00800000E+00  1.00800000E+00
  0.00000000E+00  1.60000000E+01  1.00800000E+00  1.00800000E+00  0.00000000E+00
  1.60000000E+01  1.00800000E+00  1.00800000E+00  0.00000000E+00  1.60000000E+01
  1.00800000E+00  1.00800000E+00  0.00000000E+00  1.60000000E+01  1.00800000E+00
  1.00800000E+00  0.00000000E+00  1.60000000E+01  1.00800000E+00  1.00800000E+00
  0.00000000E+00  1.60000000E+01  1.00800000E+00  1.00800000E+00  0.00000000E+00
  1.60000000E+01  1.00800000E+00  1.00800000E+00  0.00000000E+00  1.60000000E+01
  1.00800000E+00  1.00800000E+00  0.00000000E+00  1.60000000E+01  1.00800000E+00
  1.00800000E+00  0.00000000E+00  1.60000000E+01  1.00800000E+00  1.00800000E+00
  0.00000000E+00  1.60000000E+01  1.00800000E+00  1.00800000E+00  0.00000000E+00
  1.60000000E+01  1.00800000E+00  1.00800000E+00  0.00000000E+00  1.60000000E+01
  1.00800000E+00  1.00800000E+00  0.00000000E+00  1.60000000E+01  1.00800000E+00
  1.00800000E+00  0.00000000E+00  1.60000000E+01  1.00800000E+00  1.00800000E+00
  0.00000000E+00  1.60000000E+01  1.00800000E+00  1.00800000E+00  0.00000000E+00
  1.60000000E+01  1.00800000E+00  1.00800000E+00  0.00000000E+00  1.60000000E+01
  1.00800000E+00  1.00800000E+00  0.00000000E+00  1.60000000E+01  1.00800000E+00
  1.00800000E+00  0.00000000E+00  1.60000000E+01  1.00800000E+00  1.00800000E+00
  0.00000000E+00  1.60000000E+01  1.00800000E+00  1.00800000E+00  0.00000000E+00
  1.60000000E+01  1.00800000E+00  1.00800000E+00  0.00000000E+00  1.60000000E+01
  1.00800000E+00  1.00800000E+00  0.00000000E+00  1.60000000E+01  1.00800000E+00
  1.00800000E+00  0.00000000E+00  1.60000000E+01  1.00800000E+00  1.00800000E+00
  0.00000000E+00  1.60000000E+01  1.00800000E+00  1.00800000E+00  0.00000000E+00
  1.60000000E+01  1.00800000E+00  1.00800000E+00  0.00000000E+00  1.60000000E+01
  1.00800000E+00  1.00800000E+00  0.00000000E+00  1.60000000E+01  1.00800000E+00
  1.00800000E+00  0.00000000E+00  1.60000000E+01  1.00800000E+00  1.00800000E+00
  0.00000000E+00  1.60000000E+01  1.00800000E+00  1.00800000E+00  0.00000000E+00
  1.60000000E+01  1.00800000E+00  1.00800000E+00  0.00000000E+00  1.60000000E+01
  1.00800000E+00  1.00800000E+00  0.00000000E+00  1.60000000E+01  1.00800000E+00
  1.00800000E+00  0.00000000E+00  1.60000000E+01  1.00800000E+00  1.00800000E+00
  0.00000000E+00  1.60000000E+01  1.00800000E+00  1.00800000E+00  0.00000000E+00
  1.60000000E+01  1.00800000E+00  1.00800000E+00  0.00000000E+00  1.60000000E+01
  1.00800000E+00  1.00800000E+00  0.00000000E+00  1.60000000E+01  1.00800000E+00
  1.00800000E+00  0.00000000E+00  1.60000000E+01  1.00800000E+00  1.00800000E+00
  0.00000000E+00  1.60000000E+01  1.00800000E+00  1.00800000E+00  0.00000000E+00
  1.60000000E+01  1.00800000E+00  1.00800000E+00  0.00000000E+00  1.60000000E+01
  1.00800000E+00  1.00800000E+00  0.00000000E+00  1.60000000E+01  1.00800000E+00
  1.00800000E+00  0.00000000E+00  1.60000000E+01  1.00800000E+00  1.00800000E+00
  0.00000000E+00  1.60000000E+01  1.00800000E+00  1.00800000E+00  0.00000000E+00
  1.60000000E+01  1.00800000E+00  1.00800000E+00  0.00000000E+00  1.60000000E+01
  1.00800000E+00  1.00800000E+00  0.00000000E+00  1.60000000E+01  1.00800000E+00
  1.00800000E+00  0.00000000E+00  1.60000000E+01  1.00800000E+00  1.00800000E+00
  0.00000000E+00  1.60000000E+01  1.00800000E+00  1.00800000E+00  0.00000000E+00
  1.60000000E+01  1.00800000E+00  1.00800000E+00  0.00000000E+00  1.60000000E+01
  1.00800000E+00  1.00800000E+00  0.00000000E+00  1.60000000E+01  1.00800000E+00
  1.00800000E+00  0.00000000E+00  1.60000000E+01  1.00800000E+00  1.00800000E+00
  0.00000000E+00  1.60000000E+01  1.00800000E+00  1.00800000E+00  0.00000000E+00
  1.60000000E+01  1.00800000E+00  1.00800000E+00  0.00000000E+00  1.60000000E+01
  1.00800000E+00  1.00800000E+00  0.00000000E+00  1.60000000E+01  1.00800000E+00
  1.00800000E+00  0.00000000E+00  1.60000000E+01  1.00800000E+00  1.00800000E+00
  0.00000000E+00  1.60000000E+01  1.00800000E+00  1.00800000E+00  0.00000000E+00
  1.60000000E+01  1.00800000E+00  1.00800000E+00  0.00000000E+00  1.60000000E+01
  1.00800000E+00  1.00800000E+00  0.00000000E+00  1.60000000E+01  1.00800000E+00
  1.00800000E+00  0.00000000E+00  1.60000000E+01  1.00800000E+00  1.00800000E+00
  0.00000000E+00  1.60000000E+01  1.00800000E+00  1.00800000E+00  0.00000000E+00
  1.60000000E+01  1.00800000E+00  1.00800000E+00  0.00000000E+00  1.60000000E+01
  1.00800000E+00  1.00800000E+00  0.00000000E+00  1.60000000E+01  1.00800000E+00
  1.00800000E+00  0.00000000E+00  1.60000000E+01  1.00800000E+00  1.00800000E+00
  0.00000000E+00  1.60000000E+01  1.00800000E+00  1.00800000E+00  0.00000000E+00
  1.60000000E+01  1.00800000E+00  1.00800000E+00  0.00000000E+00  1.60000000E+01
  1.00800000E+00  1.00800000E+00  0.00000000E+00  1.60000000E+01  1.00800000E+00
  1.00800000E+00  0.00000000E+00  1.60000000E+01  1.00800000E+00  1.00800000E+00
  0.00000000E+00  1.60000000E+01  1.00800000E+00  1.00800000E+00  0.00000000E+00
  1.60000000E+01  1.00800000E+00  1.00800000E+00  0.00000000E+00  1.60000000E+01
  1.00800000E+00  1.00800000E+00  0.00000000E+00  1.60000000E+01  1.00800000E+00
  1.00800000E+00  0.00000000E+00  1.60000000E+01  1.00800000E+00  1.00800000E+00
  0.00000000E+00  1.60000000E+01  1.00800000E+00  1.00800000E+00  0.00000000E+00
  1.60000000E+01  1.00800000E+00  1.00800000E+00  0.00000000E+00  1.60000000E+01
  1.00800000E+00  1.00800000E+00  0.00000000E+00  1.60000000E+01  1.00800000E+00
  1.00800000E+00  0.00000000E+00  1.60000000E+01  1.00800000E+00  1.00800000E+00
  0.00000000E+00  1.60000000E+01  1.00800000E+00  1.00800000E+00  0.00000000E+00
  1.60000000E+01  1.00800000E+00  1.00800000E+00  0.00000000E+00  1.60000000E+01
  1.00800000E+00  1.00800000E+00  0.00000000E+00  1.60000000E+01  1.00800000E+00
  1.00800000E+00  0.00000000E+00  1.60000000E+01  1.00800000E+00  1.00800000E+00
  0.00000000E+00  1.60000000E+01  1.00800000E+00  1.00800000E+00  0.00000000E+00
  1.60000000E+01  1.00800000E+00  1.00800000E+00  0.00000000E+00  1.60000000E+01
  1.00800000E+00  1.00800000E+00  0.00000000E+00  1.60000000E+01  1.00800000E+00
  1.00800000E+00  0.00000000E+00  1.60000000E+01  1.00800000E+00  1.00800000E+00
  0.00000000E+00  1.60000000E+01  1.00800000E+00  1.00800000E+00  0.00000000E+00
  1.60000000E+01  1.00800000E+00  1.00800000E+00  0.00000000E+00  1.60000000E+01
  1.00800000E+00  1.00800000E+00  0.00000000E+00  1.60000000E+01  1.00800000E+00
  1.00800000E+00  0.00000000E+00  1.60000000E+01  1.00800000E+00  1.00800000E+00
  0.00000000E+00  1.60000000E+01  1.00800000E+00  1.00800000E+00  0.00000000E+00
  1.60000000E+01  1.00800000E+00  1.00800000E+00  0.00000000E+00  1.60000000E+01
  1.00800000E+00  1.00800000E+00  0.00000000E+00  1.60000000E+01  1.00800000E+00
  1.00800000E+00  0.00000000E+00  1.60000000E+01  1.00800000E+00  1.00800000E+00
  0.00000000E+00  1.60000000E+01  1.00800000E+00  1.00800000E+00  0.00000000E+00
  1.60000000E+01  1.00800000E+00  1.00800000E+00  0.00000000E+00  1.60000000E+01
  1.00800000E+00  1.00800000E+00  0.00000000E+00  1.60000000E+01  1.00800000E+00
  1.00800000E+00  0.00000000E+00  1.60000000E+01  1.00800000E+00  1.00800000E+00
  0.00000000E+00  1.60000000E+01  1.00800000E+00  1.00800000E+00  0.00000000E+00
  1.60000000E+01  1.00800000E+00  1.00800000E+00  0.00000000E+00  1.60000000E+01
  1.00800000E+00  1.00800000E+00  0.00000000E+00  1.60000000E+01  1.00800000E+00
  1.00800000E+00  0.00000000E+00  1.60000000E+01  1.00800000E+00  1.00800000E+00
  0.00000000E+00  1.60000000E+01  1.00800000E+00  1.00800000E+00  0.00000000E+00
  1.60000000E+01  1.00800000E+00  1.00800000E+00  0.00000000E+00  1.60000000E+01
  1.00800000E+00  1.00800000E+00  0.00000000E+00  1.60000000E+01  1.00800000E+00
  1.00800000E+00  0.00000000E+00  1.60000000E+01  1.00800000E+00  1.00800000E+00
  0.00000000E+00  1.60000000E+01  1.00800000E+00  1.00800000E+00  0.00000000E+00
  1.60000000E+01  1.00800000E+00  1.00800000E+00  0.00000000E+00  1.60000000E+01
  1.00800000E+00  1.00800000E+00  0.00000000E+00  1.60000000E+01  1.00800000E+00
  1.00800000E+00  0.00000000E+00  1.60000000E+01  1.00800000E+00  1.00800000E+00
  0.00000000E+00  1.60000000E+01  1.00800000E+00  1.00800000E+00  0.00000000E+00
  1.60000000E+01  1.00800000E+00  1.00800000E+00  0.00000000E+00  1.60000000E+01
  1.00800000E+00  1.00800000E+00  0.00000000E+00  1.60000000E+01  1.00800000E+00
  1.00800000E+00  0.00000000E+00  1.60000000E+01  1.00800000E+00  1.00800000E+00
  0.00000000E+00  1.60000000E+01  1.00800000E+00  1.00800000E+00  0.00000000E+00
  1.60000000E+01  1.00800000E+00  1.00800000E+00  0.00000000E+00  1.60000000E+01
  1.00800000E+00  1.00800000E+00  0.00000000E+00  1.60000000E+01  1.00800000E+00
  1.00800000E+00  0.00000000E+00  1.60000000E+01  1.00800000E+00  1.00800000E+00
  0.00000000E+00  1.60000000E+01  1.00800000E+00  1.00800000E+00  0.00000000E+00
  1.60000000E+01  1.00800000E+00  1.00800000E+00  0.00000000E+00  1.60000000E+01
  1.00800000E+00  1.00800000E+00  0.00000000E+00  1.60000000E+01  1.00800000E+00
  1.00800000E+00  0.00000000E+00  1.60000000E+01  1.00800000E+00  1.00800000E+00
  0.00000000E+00  1.60000000E+01  1.00800000E+00  1.00800000E+00  0.00000000E+00
  1.60000000E+01  1.00800000E+00  1.00800000E+00  0.00000000E+00  1.60000000E+01
  1.00800000E+00  1.00800000E+00  0.00000000E+00  1.60000000E+01  1.00800000E+00
  1.00800000E+00  0.00000000E+00  1.60000000E+01  1.00800000E+00  1.00800000E+00
  0.00000000E+00  1.60000000E+01  1.00800000E+00  1.00800000E+00  0.00000000E+00
  1.60000000E+01  1.00800000E+00  1.00800000E+00  0.00000000E+00  1.60000000E+01
  1.00800000E+00  1.00800000E+00  0.00000000E+00  1.60000000E+01  1.00800000E+00
  1.00800000E+00  0.00000000E+00  1.60000000E+01  1.00800000E+00  1.00800000E+00
  0.00000000E+00  1.60000000E+01  1.00800000E+00  1.00800000E+00  0.00000000E+00
  1.60000000E+01  1.00800000E+00  1.00800000E+00  0.00000000E+00  1.60000000E+01
  1.00800000E+00  1.00800000E+00  0.00000000E+00  1.60000000E+01  1.00800000E+00
  1.00800000E+00  0.00000000E+00  1.60000000E+01  1.00800000E+00  1.00800000E+00
  0.00000000E+00  1.60000000E+01  1.00800000E+00  1.00800000E+00  0.00000000E+00
  1.60000000E+01  1.00800000E+00  1.00800000E+00  0.00000000E+00  1.60000000E+01
  1.00800000E+00  1.00800000E+00  0.00000000E+00  1.60000000E+01  1.00800000E+00
  1.00800000E+00  0.00000000E+00  1.60000000E+01  1.00800000E+00  1.00800000E+00
  0.00000000E+00  1.60000000E+01  1.00800000E+00  1.00800000E+00  0.00000000E+00
  1.60000000E+01  1.00800000E+00  1.00800000E+00  0.00000000E+00  1.60000000E+01
  1.00800000E+00  1.00800000E+00  0.00000000E+00  1.60000000E+01  1.00800000E+00
  1.00800000E+00  0.00000000E+00  1.60000000E+01  1.00800000E+00  1.00800000E+00
  0.00000000E+00  1.60000000E+01  1.00800000E+00  1.00800000E+00  0.00000000E+00
  1.60000000E+01  1.00800000E+00  1.00800000E+00  0.00000000E+00  1.60000000E+01
  1.00800000E+00  1.00800000E+00  0.00000000E+00  1.60000000E+01  1.00800000E+00
  1.00800000E+00  0.00000000E+00  1.60000000E+01  1.00800000E+00  1.00800000E+00
  0.00000000E+00  1.60000000E+01  1.00800000E+00  1.00800000E+00  0.00000000E+00
  1.60000000E+01  1.00800000E+00  1.00800000E+00  0.00000000E+00  1.60000000E+01
  1.00800000E+00  1.00800000E+00  0.00000000E+00  1.60000000E+01  1.00800000E+00
  1.00800000E+00  0.00000000E+00  1.60000000E+01  1.00800000E+00  1.00800000E+00
  0.00000000E+00  1.60000000E+01  1.00800000E+00  1.00800000E+00  0.00000000E+00
  1.60000000E+01  1.00800000E+00  1.00800000E+00  0.00000000E+00  1.60000000E+01
  1.00800000E+00  1.00800000E+00  0.00000000E+00  1.60000000E+01  1.00800000E+00
  1.00800000E+00  0.00000000E+00  1.60000000E+01  1.00800000E+00  1.00800000E+00
  0.00000000E+00  1.60000000E+01  1.00800000E+00  1.00800000E+00  0.00000000E+00
  1.60000000E+01  1.00800000E+00  1.00800000E+00  0.00000000E+00  1.60000000E+01
  1.00800000E+00  1.00800000E+00  0.00000000E+00  1.60000000E+01  1.00800000E+00
  1.00800000E+00  0.00000000E+00  1.60000000E+01  1.00800000E+00  1.00800000E+00
  0.00000000E+00  1.60000000E+01  1.00800000E+00  1.00800000E+00  0.00000000E+00
  1.60000000E+01  1.00800000E+00  1.00800000E+00  0.00000000E+00  1.60000000E+01
  1.00800000E+00  1.00800000E+00  0.00000000E+00  1.60000000E+01  1.00800000E+00
  1.00800000E+00  0.00000000E+00  1.60000000E+01  1.00800000E+00  1.00800000E+00
  0.00000000E+00  1.60000000E+01  1.00800000E+00  1.00800000E+00  0.00000000E+00
  1.60000000E+01  1.00800000E+00  1.00800000E+00  0.00000000E+00  1.60000000E+01
  1.00800000E+00  1.00800000E+00  0.00000000E+00  1.60000000E+01  1.00800000E+00
  1.00800000E+00  0.00000000E+00  1.60000000E+01  1.00800000E+00  1.00800000E+00
  0.00000000E+00  1.60000000E+01  1.00800000E+00  1.00800000E+00  0.00000000E+00
  1.60000000E+01  1.00800000E+00  1.00800000E+00  0.00000000E+00  1.60000000E+01
  1.00800000E+00  1.00800000E+00  0.00000000E+00  1.60000000E+01  1.00800000E+00
  1.00800000E+00  0.00000000E+00  1.60000000E+01  1.00800000E+00  1.00800000E+00
  0.00000000E+00  1.60000000E+01  1.00800000E+00  1.00800000E+00  0.00000000E+00
  1.60000000E+01  1.00800000E+00  1.00800000E+00  0.00000000E+00  1.60000000E+01
  1.00800000E+00  1.00800000E+00  0.00000000E+00  1.60000000E+01  1.00800000E+00
  1.00800000E+00  0.00000000E+00  1.60000000E+01  1.00800000E+00  1.00800000E+00
  0.00000000E+00  1.60000000E+01  1.00800000E+00  1.00800000E+00  0.00000000E+00
  1.60000000E+01  1.00800000E+00  1.00800000E+00  0.00000000E+00  1.60000000E+01
  1.00800000E+00  1.00800000E+00  0.00000000E+00  1.60000000E+01  1.00800000E+00
  1.00800000E+00  0.00000000E+00  1.60000000E+01  1.00800000E+00  1.00800000E+00
  0.00000000E+00  1.60000000E+01  1.00800000E+00  1.00800000E+00  0.00000000E+00
  1.60000000E+01  1.00800000E+00  1.00800000E+00  0.00000000E+00  1.60000000E+01
  1.00800000E+00  1.00800000E+00  0.00000000E+00  1.60000000E+01  1.00800000E+00
  1.00800000E+00  0.00000000E+00  1.60000000E+01  1.00800000E+00  1.00800000E+00
  0.00000000E+00  1.60000000E+01  1.00800000E+00  1.00800000E+00  0.00000000E+00
  1.60000000E+01  1.00800000E+00  1.00800000E+00  0.00000000E+00  1.60000000E+01
  1.00800000E+00  1.00800000E+00  0.00000000E+00  1.60000000E+01  1.00800000E+00
  1.00800000E+00  0.00000000E+00  1.60000000E+01  1.00800000E+00  1.00800000E+00
  0.00000000E+00  1.60000000E+01  1.00800000E+00  1.00800000E+00  0.00000000E+00
  1.60000000E+01  1.00800000E+00  1.00800000E+00  0.00000000E+00  1.60000000E+01
  1.00800000E+00  1.00800000E+00  0.00000000E+00  1.60000000E+01  1.00800000E+00
  1.00800000E+00  0.00000000E+00  1.60000000E+01  1.00800000E+00  1.00800000E+00
  0.00000000E+00  1.60000000E+01  1.00800000E+00  1.00800000E+00  0.00000000E+00
  1.60000000E+01  1.00800000E+00  1.00800000E+00  0.00000000E+00  1.60000000E+01
  1.00800000E+00  1.00800000E+00  0.00000000E+00  1.60000000E+01  1.00800000E+00
  1.00800000E+00  0.00000000E+00  1.60000000E+01  1.00800000E+00  1.00800000E+00
  0.00000000E+00  1.60000000E+01  1.00800000E+00  1.00800000E+00  0.00000000E+00
  1.60000000E+01  1.00800000E+00  1.00800000E+00  0.00000000E+00  1.60000000E+01
  1.00800000E+00  1.00800000E+00  0.00000000E+00  1.60000000E+01  1.00800000E+00
  1.00800000E+00  0.00000000E+00  1.60000000E+01  1.00800000E+00  1.00800000E+00
  0.00000000E+00  1.60000000E+01  1.00800000E+00  1.00800000E+00  0.00000000E+00
  1.60000000E+01  1.00800000E+00  1.00800000E+00  0.00000000E+00  1.60000000E+01
  1.00800000E+00  1.00800000E+00  0.00000000E+00  1.60000000E+01  1.00800000E+00
  1.00800000E+00  0.00000000E+00  1.60000000E+01  1.00800000E+00  1.00800000E+00
  0.00000000E+00  1.60000000E+01  1.00800000E+00  1.00800000E+00  0.00000000E+00
  1.60000000E+01  1.00800000E+00  1.00800000E+00  0.00000000E+00  1.60000000E+01
  1.00800000E+00  1.00800000E+00  0.00000000E+00  1.60000000E+01  1.00800000E+00
  1.00800000E+00  0.00000000E+00  1.60000000E+01  1.00800000E+00  1.00800000E+00
  0.00000000E+00  1.60000000E+01  1.00800000E+00  1.00800000E+00  0.00000000E+00
  1.60000000E+01  1.00800000E+00  1.00800000E+00  0.00000000E+00  1.60000000E+01
  1.00800000E+00  1.00800000E+00  0.00000000E+00  1.60000000E+01  1.00800000E+00
  1.00800000E+00  0.00000000E+00  1.60000000E+01  1.00800000E+00  1.00800000E+00
  0.00000000E+00  1.60000000E+01  1.00800000E+00  1.00800000E+00  0.00000000E+00
  1.60000000E+01  1.00800000E+00  1.00800000E+00  0.00000000E+00  1.60000000E+01
  1.00800000E+00  1.00800000E+00  0.00000000E+00  1.60000000E+01  1.00800000E+00
  1.00800000E+00  0.00000000E+00  1.60000000E+01  1.00800000E+00  1.00800000E+00
  0.00000000E+00  1.60000000E+01  1.00800000E+00  1.00800000E+00  0.00000000E+00
  1.60000000E+01  1.00800000E+00  1.00800000E+00  0.00000000E+00  1.60000000E+01
  1.00800000E+00  1.00800000E+00  0.00000000E+00  1.60000000E+01  1.00800000E+00
  1.00800000E+00  0.00000000E+00  1.60000000E+01  1.00800000E+00  1.00800000E+00
  0.00000000E+00  1.60000000E+01  1.00800000E+00  1.00800000E+00  0.00000000E+00
  1.60000000E+01  1.00800000E+00  1.00800000E+00  0.00000000E+00  1.60000000E+01
  1.00800000E+00  1.00800000E+00  0.00000000E+00  1.60000000E+01  1.00800000E+00
  1.00800000E+00  0.00000000E+00  1.60000000E+01  1.00800000E+00  1.00800000E+00
  0.00000000E+00  1.60000000E+01  1.00800000E+00  1.00800000E+00  0.00000000E+00
  1.60000000E+01  1.00800000E+00  1.00800000E+00  0.00000000E+00  1.60000000E+01
  1.00800000E+00  1.00800000E+00  0.00000000E+00  1.60000000E+01  1.00800000E+00
  1.00800000E+00  0.00000000E+00  1.60000000E+01  1.00800000E+00  1.00800000E+00
  0.00000000E+00  1.60000000E+01  1.00800000E+00  1.00800000E+00  0.00000000E+00
  1.60000000E+01  1.00800000E+00  1.00800000E+00  0.00000000E+00  1.60000000E+01
  1.00800000E+00  1.00800000E+00  0.00000000E+00  1.60000000E+01  1.00800000E+00
  1.00800000E+00  0.00000000E+00  1.60000000E+01  1.00800000E+00  1.00800000E+00
  0.00000000E+00  1.60000000E+01  1.00800000E+00  1.00800000E+00  0.00000000E+00
  1.60000000E+01  1.00800000E+00  1.00800000E+00  0.00000000E+00  1.60000000E+01
  1.00800000E+00  1.00800000E+00  0.00000000E+00  1.60000000E+01  1.00800000E+00
  1.00800000E+00  0.00000000E+00  1.60000000E+01  1.00800000E+00  1.00800000E+00
  0.00000000E+00  1.60000000E+01  1.00800000E+00  1.00800000E+00  0.00000000E+00
  1.60000000E+01  1.00800000E+00  1.00800000E+00  0.00000000E+00  1.60000000E+01
  1.00800000E+00  1.00800000E+00  0.00000000E+00  1.60000000E+01  1.00800000E+00
  1.00800000E+00  0.00000000E+00  1.60000000E+01  1.00800000E+00  1.00800000E+00
  0.00000000E+00  1.60000000E+01  1.00800000E+00  1.00800000E+00  0.00000000E+00
  1.60000000E+01  1.00800000E+00  1.00800000E+00  0.00000000E+00  1.60000000E+01
  1.00800000E+00  1.00800000E+00  0.00000000E+00  1.60000000E+01  1.00800000E+00
  1.00800000E+00  0.00000000E+00  1.60000000E+01  1.00800000E+00  1.00800000E+00
  0.00000000E+00  1.60000000E+01  1.00800000E+00  1.00800000E+00  0.00000000E+00
  1.60000000E+01  1.00800000E+00  1.00800000E+00  0.00000000E+00  1.60000000E+01
  1.00800000E+00  1.00800000E+00  0.00000000E+00  1.60000000E+01  1.00800000E+00
  1.00800000E+00  0.00000000E+00  1.60000000E+01  1.00800000E+00  1.00800000E+00
  0.00000000E+00  1.60000000E+01  1.00800000E+00  1.00800000E+00  0.00000000E+00
  1.60000000E+01  1.00800000E+00  1.00800000E+00  0.00000000E+00  1.60000000E+01
  1.00800000E+00  1.00800000E+00  0.00000000E+00  1.60000000E+01  1.00800000E+00
  1.00800000E+00  0.00000000E+00  1.60000000E+01  1.00800000E+00  1.00800000E+00
  0.00000000E+00  1.60000000E+01  1.00800000E+00  1.00800000E+00  0.00000000E+00
  1.60000000E+01  1.00800000E+00  1.00800000E+00  0.00000000E+00  1.60000000E+01
  1.00800000E+00  1.00800000E+00  0.00000000E+00  1.60000000E+01  1.00800000E+00
  1.00800000E+00  0.00000000E+00  1.60000000E+01  1.00800000E+00  1.00800000E+00
  0.00000000E+00  1.60000000E+01  1.00800000E+00  1.00800000E+00  0.00000000E+00
  1.60000000E+01  1.00800000E+00  1.00800000E+00  0.00000000E+00  1.60000000E+01
  1.00800000E+00  1.00800000E+00  0.00000000E+00  1.60000000E+01  1.00800000E+00
  1.00800000E+00  0.00000000E+00  1.60000000E+01  1.00800000E+00  1.00800000E+00
  0.00000000E+00  1.60000000E+01  1.00800000E+00  1.00800000E+00  0.00000000E+00
  1.60000000E+01  1.00800000E+00  1.00800000E+00  0.00000000E+00  1.60000000E+01
  1.00800000E+00  1.00800000E+00  0.00000000E+00  1.60000000E+01  1.00800000E+00
  1.00800000E+00  0.00000000E+00  1.60000000E+01  1.00800000E+00  1.00800000E+00
  0.00000000E+00  1.60000000E+01  1.00800000E+00  1.00800000E+00  0.00000000E+00
  1.60000000E+01  1.00800000E+00  1.00800000E+00  0.00000000E+00  1.60000000E+01
  1.00800000E+00  1.00800000E+00  0.00000000E+00  1.60000000E+01  1.00800000E+00
  1.00800000E+00  0.00000000E+00  1.60000000E+01  1.00800000E+00  1.00800000E+00
  0.00000000E+00  1.60000000E+01  1.00800000E+00  1.00800000E+00  0.00000000E+00
  1.60000000E+01  1.00800000E+00  1.00800000E+00  0.00000000E+00  1.60000000E+01
  1.00800000E+00  1.00800000E+00  0.00000000E+00  1.60000000E+01  1.00800000E+00
  1.00800000E+00  0.00000000E+00  1.60000000E+01  1.00800000E+00  1.00800000E+00
  0.00000000E+00  1.60000000E+01  1.00800000E+00  1.00800000E+00  0.00000000E+00
  1.60000000E+01  1.00800000E+00  1.00800000E+00  0.00000000E+00  1.60000000E+01
  1.00800000E+00  1.00800000E+00  0.00000000E+00  1.60000000E+01  1.00800000E+00
  1.00800000E+00  0.00000000E+00  1.60000000E+01  1.00800000E+00  1.00800000E+00
  0.00000000E+00  1.60000000E+01  1.00800000E+00  1.00800000E+00  0.00000000E+00
  1.60000000E+01  1.00800000E+00  1.00800000E+00  0.00000000E+00  1.60000000E+01
  1.00800000E+00  1.00800000E+00  0.00000000E+00  1.60000000E+01  1.00800000E+00
  1.00800000E+00  0.00000000E+00  1.60000000E+01  1.00800000E+00  1.00800000E+00
  0.00000000E+00  1.60000000E+01  1.00800000E+00  1.00800000E+00  0.00000000E+00
  1.60000000E+01  1.00800000E+00  1.00800000E+00  0.00000000E+00  1.60000000E+01
  1.00800000E+00  1.00800000E+00  0.00000000E+00  1.60000000E+01  1.00800000E+00
  1.00800000E+00  0.00000000E+00  1.60000000E+01  1.00800000E+00  1.00800000E+00
  0.00000000E+00  1.60000000E+01  1.00800000E+00  1.00800000E+00  0.00000000E+00
  1.60000000E+01  1.00800000E+00  1.00800000E+00  0.00000000E+00  1.60000000E+01
  1.00800000E+00  1.00800000E+00  0.00000000E+00  1.60000000E+01  1.00800000E+00
  1.00800000E+00  0.00000000E+00  1.60000000E+01  1.00800000E+00  1.00800000E+00
  0.00000000E+00  1.60000000E+01  1.00800000E+00  1.00800000E+00  0.00000000E+00
  1.60000000E+01  1.00800000E+00  1.00800000E+00  0.00000000E+00  1.60000000E+01
  1.00800000E+00  1.00800000E+00  0.00000000E+00  1.60000000E+01  1.00800000E+00
  1.00800000E+00  0.00000000E+00  1.60000000E+01  1.00800000E+00  1.00800000E+00
  0.00000000E+00  1.60000000E+01  1.00800000E+00  1.00800000E+00  0.00000000E+00
  1.60000000E+01  1.00800000E+00  1.00800000E+00  0.00000000E+00  1.60000000E+01
  1.00800000E+00  1.00800000E+00  0.00000000E+00  1.60000000E+01  1.00800000E+00
  1.00800000E+00  0.00000000E+00  1.60000000E+01  1.00800000E+00  1.00800000E+00
  0.00000000E+00  1.60000000E+01  1.00800000E+00  1.00800000E+00  0.00000000E+00
  1.60000000E+01  1.00800000E+00  1.00800000E+00  0.00000000E+00  1.60000000E+01
  1.00800000E+00  1.00800000E+00  0.00000000E+00  1.60000000E+01  1.00800000E+00
  1.00800000E+00  0.00000000E+00  1.60000000E+01  1.00800000E+00  1.00800000E+00
  0.00000000E+00  1.60000000E+01  1.00800000E+00  1.00800000E+00  0.00000000E+00
  1.60000000E+01  1.00800000E+00  1.00800000E+00  0.00000000E+00  1.60000000E+01
  1.00800000E+00  1.00800000E+00  0.00000000E+00  1.60000000E+01  1.00800000E+00
  1.00800000E+00  0.00000000E+00  1.60000000E+01  1.00800000E+00  1.00800000E+00
  0.00000000E+00  1.60000000E+01  1.00800000E+00  1.00800000E+00  0.00000000E+00
  1.60000000E+01  1.00800000E+00  1.00800000E+00  0.00000000E+00  1.60000000E+01
  1.00800000E+00  1.00800000E+00  0.00000000E+00  1.60000000E+01  1.00800000E+00
  1.00800000E+00  0.00000000E+00  1.60000000E+01  1.00800000E+00  1.00800000E+00
  0.00000000E+00  1.60000000E+01  1.00800000E+00  1.00800000E+00  0.00000000E+00
  1.60000000E+01  1.00800000E+00  1.00800000E+00  0.00000000E+00  1.60000000E+01
  1.00800000E+00  1.00800000E+00  0.00000000E+00  1.60000000E+01  1.00800000E+00
  1.00800000E+00  0.00000000E+00  1.60000000E+01  1.00800000E+00  1.00800000E+00
  0.00000000E+00  1.60000000E+01  1.00800000E+00  1.00800000E+00  0.00000000E+00
  1.60000000E+01  1.00800000E+00  1.00800000E+00  0.00000000E+00  1.60000000E+01
  1.00800000E+00  1.00800000E+00  0.00000000E+00  1.60000000E+01  1.00800000E+00
  1.00800000E+00  0.00000000E+00  1.60000000E+01  1.00800000E+00  1.00800000E+00
  0.00000000E+00  1.60000000E+01  1.00800000E+00  1.00800000E+00  0.00000000E+00
  1.60000000E+01  1.00800000E+00  1.00800000E+00  0.00000000E+00  1.60000000E+01
  1.00800000E+00  1.00800000E+00  0.00000000E+00  1.60000000E+01  1.00800000E+00
  1.00800000E+00  0.00000000E+00  1.60000000E+01  1.00800000E+00  1.00800000E+00
  0.00000000E+00  1.60000000E+01  1.00800000E+00  1.00800000E+00  0.00000000E+00
  1.60000000E+01  1.00800000E+00  1.00800000E+00  0.00000000E+00  1.60000000E+01
  1.00800000E+00  1.00800000E+00  0.00000000E+00  1.60000000E+01  1.00800000E+00
  1.00800000E+00  0.00000000E+00  1.60000000E+01  1.00800000E+00  1.00800000E+00
  0.00000000E+00  1.60000000E+01  1.00800000E+00  1.00800000E+00  0.00000000E+00
  1.60000000E+01  1.00800000E+00  1.00800000E+00  0.00000000E+00  1.60000000E+01
  1.00800000E+00  1.00800000E+00  0.00000000E+00  1.60000000E+01  1.00800000E+00
  1.00800000E+00  0.00000000E+00  1.60000000E+01  1.00800000E+00  1.00800000E+00
  0.00000000E+00  1.60000000E+01  1.00800000E+00  1.00800000E+00  0.00000000E+00
  1.60000000E+01  1.00800000E+00  1.00800000E+00  0.00000000E+00  1.60000000E+01
  1.00800000E+00  1.00800000E+00  0.00000000E+00  1.60000000E+01  1.00800000E+00
  1.00800000E+00  0.00000000E+00  1.60000000E+01  1.00800000E+00  1.00800000E+00
  0.00000000E+00  1.60000000E+01  1.00800000E+00  1.00800000E+00  0.00000000E+00
  1.60000000E+01  1.00800000E+00  1.00800000E+00  0.00000000E+00  1.60000000E+01
  1.00800000E+00  1.00800000E+00  0.00000000E+00  1.60000000E+01  1.00800000E+00
  1.00800000E+00  0.00000000E+00  1.60000000E+01  1.00800000E+00  1.00800000E+00
  0.00000000E+00  1.60000000E+01  1.00800000E+00  1.00800000E+00  0.00000000E+00
  1.60000000E+01  1.00800000E+00  1.00800000E+00  0.00000000E+00  1.60000000E+01
  1.00800000E+00  1.00800000E+00  0.00000000E+00  1.60000000E+01  1.00800000E+00
  1.00800000E+00  0.00000000E+00  1.60000000E+01  1.00800000E+00  1.00800000E+00
  0.00000000E+00  1.60000000E+01  1.00800000E+00  1.00800000E+00  0.00000000E+00
  1.60000000E+01  1.00800000E+00  1.00800000E+00  0.00000000E+00  1.60000000E+01
  1.00800000E+00  1.00800000E+00  0.00000000E+00  1.60000000E+01  1.00800000E+00
  1.00800000E+00  0.00000000E+00  1.60000000E+01  1.00800000E+00  1.00800000E+00
  0.00000000E+00  1.60000000E+01  1.00800000E+00  1.00800000E+00  0.00000000E+00
  1.60000000E+01  1.00800000E+00  1.00800000E+00  0.00000000E+00  1.60000000E+01
  1.00800000E+00  1.00800000E+00  0.00000000E+00  1.60000000E+01  1.00800000E+00
  1.00800000E+00  0.00000000E+00  1.60000000E+01  1.00800000E+00  1.00800000E+00
  0.00000000E+00  1.60000000E+01  1.00800000E+00  1.00800000E+00  0.00000000E+00
  1.60000000E+01  1.00800000E+00  1.00800000E+00  0.00000000E+00  1.60000000E+01
  1.00800000E+00  1.00800000E+00  0.00000000E+00  1.60000000E+01  1.00800000E+00
  1.00800000E+00  0.00000000E+00  1.60000000E+01  1.00800000E+00  1.00800000E+00
  0.00000000E+00  1.60000000E+01  1.00800000E+00  1.00800000E+00  0.00000000E+00
  1.60000000E+01  1.00800000E+00  1.00800000E+00  0.00000000E+00  1.60000000E+01
  1.00800000E+00  1.00800000E+00  0.00000000E+00  1.60000000E+01  1.00800000E+00
  1.00800000E+00  0.00000000E+00  1.60000000E+01  1.00800000E+00  1.00800000E+00
  0.00000000E+00  1.60000000E+01  1.00800000E+00  1.00800000E+00  0.00000000E+00
  1.60000000E+01  1.00800000E+00  1.00800000E+00  0.00000000E+00  1.60000000E+01
  1.00800000E+00  1.00800000E+00  0.00000000E+00  1.60000000E+01  1.00800000E+00
  1.00800000E+00  0.00000000E+00  1.60000000E+01  1.00800000E+00  1.00800000E+00
  0.00000000E+00  1.60000000E+01  1.00800000E+00  1.00800000E+00  0.00000000E+00
  1.60000000E+01  1.00800000E+00  1.00800000E+00  0.00000000E+00  1.60000000E+01
  1.00800000E+00  1.00800000E+00  0.00000000E+00  1.60000000E+01  1.00800000E+00
  1.00800000E+00  0.00000000E+00  1.60000000E+01  1.00800000E+00  1.00800000E+00
  0.00000000E+00  1.60000000E+01  1.00800000E+00  1.00800000E+00  0.00000000E+00
  1.60000000E+01  1.00800000E+00  1.00800000E+00  0.00000000E+00  1.60000000E+01
  1.00800000E+00  1.00800000E+00  0.00000000E+00  1.60000000E+01  1.00800000E+00
  1.00800000E+00  0.00000000E+00  1.60000000E+01  1.00800000E+00  1.00800000E+00
  0.00000000E+00  1.60000000E+01  1.00800000E+00  1.00800000E+00  0.00000000E+00
  1.60000000E+01  1.00800000E+00  1.00800000E+00  0.00000000E+00  1.60000000E+01
  1.00800000E+00  1.00800000E+00  0.00000000E+00  1.60000000E+01  1.00800000E+00
  1.00800000E+00  0.00000000E+00  1.60000000E+01  1.00800000E+00  1.00800000E+00
  0.00000000E+00  1.60000000E+01  1.00800000E+00  1.00800000E+00  0.00000000E+00
  1.60000000E+01  1.00800000E+00  1.00800000E+00  0.00000000E+00  1.60000000E+01
  1.00800000E+00  1.00800000E+00  0.00000000E+00  1.60000000E+01  1.00800000E+00
  1.00800000E+00  0.00000000E+00  1.60000000E+01  1.00800000E+00  1.00800000E+00
  0.00000000E+00  1.60000000E+01  1.00800000E+00  1.00800000E+00  0.00000000E+00
  1.60000000E+01  1.00800000E+00  1.00800000E+00  0.00000000E+00  1.60000000E+01
  1.00800000E+00  1.00800000E+00  0.00000000E+00  1.60000000E+01  1.00800000E+00
  1.00800000E+00  0.00000000E+00  1.60000000E+01  1.00800000E+00  1.00800000E+00
  0.00000000E+00  1.60000000E+01  1.00800000E+00  1.00800000E+00  0.00000000E+00
  1.60000000E+01  1.00800000E+00  1.00800000E+00  0.00000000E+00  1.60000000E+01
  1.00800000E+00  1.00800000E+00  0.00000000E+00  1.60000000E+01  1.00800000E+00
  1.00800000E+00  0.00000000E+00  1.60000000E+01  1.00800000E+00  1.00800000E+00
  0.00000000E+00  1.60000000E+01  1.00800000E+00  1.00800000E+00  0.00000000E+00
  1.60000000E+01  1.00800000E+00  1.00800000E+00  0.00000000E+00  1.60000000E+01
  1.00800000E+00  1.00800000E+00  0.00000000E+00  1.60000000E+01  1.00800000E+00
  1.00800000E+00  0.00000000E+00  1.60000000E+01  1.00800000E+00  1.00800000E+00
  0.00000000E+00  1.60000000E+01  1.00800000E+00  1.00800000E+00  0.00000000E+00
  1.60000000E+01  1.00800000E+00  1.00800000E+00  0.00000000E+00  1.60000000E+01
  1.00800000E+00  1.00800000E+00  0.00000000E+00  1.60000000E+01  1.00800000E+00
  1.00800000E+00  0.00000000E+00  1.60000000E+01  1.00800000E+00  1.00800000E+00
  0.00000000E+00  1.60000000E+01  1.00800000E+00  1.00800000E+00  0.00000000E+00
  1.60000000E+01  1.00800000E+00  1.00800000E+00  0.00000000E+00  1.60000000E+01
  1.00800000E+00  1.00800000E+00  0.00000000E+00  1.60000000E+01  1.00800000E+00
  1.00800000E+00  0.00000000E+00  1.60000000E+01  1.00800000E+00  1.00800000E+00
  0.00000000E+00  1.60000000E+01  1.00800000E+00  1.00800000E+00  0.00000000E+00
  1.60000000E+01  1.00800000E+00  1.00800000E+00  0.00000000E+00  1.60000000E+01
  1.00800000E+00  1.00800000E+00  0.00000000E+00  1.60000000E+01  1.00800000E+00
  1.00800000E+00  0.00000000E+00  1.60000000E+01  1.00800000E+00  1.00800000E+00
  0.00000000E+00  1.60000000E+01  1.00800000E+00  1.00800000E+00  0.00000000E+00
  1.60000000E+01  1.00800000E+00  1.00800000E+00  0.00000000E+00  1.60000000E+01
  1.00800000E+00  1.00800000E+00  0.00000000E+00  1.60000000E+01  1.00800000E+00
  1.00800000E+00  0.00000000E+00  1.60000000E+01  1.00800000E+00  1.00800000E+00
  0.00000000E+00  1.60000000E+01  1.00800000E+00  1.00800000E+00  0.00000000E+00
  1.60000000E+01  1.00800000E+00  1.00800000E+00  0.00000000E+00  1.60000000E+01
  1.00800000E+00  1.00800000E+00  0.00000000E+00  1.60000000E+01  1.00800000E+00
  1.00800000E+00  0.00000000E+00  1.60000000E+01  1.00800000E+00  1.00800000E+00
  0.00000000E+00  1.60000000E+01  1.00800000E+00  1.00800000E+00  0.00000000E+00
  1.60000000E+01  1.00800000E+00  1.00800000E+00  0.00000000E+00  1.60000000E+01
  1.00800000E+00  1.00800000E+00  0.00000000E+00  1.60000000E+01  1.00800000E+00
  1.00800000E+00  0.00000000E+00  1.60000000E+01  1.00800000E+00  1.00800000E+00
  0.00000000E+00  1.60000000E+01  1.00800000E+00  1.00800000E+00  0.00000000E+00
  1.60000000E+01  1.00800000E+00  1.00800000E+00  0.00000000E+00  1.60000000E+01
  1.00800000E+00  1.00800000E+00  0.00000000E+00  1.60000000E+01  1.00800000E+00
  1.00800000E+00  0.00000000E+00  1.60000000E+01  1.00800000E+00  1.00800000E+00
  0.00000000E+00  1.60000000E+01  1.00800000E+00  1.00800000E+00  0.00000000E+00
  1.60000000E+01  1.00800000E+00  1.00800000E+00  0.00000000E+00  1.60000000E+01
  1.00800000E+00  1.00800000E+00  0.00000000E+00  1.60000000E+01  1.00800000E+00
  1.00800000E+00  0.00000000E+00  1.60000000E+01  1.00800000E+00  1.00800000E+00
  0.00000000E+00  1.60000000E+01  1.00800000E+00  1.00800000E+00  0.00000000E+00
  1.60000000E+01  1.00800000E+00  1.00800000E+00  0.00000000E+00  1.60000000E+01
  1.00800000E+00  1.00800000E+00  0.00000000E+00  1.60000000E+01  1.00800000E+00
  1.00800000E+00  0.00000000E+00  1.60000000E+01  1.00800000E+00  1.00800000E+00
  0.00000000E+00  1.60000000E+01  1.00800000E+00  1.00800000E+00  0.00000000E+00
  1.60000000E+01  1.00800000E+00  1.00800000E+00  0.00000000E+00  1.60000000E+01
  1.00800000E+00  1.00800000E+00  0.00000000E+00  1.60000000E+01  1.00800000E+00
  1.00800000E+00  0.00000000E+00  1.60000000E+01  1.00800000E+00  1.00800000E+00
  0.00000000E+00  1.60000000E+01  1.00800000E+00  1.00800000E+00  0.00000000E+00
  1.60000000E+01  1.00800000E+00  1.00800000E+00  0.00000000E+00  1.60000000E+01
  1.00800000E+00  1.00800000E+00  0.00000000E+00  1.60000000E+01  1.00800000E+00
  1.00800000E+00  0.00000000E+00  1.60000000E+01  1.00800000E+00  1.00800000E+00
  0.00000000E+00  1.60000000E+01  1.00800000E+00  1.00800000E+00  0.00000000E+00
  1.60000000E+01  1.00800000E+00  1.00800000E+00  0.00000000E+00  1.60000000E+01
  1.00800000E+00  1.00800000E+00  0.00000000E+00  1.60000000E+01  1.00800000E+00
  1.00800000E+00  0.00000000E+00  1.60000000E+01  1.00800000E+00  1.00800000E+00
  0.00000000E+00  1.60000000E+01  1.00800000E+00  1.00800000E+00  0.00000000E+00
  1.60000000E+01  1.00800000E+00  1.00800000E+00  0.00000000E+00  1.60000000E+01
  1.00800000E+00  1.00800000E+00  0.00000000E+00  1.60000000E+01  1.00800000E+00
  1.00800000E+00  0.00000000E+00  1.60000000E+01  1.00800000E+00  1.00800000E+00
  0.00000000E+00  1.60000000E+01  1.00800000E+00  1.00800000E+00  0.00000000E+00
  1.60000000E+01  1.00800000E+00  1.00800000E+00  0.00000000E+00  1.60000000E+01
  1.00800000E+00  1.00800000E+00  0.00000000E+00  1.60000000E+01  1.00800000E+00
  1.00800000E+00  0.00000000E+00  1.60000000E+01  1.00800000E+00  1.00800000E+00
  0.00000000E+00  1.60000000E+01  1.00800000E+00  1.00800000E+00  0.00000000E+00
  1.60000000E+01  1.00800000E+00  1.00800000E+00  0.00000000E+00  1.60000000E+01
  1.00800000E+00  1.00800000E+00  0.00000000E+00  1.60000000E+01  1.00800000E+00
  1.00800000E+00  0.00000000E+00  1.60000000E+01  1.00800000E+00  1.00800000E+00
  0.00000000E+00  1.60000000E+01  1.00800000E+00  1.00800000E+00  0.00000000E+00
  1.60000000E+01  1.00800000E+00  1.00800000E+00  0.00000000E+00  1.60000000E+01
  1.00800000E+00  1.00800000E+00  0.00000000E+00  1.60000000E+01  1.00800000E+00
  1.00800000E+00  0.00000000E+00  1.60000000E+01  1.00800000E+00  1.00800000E+00
  0.00000000E+00  1.60000000E+01  1.00800000E+00  1.00800000E+00  0.00000000E+00
  1.60000000E+01  1.00800000E+00  1.00800000E+00  0.00000000E+00  1.60000000E+01
  1.00800000E+00  1.00800000E+00  0.00000000E+00  1.60000000E+01  1.00800000E+00
  1.00800000E+00  0.00000000E+00  1.60000000E+01  1.00800000E+00  1.00800000E+00
  0.00000000E+00  1.60000000E+01  1.00800000E+00  1.00800000E+00  0.00000000E+00
  1.60000000E+01  1.00800000E+00  1.00800000E+00  0.00000000E+00  1.60000000E+01
  1.00800000E+00  1.00800000E+00  0.00000000E+00  1.60000000E+01  1.00800000E+00
  1.00800000E+00  0.00000000E+00  1.60000000E+01  1.00800000E+00  1.00800000E+00
  0.00000000E+00  1.60000000E+01  1.00800000E+00  1.00800000E+00  0.00000000E+00
  1.60000000E+01  1.00800000E+00  1.00800000E+00  0.00000000E+00  1.60000000E+01
  1.00800000E+00  1.00800000E+00  0.00000000E+00  1.60000000E+01  1.00800000E+00
  1.00800000E+00  0.00000000E+00  1.60000000E+01  1.00800000E+00  1.00800000E+00
  0.00000000E+00  1.60000000E+01  1.00800000E+00  1.00800000E+00  0.00000000E+00
  1.60000000E+01  1.00800000E+00  1.00800000E+00  0.00000000E+00  1.60000000E+01
  1.00800000E+00  1.00800000E+00  0.00000000E+00  1.60000000E+01  1.00800000E+00
  1.00800000E+00  0.00000000E+00  1.60000000E+01  1.00800000E+00  1.00800000E+00
  0.00000000E+00  1.60000000E+01  1.00800000E+00  1.00800000E+00  0.00000000E+00
  1.60000000E+01  1.00800000E+00  1.00800000E+00  0.00000000E+00  1.60000000E+01
  1.00800000E+00  1.00800000E+00  0.00000000E+00  1.60000000E+01  1.00800000E+00
  1.00800000E+00  0.00000000E+00  1.60000000E+01  1.00800000E+00  1.00800000E+00
  0.00000000E+00  1.60000000E+01  1.00800000E+00  1.00800000E+00  0.00000000E+00
  1.60000000E+01  1.00800000E+00  1.00800000E+00  0.00000000E+00  1.60000000E+01
  1.00800000E+00  1.00800000E+00  0.00000000E+00  1.60000000E+01  1.00800000E+00
  1.00800000E+00  0.00000000E+00  1.60000000E+01  1.00800000E+00  1.00800000E+00
  0.00000000E+00  1.60000000E+01  1.00800000E+00  1.00800000E+00  0.00000000E+00
  1.60000000E+01  1.00800000E+00  1.00800000E+00  0.00000000E+00  1.60000000E+01
  1.00800000E+00  1.00800000E+00  0.00000000E+00  1.60000000E+01  1.00800000E+00
  1.00800000E+00  0.00000000E+00  1.60000000E+01  1.00800000E+00  1.00800000E+00
  0.00000000E+00  1.60000000E+01  1.00800000E+00  1.00800000E+00  0.00000000E+00
  1.60000000E+01  1.00800000E+00  1.00800000E+00  0.00000000E+00  1.60000000E+01
  1.00800000E+00  1.00800000E+00  0.00000000E+00  1.60000000E+01  1.00800000E+00
  1.00800000E+00  0.00000000E+00  1.60000000E+01  1.00800000E+00  1.00800000E+00
  0.00000000E+00  1.60000000E+01  1.00800000E+00  1.00800000E+00  0.00000000E+00
  1.60000000E+01  1.00800000E+00  1.00800000E+00  0.00000000E+00  1.60000000E+01
  1.00800000E+00  1.00800000E+00  0.00000000E+00  1.60000000E+01  1.00800000E+00
  1.00800000E+00  0.00000000E+00  1.60000000E+01  1.00800000E+00  1.00800000E+00
  0.00000000E+00  1.60000000E+01  1.00800000E+00  1.00800000E+00  0.00000000E+00
  1.60000000E+01  1.00800000E+00  1.00800000E+00  0.00000000E+00  1.60000000E+01
  1.00800000E+00  1.00800000E+00  0.00000000E+00  1.60000000E+01  1.00800000E+00
  1.00800000E+00  0.00000000E+00  1.60000000E+01  1.00800000E+00  1.00800000E+00
  0.00000000E+00  1.60000000E+01  1.00800000E+00  1.00800000E+00  0.00000000E+00
  1.60000000E+01  1.00800000E+00  1.00800000E+00  0.00000000E+00  1.60000000E+01
  1.00800000E+00  1.00800000E+00  0.00000000E+00  1.60000000E+01  1.00800000E+00
  1.00800000E+00  0.00000000E+00  1.60000000E+01  1.00800000E+00  1.00800000E+00
  0.00000000E+00  1.60000000E+01  1.00800000E+00  1.00800000E+00  0.00000000E+00
  1.60000000E+01  1.00800000E+00  1.00800000E+00  0.00000000E+00  1.60000000E+01
  1.00800000E+00  1.00800000E+00  0.00000000E+00  1.60000000E+01  1.00800000E+00
  1.00800000E+00  0.00000000E+00  1.60000000E+01  1.00800000E+00  1.00800000E+00
  0.00000000E+00  1.60000000E+01  1.00800000E+00  1.00800000E+00  0.00000000E+00
  1.60000000E+01  1.00800000E+00  1.00800000E+00  0.00000000E+00  1.60000000E+01
  1.00800000E+00  1.00800000E+00  0.00000000E+00  1.60000000E+01  1.00800000E+00
  1.00800000E+00  0.00000000E+00  1.60000000E+01  1.00800000E+00  1.00800000E+00
  0.00000000E+00  1.60000000E+01  1.00800000E+00  1.00800000E+00  0.00000000E+00
  1.60000000E+01  1.00800000E+00  1.00800000E+00  0.00000000E+00  1.60000000E+01
  1.00800000E+00  1.00800000E+00  0.00000000E+00  1.60000000E+01  1.00800000E+00
  1.00800000E+00  0.00000000E+00  1.60000000E+01  1.00800000E+00  1.00800000E+00
  0.00000000E+00  1.60000000E+01  1.00800000E+00  1.00800000E+00  0.00000000E+00
  1.60000000E+01  1.00800000E+00  1.00800000E+00  0.00000000E+00  1.60000000E+01
  1.00800000E+00  1.00800000E+00  0.00000000E+00  1.60000000E+01  1.00800000E+00
  1.00800000E+00  0.00000000E+00  1.60000000E+01  1.00800000E+00  1.00800000E+00
  0.00000000E+00  1.60000000E+01  1.00800000E+00  1.00800000E+00  0.00000000E+00
  1.60000000E+01  1.00800000E+00  1.00800000E+00  0.00000000E+00  1.60000000E+01
  1.00800000E+00  1.00800000E+00  0.00000000E+00  1.60000000E+01  1.00800000E+00
  1.00800000E+00  0.00000000E+00  1.60000000E+01  1.00800000E+00  1.00800000E+00
  0.00000000E+00  1.60000000E+01  1.00800000E+00  1.00800000E+00  0.00000000E+00
  1.60000000E+01  1.00800000E+00  1.00800000E+00  0.00000000E+00  1.60000000E+01
  1.00800000E+00  1.00800000E+00  0.00000000E+00  1.60000000E+01  1.00800000E+00
  1.00800000E+00  0.00000000E+00  1.60000000E+01  1.00800000E+00  1.00800000E+00
  0.00000000E+00  1.60000000E+01  1.00800000E+00  1.00800000E+00  0.00000000E+00
  1.60000000E+01  1.00800000E+00  1.00800000E+00  0.00000000E+00  1.60000000E+01
  1.00800000E+00  1.00800000E+00  0.00000000E+00  1.60000000E+01  1.00800000E+00
  1.00800000E+00  0.00000000E+00  1.60000000E+01  1.00800000E+00  1.00800000E+00
  0.00000000E+00  1.60000000E+01  1.00800000E+00  1.00800000E+00  0.00000000E+00
  1.60000000E+01  1.00800000E+00  1.00800000E+00  0.00000000E+00  1.60000000E+01
  1.00800000E+00  1.00800000E+00  0.00000000E+00  1.60000000E+01  1.00800000E+00
  1.00800000E+00  0.00000000E+00  1.60000000E+01  1.00800000E+00  1.00800000E+00
  0.00000000E+00  1.60000000E+01  1.00800000E+00  1.00800000E+00  0.00000000E+00
  1.60000000E+01  1.00800000E+00  1.00800000E+00  0.00000000E+00  1.60000000E+01
  1.00800000E+00  1.00800000E+00  0.00000000E+00  1.60000000E+01  1.00800000E+00
  1.00800000E+00  0.00000000E+00  1.60000000E+01  1.00800000E+00  1.00800000E+00
  0.00000000E+00  1.60000000E+01  1.00800000E+00  1.00800000E+00  0.00000000E+00
  1.60000000E+01  1.00800000E+00  1.00800000E+00  0.00000000E+00  1.60000000E+01
  1.00800000E+00  1.00800000E+00  0.00000000E+00  1.60000000E+01  1.00800000E+00
  1.00800000E+00  0.00000000E+00  1.60000000E+01  1.00800000E+00  1.00800000E+00
  0.00000000E+00  1.60000000E+01  1.00800000E+00  1.00800000E+00  0.00000000E+00
  1.60000000E+01  1.00800000E+00  1.00800000E+00  0.00000000E+00  1.60000000E+01
  1.00800000E+00  1.00800000E+00  0.00000000E+00  1.60000000E+01  1.00800000E+00
  1.00800000E+00  0.00000000E+00  1.60000000E+01  1.00800000E+00  1.00800000E+00
  0.00000000E+00  1.60000000E+01  1.00800000E+00  1.00800000E+00  0.00000000E+00
  1.60000000E+01  1.00800000E+00  1.00800000E+00  0.00000000E+00  1.60000000E+01
  1.00800000E+00  1.00800000E+00  0.00000000E+00  1.60000000E+01  1.00800000E+00
  1.00800000E+00  0.00000000E+00  1.60000000E+01  1.00800000E+00  1.00800000E+00
  0.00000000E+00  1.60000000E+01  1.00800000E+00  1.00800000E+00  0.00000000E+00
  1.60000000E+01  1.00800000E+00  1.00800000E+00  0.00000000E+00  1.60000000E+01
  1.00800000E+00  1.00800000E+00  0.00000000E+00  1.60000000E+01  1.00800000E+00
  1.00800000E+00  0.00000000E+00  1.60000000E+01  1.00800000E+00  1.00800000E+00
  0.00000000E+00  1.60000000E+01  1.00800000E+00  1.00800000E+00  0.00000000E+00
  1.60000000E+01  1.00800000E+00  1.00800000E+00  0.00000000E+00  1.60000000E+01
  1.00800000E+00  1.00800000E+00  0.00000000E+00  1.60000000E+01  1.00800000E+00
  1.00800000E+00  0.00000000E+00  1.60000000E+01  1.00800000E+00  1.00800000E+00
  0.00000000E+00  1.60000000E+01  1.00800000E+00  1.00800000E+00  0.00000000E+00
  1.60000000E+01  1.00800000E+00  1.00800000E+00  0.00000000E+00  1.60000000E+01
  1.00800000E+00  1.00800000E+00  0.00000000E+00  1.60000000E+01  1.00800000E+00
  1.00800000E+00  0.00000000E+00  1.60000000E+01  1.00800000E+00  1.00800000E+00
  0.00000000E+00  1.60000000E+01  1.00800000E+00  1.00800000E+00  0.00000000E+00
  1.60000000E+01  1.00800000E+00  1.00800000E+00  0.00000000E+00  1.60000000E+01
  1.00800000E+00  1.00800000E+00  0.00000000E+00  1.60000000E+01  1.00800000E+00
  1.00800000E+00  0.00000000E+00  1.60000000E+01  1.00800000E+00  1.00800000E+00
  0.00000000E+00  1.60000000E+01  1.00800000E+00  1.00800000E+00  0.00000000E+00
  1.60000000E+01  1.00800000E+00  1.00800000E+00  0.00000000E+00  1.60000000E+01
  1.00800000E+00  1.00800000E+00  0.00000000E+00  1.60000000E+01  1.00800000E+00
  1.00800000E+00  0.00000000E+00  1.60000000E+01  1.00800000E+00  1.00800000E+00
  0.00000000E+00  1.60000000E+01  1.00800000E+00  1.00800000E+00  0.00000000E+00
  1.60000000E+01  1.00800000E+00  1.00800000E+00  0.00000000E+00  1.60000000E+01
  1.00800000E+00  1.00800000E+00  0.00000000E+00  1.60000000E+01  1.00800000E+00
  1.00800000E+00  0.00000000E+00  1.60000000E+01  1.00800000E+00  1.00800000E+00
  0.00000000E+00  1.60000000E+01  1.00800000E+00  1.00800000E+00  0.00000000E+00
  1.60000000E+01  1.00800000E+00  1.00800000E+00  0.00000000E+00  1.60000000E+01
  1.00800000E+00  1.00800000E+00  0.00000000E+00  1.60000000E+01  1.00800000E+00
  1.00800000E+00  0.00000000E+00  1.60000000E+01  1.00800000E+00  1.00800000E+00
  0.00000000E+00  1.60000000E+01  1.00800000E+00  1.00800000E+00  0.00000000E+00
  1.60000000E+01  1.00800000E+00  1.00800000E+00  0.00000000E+00  1.60000000E+01
  1.00800000E+00  1.00800000E+00  0.00000000E+00  1.60000000E+01  1.00800000E+00
  1.00800000E+00  0.00000000E+00  1.60000000E+01  1.00800000E+00  1.00800000E+00
  0.00000000E+00  1.60000000E+01  1.00800000E+00  1.00800000E+00  0.00000000E+00
  1.60000000E+01  1.00800000E+00  1.00800000E+00  0.00000000E+00  1.60000000E+01
  1.00800000E+00  1.00800000E+00  0.00000000E+00  1.60000000E+01  1.00800000E+00
  1.00800000E+00  0.00000000E+00  1.60000000E+01  1.00800000E+00  1.00800000E+00
  0.00000000E+00  1.60000000E+01  1.00800000E+00  1.00800000E+00  0.00000000E+00
  1.60000000E+01  1.00800000E+00  1.00800000E+00  0.00000000E+00  1.60000000E+01
  1.00800000E+00  1.00800000E+00  0.00000000E+00  1.60000000E+01  1.00800000E+00
  1.00800000E+00  0.00000000E+00  1.60000000E+01  1.00800000E+00  1.00800000E+00
  0.00000000E+00  1.60000000E+01  1.00800000E+00  1.00800000E+00  0.00000000E+00
  1.60000000E+01  1.00800000E+00  1.00800000E+00  0.00000000E+00  1.60000000E+01
  1.00800000E+00  1.00800000E+00  0.00000000E+00  1.60000000E+01  1.00800000E+00
  1.00800000E+00  0.00000000E+00  1.60000000E+01  1.00800000E+00  1.00800000E+00
  0.00000000E+00  1.60000000E+01  1.00800000E+00  1.00800000E+00  0.00000000E+00
  1.60000000E+01  1.00800000E+00  1.00800000E+00  0.00000000E+00  1.60000000E+01
  1.00800000E+00  1.00800000E+00  0.00000000E+00  1.60000000E+01  1.00800000E+00
  1.00800000E+00  0.00000000E+00  1.60000000E+01  1.00800000E+00  1.00800000E+00
  0.00000000E+00  1.60000000E+01  1.00800000E+00  1.00800000E+00  0.00000000E+00
  1.60000000E+01  1.00800000E+00  1.00800000E+00  0.00000000E+00  1.60000000E+01
  1.00800000E+00  1.00800000E+00  0.00000000E+00  1.60000000E+01  1.00800000E+00
  1.00800000E+00  0.00000000E+00  1.60000000E+01  1.00800000E+00  1.00800000E+00
  0.00000000E+00  1.60000000E+01  1.00800000E+00  1.00800000E+00  0.00000000E+00
  1.60000000E+01  1.00800000E+00  1.00800000E+00  0.00000000E+00  1.60000000E+01
  1.00800000E+00  1.00800000E+00  0.00000000E+00  1.60000000E+01  1.00800000E+00
  1.00800000E+00  0.00000000E+00  1.60000000E+01  1.00800000E+00  1.00800000E+00
  0.00000000E+00  1.60000000E+01  1.00800000E+00  1.00800000E+00  0.00000000E+00
  1.60000000E+01  1.00800000E+00  1.00800000E+00  0.00000000E+00  1.60000000E+01
  1.00800000E+00  1.00800000E+00  0.00000000E+00  1.60000000E+01  1.00800000E+00
  1.00800000E+00  0.00000000E+00  1.60000000E+01  1.00800000E+00  1.00800000E+00
  0.00000000E+00  1.60000000E+01  1.00800000E+00  1.00800000E+00  0.00000000E+00
  1.60000000E+01  1.00800000E+00  1.00800000E+00  0.00000000E+00  1.60000000E+01
  1.00800000E+00  1.00800000E+00  0.00000000E+00  1.60000000E+01  1.00800000E+00
  1.00800000E+00  0.00000000E+00  1.60000000E+01  1.00800000E+00  1.00800000E+00
  0.00000000E+00  1.60000000E+01  1.00800000E+00  1.00800000E+00  0.00000000E+00
  1.60000000E+01  1.00800000E+00  1.00800000E+00  0.00000000E+00  1.60000000E+01
  1.00800000E+00  1.00800000E+00  0.00000000E+00  1.60000000E+01  1.00800000E+00
  1.00800000E+00  0.00000000E+00  1.60000000E+01  1.00800000E+00  1.00800000E+00
  0.00000000E+00  1.60000000E+01  1.00800000E+00  1.00800000E+00  0.00000000E+00
  1.60000000E+01  1.00800000E+00  1.00800000E+00  0.00000000E+00  1.60000000E+01
  1.00800000E+00  1.00800000E+00  0.00000000E+00  1.60000000E+01  1.00800000E+00
  1.00800000E+00  0.00000000E+00  1.60000000E+01  1.00800000E+00  1.00800000E+00
  0.00000000E+00  1.60000000E+01  1.00800000E+00  1.00800000E+00  0.00000000E+00
  1.60000000E+01  1.00800000E+00  1.00800000E+00  0.00000000E+00  1.60000000E+01
  1.00800000E+00  1.00800000E+00  0.00000000E+00  1.60000000E+01  1.00800000E+00
  1.00800000E+00  0.00000000E+00  1.60000000E+01  1.00800000E+00  1.00800000E+00
  0.00000000E+00  1.60000000E+01  1.00800000E+00  1.00800000E+00  0.00000000E+00
  1.60000000E+01  1.00800000E+00  1.00800000E+00  0.00000000E+00  1.60000000E+01
  1.00800000E+00  1.00800000E+00  0.00000000E+00  1.60000000E+01  1.00800000E+00
  1.00800000E+00  0.00000000E+00  1.60000000E+01  1.00800000E+00  1.00800000E+00
  0.00000000E+00  1.60000000E+01  1.00800000E+00  1.00800000E+00  0.00000000E+00
  1.60000000E+01  1.00800000E+00  1.00800000E+00  0.00000000E+00  1.60000000E+01
  1.00800000E+00  1.00800000E+00  0.00000000E+00  1.60000000E+01  1.00800000E+00
  1.00800000E+00  0.00000000E+00  1.60000000E+01  1.00800000E+00  1.00800000E+00
  0.00000000E+00  1.60000000E+01  1.00800000E+00  1.00800000E+00  0.00000000E+00
  1.60000000E+01  1.00800000E+00  1.00800000E+00  0.00000000E+00  1.60000000E+01
  1.00800000E+00  1.00800000E+00  0.00000000E+00  1.60000000E+01  1.00800000E+00
  1.00800000E+00  0.00000000E+00  1.60000000E+01  1.00800000E+00  1.00800000E+00
  0.00000000E+00  1.60000000E+01  1.00800000E+00  1.00800000E+00  0.00000000E+00
  1.60000000E+01  1.00800000E+00  1.00800000E+00  0.00000000E+00  1.60000000E+01
  1.00800000E+00  1.00800000E+00  0.00000000E+00  1.60000000E+01  1.00800000E+00
  1.00800000E+00  0.00000000E+00  1.60000000E+01  1.00800000E+00  1.00800000E+00
  0.00000000E+00  1.60000000E+01  1.00800000E+00  1.00800000E+00  0.00000000E+00
  1.60000000E+01  1.00800000E+00  1.00800000E+00  0.00000000E+00  1.60000000E+01
  1.00800000E+00  1.00800000E+00  0.00000000E+00  1.60000000E+01  1.00800000E+00
  1.00800000E+00  0.00000000E+00  1.60000000E+01  1.00800000E+00  1.00800000E+00
  0.00000000E+00  1.60000000E+01  1.00800000E+00  1.00800000E+00  0.00000000E+00
  1.60000000E+01  1.00800000E+00  1.00800000E+00  0.00000000E+00  1.60000000E+01
  1.00800000E+00  1.00800000E+00  0.00000000E+00  1.60000000E+01  1.00800000E+00
  1.00800000E+00  0.00000000E+00  1.60000000E+01  1.00800000E+00  1.00800000E+00
  0.00000000E+00  1.60000000E+01  1.00800000E+00  1.00800000E+00  0.00000000E+00
  1.60000000E+01  1.00800000E+00  1.00800000E+00  0.00000000E+00  1.60000000E+01
  1.00800000E+00  1.00800000E+00  0.00000000E+00  1.60000000E+01  1.00800000E+00
  1.00800000E+00  0.00000000E+00  1.60000000E+01  1.00800000E+00  1.00800000E+00
  0.00000000E+00  1.60000000E+01  1.00800000E+00  1.00800000E+00  0.00000000E+00
  1.60000000E+01  1.00800000E+00  1.00800000E+00  0.00000000E+00  1.60000000E+01
  1.00800000E+00  1.00800000E+00  0.00000000E+00  1.60000000E+01  1.00800000E+00
  1.00800000E+00  0.00000000E+00  1.60000000E+01  1.00800000E+00  1.00800000E+00
  0.00000000E+00  1.60000000E+01  1.00800000E+00  1.00800000E+00  0.00000000E+00
  1.60000000E+01  1.00800000E+00  1.00800000E+00  0.00000000E+00  1.60000000E+01
  1.00800000E+00  1.00800000E+00  0.00000000E+00  1.60000000E+01  1.00800000E+00
  1.00800000E+00  0.00000000E+00  1.60000000E+01  1.00800000E+00  1.00800000E+00
  0.00000000E+00  1.60000000E+01  1.00800000E+00  1.00800000E+00  0.00000000E+00
  1.60000000E+01  1.00800000E+00  1.00800000E+00  0.00000000E+00  1.60000000E+01
  1.00800000E+00  1.00800000E+00  0.00000000E+00  1.60000000E+01  1.00800000E+00
  1.00800000E+00  0.00000000E+00  1.60000000E+01  1.00800000E+00  1.00800000E+00
  0.00000000E+00  1.60000000E+01  1.00800000E+00  1.00800000E+00  0.00000000E+00
  1.60000000E+01  1.00800000E+00  1.00800000E+00  0.00000000E+00  1.60000000E+01
  1.00800000E+00  1.00800000E+00  0.00000000E+00  1.60000000E+01  1.00800000E+00
  1.00800000E+00  0.00000000E+00  1.60000000E+01  1.00800000E+00  1.00800000E+00
  0.00000000E+00  1.60000000E+01  1.00800000E+00  1.00800000E+00  0.00000000E+00
  1.60000000E+01  1.00800000E+00  1.00800000E+00  0.00000000E+00  1.60000000E+01
  1.00800000E+00  1.00800000E+00  0.00000000E+00  1.60000000E+01  1.00800000E+00
  1.00800000E+00  0.00000000E+00  1.60000000E+01  1.00800000E+00  1.00800000E+00
  0.00000000E+00  1.60000000E+01  1.00800000E+00  1.00800000E+00  0.00000000E+00
  1.60000000E+01  1.00800000E+00  1.00800000E+00  0.00000000E+00  1.60000000E+01
  1.00800000E+00  1.00800000E+00  0.00000000E+00  1.60000000E+01  1.00800000E+00
  1.00800000E+00  0.00000000E+00  1.60000000E+01  1.00800000E+00  1.00800000E+00
  0.00000000E+00  1.60000000E+01  1.00800000E+00  1.00800000E+00  0.00000000E+00
  1.60000000E+01  1.00800000E+00  1.00800000E+00  0.00000000E+00  1.60000000E+01
  1.00800000E+00  1.00800000E+00  0.00000000E+00  1.60000000E+01  1.00800000E+00
  1.00800000E+00  0.00000000E+00  1.60000000E+01  1.00800000E+00  1.00800000E+00
  0.00000000E+00  1.60000000E+01  1.00800000E+00  1.00800000E+00  0.00000000E+00
  1.60000000E+01  1.00800000E+00  1.00800000E+00  0.00000000E+00  1.60000000E+01
  1.00800000E+00  1.00800000E+00  0.00000000E+00  1.60000000E+01  1.00800000E+00
  1.00800000E+00  0.00000000E+00  1.60000000E+01  1.00800000E+00  1.00800000E+00
  0.00000000E+00  1.60000000E+01  1.00800000E+00  1.00800000E+00  0.00000000E+00
  1.60000000E+01  1.00800000E+00  1.00800000E+00  0.00000000E+00  1.60000000E+01
  1.00800000E+00  1.00800000E+00  0.00000000E+00  1.60000000E+01  1.00800000E+00
  1.00800000E+00  0.00000000E+00  1.60000000E+01  1.00800000E+00  1.00800000E+00
  0.00000000E+00  1.60000000E+01  1.00800000E+00  1.00800000E+00  0.00000000E+00
  1.60000000E+01  1.00800000E+00  1.00800000E+00  0.00000000E+00  1.60000000E+01
  1.00800000E+00  1.00800000E+00  0.00000000E+00  1.60000000E+01  1.00800000E+00
  1.00800000E+00  0.00000000E+00  1.60000000E+01  1.00800000E+00  1.00800000E+00
  0.00000000E+00  1.60000000E+01  1.00800000E+00  1.00800000E+00  0.00000000E+00
  1.60000000E+01  1.00800000E+00  1.00800000E+00  0.00000000E+00  1.60000000E+01
  1.00800000E+00  1.00800000E+00  0.00000000E+00  1.60000000E+01  1.00800000E+00
  1.00800000E+00  0.00000000E+00  1.60000000E+01  1.00800000E+00  1.00800000E+00
  0.00000000E+00  1.60000000E+01  1.00800000E+00  1.00800000E+00  0.00000000E+00
  1.60000000E+01  1.00800000E+00  1.00800000E+00  0.00000000E+00  1.60000000E+01
  1.00800000E+00  1.00800000E+00  0.00000000E+00  1.60000000E+01  1.00800000E+00
  1.00800000E+00  0.00000000E+00  1.60000000E+01  1.00800000E+00  1.00800000E+00
  0.00000000E+00  1.60000000E+01  1.00800000E+00  1.00800000E+00  0.00000000E+00
  1.60000000E+01  1.00800000E+00  1.00800000E+00  0.00000000E+00  1.60000000E+01
  1.00800000E+00  1.00800000E+00  0.00000000E+00  1.60000000E+01  1.00800000E+00
  1.00800000E+00  0.00000000E+00  1.60000000E+01  1.00800000E+00  1.00800000E+00
  0.00000000E+00  1.60000000E+01  1.00800000E+00  1.00800000E+00  0.00000000E+00
  1.60000000E+01  1.00800000E+00  1.00800000E+00  0.00000000E+00  1.60000000E+01
  1.00800000E+00  1.00800000E+00  0.00000000E+00  1.60000000E+01  1.00800000E+00
  1.00800000E+00  0.00000000E+00  1.60000000E+01  1.00800000E+00  1.00800000E+00
  0.00000000E+00  1.60000000E+01  1.00800000E+00  1.00800000E+00  0.00000000E+00
  1.60000000E+01  1.00800000E+00  1.00800000E+00  0.00000000E+00  1.60000000E+01
  1.00800000E+00  1.00800000E+00  0.00000000E+00  1.60000000E+01  1.00800000E+00
  1.00800000E+00  0.00000000E+00  1.60000000E+01  1.00800000E+00  1.00800000E+00
  0.00000000E+00  1.60000000E+01  1.00800000E+00  1.00800000E+00  0.00000000E+00
  1.60000000E+01  1.00800000E+00  1.00800000E+00  0.00000000E+00  1.60000000E+01
  1.00800000E+00  1.00800000E+00  0.00000000E+00  1.60000000E+01  1.00800000E+00
  1.00800000E+00  0.00000000E+00  1.60000000E+01  1.00800000E+00  1.00800000E+00
  0.00000000E+00  1.60000000E+01  1.00800000E+00  1.00800000E+00  0.00000000E+00
  1.60000000E+01  1.00800000E+00  1.00800000E+00  0.00000000E+00  1.60000000E+01
  1.00800000E+00  1.00800000E+00  0.00000000E+00  1.60000000E+01  1.00800000E+00
  1.00800000E+00  0.00000000E+00  1.60000000E+01  1.00800000E+00  1.00800000E+00
  0.00000000E+00  1.60000000E+01  1.00800000E+00  1.00800000E+00  0.00000000E+00
  1.60000000E+01  1.00800000E+00  1.00800000E+00  0.00000000E+00  1.60000000E+01
  1.00800000E+00  1.00800000E+00  0.00000000E+00  1.60000000E+01  1.00800000E+00
  1.00800000E+00  0.00000000E+00  1.60000000E+01  1.00800000E+00  1.00800000E+00
  0.00000000E+00  1.60000000E+01  1.00800000E+00  1.00800000E+00  0.00000000E+00
  1.60000000E+01  1.00800000E+00  1.00800000E+00  0.00000000E+00  1.60000000E+01
  1.00800000E+00  1.00800000E+00  0.00000000E+00  1.60000000E+01  1.00800000E+00
  1.00800000E+00  0.00000000E+00  1.60000000E+01  1.00800000E+00  1.00800000E+00
  0.00000000E+00  1.60000000E+01  1.00800000E+00  1.00800000E+00  0.00000000E+00
  1.60000000E+01  1.00800000E+00  1.00800000E+00  0.00000000E+00  1.60000000E+01
  1.00800000E+00  1.00800000E+00  0.00000000E+00  1.60000000E+01  1.00800000E+00
  1.00800000E+00  0.00000000E+00  1.60000000E+01  1.00800000E+00  1.00800000E+00
  0.00000000E+00  1.60000000E+01  1.00800000E+00  1.00800000E+00  0.00000000E+00
  1.60000000E+01  1.00800000E+00  1.00800000E+00  0.00000000E+00  1.60000000E+01
  1.00800000E+00  1.00800000E+00  0.00000000E+00  1.60000000E+01  1.00800000E+00
  1.00800000E+00  0.00000000E+00  1.60000000E+01  1.00800000E+00  1.00800000E+00
  0.00000000E+00  1.60000000E+01  1.00800000E+00  1.00800000E+00  0.00000000E+00
  1.60000000E+01  1.00800000E+00  1.00800000E+00  0.00000000E+00  1.60000000E+01
  1.00800000E+00  1.00800000E+00  0.00000000E+00  1.60000000E+01  1.00800000E+00
  1.00800000E+00  0.00000000E+00  1.60000000E+01  1.00800000E+00  1.00800000E+00
  0.00000000E+00  1.60000000E+01  1.00800000E+00  1.00800000E+00  0.00000000E+00
  1.60000000E+01  1.00800000E+00  1.00800000E+00  0.00000000E+00  1.60000000E+01
  1.00800000E+00  1.00800000E+00  0.00000000E+00  1.60000000E+01  1.00800000E+00
  1.00800000E+00  0.00000000E+00  1.60000000E+01  1.00800000E+00  1.00800000E+00
  0.00000000E+00  1.60000000E+01  1.00800000E+00  1.00800000E+00  0.00000000E+00
  1.60000000E+01  1.00800000E+00  1.00800000E+00  0.00000000E+00  1.60000000E+01
  1.00800000E+00  1.00800000E+00  0.00000000E+00  1.60000000E+01  1.00800000E+00
  1.00800000E+00  0.00000000E+00  1.60000000E+01  1.00800000E+00  1.00800000E+00
  0.00000000E+00  1.60000000E+01  1.00800000E+00  1.00800000E+00  0.00000000E+00
  1.60000000E+01  1.00800000E+00  1.00800000E+00  0.00000000E+00  1.60000000E+01
  1.00800000E+00  1.00800000E+00  0.00000000E+00  1.60000000E+01  1.00800000E+00
  1.00800000E+00  0.00000000E+00  1.60000000E+01  1.00800000E+00  1.00800000E+00
  0.00000000E+00  1.60000000E+01  1.00800000E+00  1.00800000E+00  0.00000000E+00
  1.60000000E+01  1.00800000E+00  1.00800000E+00  0.00000000E+00  1.60000000E+01
  1.00800000E+00  1.00800000E+00  0.00000000E+00  1.60000000E+01  1.00800000E+00
  1.00800000E+00  0.00000000E+00  1.60000000E+01  1.00800000E+00  1.00800000E+00
  0.00000000E+00  1.60000000E+01  1.00800000E+00  1.00800000E+00  0.00000000E+00
  1.60000000E+01  1.00800000E+00  1.00800000E+00  0.00000000E+00  1.60000000E+01
  1.00800000E+00  1.00800000E+00  0.00000000E+00  1.60000000E+01  1.00800000E+00
  1.00800000E+00  0.00000000E+00  1.60000000E+01  1.00800000E+00  1.00800000E+00
  0.00000000E+00  1.60000000E+01  1.00800000E+00  1.00800000E+00  0.00000000E+00
  1.60000000E+01  1.00800000E+00  1.00800000E+00  0.00000000E+00  1.60000000E+01
  1.00800000E+00  1.00800000E+00  0.00000000E+00  1.60000000E+01  1.00800000E+00
  1.00800000E+00  0.00000000E+00  1.60000000E+01  1.00800000E+00  1.00800000E+00
  0.00000000E+00  1.60000000E+01  1.00800000E+00  1.00800000E+00  0.00000000E+00
  1.60000000E+01  1.00800000E+00  1.00800000E+00  0.00000000E+00  1.60000000E+01
  1.00800000E+00  1.00800000E+00  0.00000000E+00  1.60000000E+01  1.00800000E+00
  1.00800000E+00  0.00000000E+00  1.60000000E+01  1.00800000E+00  1.00800000E+00
  0.00000000E+00  1.60000000E+01  1.00800000E+00  1.00800000E+00  0.00000000E+00
  1.60000000E+01  1.00800000E+00  1.00800000E+00  0.00000000E+00  1.60000000E+01
  1.00800000E+00  1.00800000E+00  0.00000000E+00  1.60000000E+01  1.00800000E+00
  1.00800000E+00  0.00000000E+00  1.60000000E+01  1.00800000E+00  1.00800000E+00
  0.00000000E+00  1.60000000E+01  1.00800000E+00  1.00800000E+00  0.00000000E+00
  1.60000000E+01  1.00800000E+00  1.00800000E+00  0.00000000E+00  1.60000000E+01
  1.00800000E+00  1.00800000E+00  0.00000000E+00  1.60000000E+01  1.00800000E+00
  1.00800000E+00  0.00000000E+00  1.60000000E+01  1.00800000E+00  1.00800000E+00
  0.00000000E+00  1.60000000E+01  1.00800000E+00  1.00800000E+00  0.00000000E+00
  1.60000000E+01  1.00800000E+00  1.00800000E+00  0.00000000E+00  1.60000000E+01
  1.00800000E+00  1.00800000E+00  0.00000000E+00  1.60000000E+01  1.00800000E+00
  1.00800000E+00  0.00000000E+00  1.60000000E+01  1.00800000E+00  1.00800000E+00
  0.00000000E+00  1.60000000E+01  1.00800000E+00  1.00800000E+00  0.00000000E+00
  1.60000000E+01  1.00800000E+00  1.00800000E+00  0.00000000E+00  1.60000000E+01
  1.00800000E+00  1.00800000E+00  0.00000000E+00  1.60000000E+01  1.00800000E+00
  1.00800000E+00  0.00000000E+00  1.60000000E+01  1.00800000E+00  1.00800000E+00
  0.00000000E+00  1.60000000E+01  1.00800000E+00  1.00800000E+00  0.00000000E+00
  1.60000000E+01  1.00800000E+00  1.00800000E+00  0.00000000E+00  1.60000000E+01
  1.00800000E+00  1.00800000E+00  0.00000000E+00  1.60000000E+01  1.00800000E+00
  1.00800000E+00  0.00000000E+00  1.60000000E+01  1.00800000E+00  1.00800000E+00
  0.00000000E+00  1.60000000E+01  1.00800000E+00  1.00800000E+00  0.00000000E+00
  1.60000000E+01  1.00800000E+00  1.00800000E+00  0.00000000E+00  1.60000000E+01
  1.00800000E+00  1.00800000E+00  0.00000000E+00  1.60000000E+01  1.00800000E+00
  1.00800000E+00  0.00000000E+00  1.60000000E+01  1.00800000E+00  1.00800000E+00
  0.00000000E+00  1.60000000E+01  1.00800000E+00  1.00800000E+00  0.00000000E+00
  1.60000000E+01  1.00800000E+00  1.00800000E+00  0.00000000E+00  1.60000000E+01
  1.00800000E+00  1.00800000E+00  0.00000000E+00  1.60000000E+01  1.00800000E+00
  1.00800000E+00  0.00000000E+00  1.60000000E+01  1.00800000E+00  1.00800000E+00
  0.00000000E+00  1.60000000E+01  1.00800000E+00  1.00800000E+00  0.00000000E+00
  1.60000000E+01  1.00800000E+00  1.00800000E+00  0.00000000E+00  1.60000000E+01
  1.00800000E+00  1.00800000E+00  0.00000000E+00  1.60000000E+01  1.00800000E+00
  1.00800000E+00  0.00000000E+00  1.60000000E+01  1.00800000E+00  1.00800000E+00
  0.00000000E+00  1.60000000E+01  1.00800000E+00  1.00800000E+00  0.00000000E+00
  1.60000000E+01  1.00800000E+00  1.00800000E+00  0.00000000E+00  1.60000000E+01
  1.00800000E+00  1.00800000E+00  0.00000000E+00  1.60000000E+01  1.00800000E+00
  1.00800000E+00  0.00000000E+00  1.60000000E+01  1.00800000E+00  1.00800000E+00
  0.00000000E+00  1.60000000E+01  1.00800000E+00  1.00800000E+00  0.00000000E+00
  1.60000000E+01  1.00800000E+00  1.00800000E+00  0.00000000E+00  1.60000000E+01
  1.00800000E+00  1.00800000E+00  0.00000000E+00  1.60000000E+01  1.00800000E+00
  1.00800000E+00  0.00000000E+00  1.60000000E+01  1.00800000E+00  1.00800000E+00
  0.00000000E+00  1.60000000E+01  1.00800000E+00  1.00800000E+00  0.00000000E+00
  1.60000000E+01  1.00800000E+00  1.00800000E+00  0.00000000E+00  1.60000000E+01
  1.00800000E+00  1.00800000E+00  0.00000000E+00  1.60000000E+01  1.00800000E+00
  1.00800000E+00  0.00000000E+00  1.60000000E+01  1.00800000E+00  1.00800000E+00
  0.00000000E+00  1.60000000E+01  1.00800000E+00  1.00800000E+00  0.00000000E+00
  1.60000000E+01  1.00800000E+00  1.00800000E+00  0.00000000E+00  1.60000000E+01
  1.00800000E+00  1.00800000E+00  0.00000000E+00  1.60000000E+01  1.00800000E+00
  1.00800000E+00  0.00000000E+00  1.60000000E+01  1.00800000E+00  1.00800000E+00
  0.00000000E+00  1.60000000E+01  1.00800000E+00  1.00800000E+00  0.00000000E+00
  1.60000000E+01  1.00800000E+00  1.00800000E+00  0.00000000E+00  1.60000000E+01
  1.00800000E+00  1.00800000E+00  0.00000000E+00  1.60000000E+01  1.00800000E+00
  1.00800000E+00  0.00000000E+00  1.60000000E+01  1.00800000E+00  1.00800000E+00
  0.00000000E+00  1.60000000E+01  1.00800000E+00  1.00800000E+00  0.00000000E+00
  1.60000000E+01  1.00800000E+00  1.00800000E+00  0.00000000E+00  1.60000000E+01
  1.00800000E+00  1.00800000E+00  0.00000000E+00  1.60000000E+01  1.00800000E+00
  1.00800000E+00  0.00000000E+00  1.60000000E+01  1.00800000E+00  1.00800000E+00
  0.00000000E+00  1.60000000E+01  1.00800000E+00  1.00800000E+00  0.00000000E+00
  1.60000000E+01  1.00800000E+00  1.00800000E+00  0.00000000E+00  1.60000000E+01
  1.00800000E+00  1.00800000E+00  0.00000000E+00  1.60000000E+01  1.00800000E+00
  1.00800000E+00  0.00000000E+00  1.60000000E+01  1.00800000E+00  1.00800000E+00
  0.00000000E+00  1.60000000E+01  1.00800000E+00  1.00800000E+00  0.00000000E+00
  1.60000000E+01  1.00800000E+00  1.00800000E+00  0.00000000E+00  1.60000000E+01
  1.00800000E+00  1.00800000E+00  0.00000000E+00  1.60000000E+01  1.00800000E+00
  1.00800000E+00  0.00000000E+00  1.60000000E+01  1.00800000E+00  1.00800000E+00
  0.00000000E+00  1.60000000E+01  1.00800000E+00  1.00800000E+00  0.00000000E+00
  1.60000000E+01  1.00800000E+00  1.00800000E+00  0.00000000E+00  1.60000000E+01
  1.00800000E+00  1.00800000E+00  0.00000000E+00  1.60000000E+01  1.00800000E+00
  1.00800000E+00  0.00000000E+00  1.60000000E+01  1.00800000E+00  1.00800000E+00
  0.00000000E+00  1.60000000E+01  1.00800000E+00  1.00800000E+00  0.00000000E+00
  1.60000000E+01  1.00800000E+00  1.00800000E+00  0.00000000E+00  1.60000000E+01
  1.00800000E+00  1.00800000E+00  0.00000000E+00  1.60000000E+01  1.00800000E+00
  1.00800000E+00  0.00000000E+00  1.60000000E+01  1.00800000E+00  1.00800000E+00
  0.00000000E+00  1.60000000E+01  1.00800000E+00  1.00800000E+00  0.00000000E+00
  1.60000000E+01  1.00800000E+00  1.00800000E+00  0.00000000E+00  1.60000000E+01
  1.00800000E+00  1.00800000E+00  0.00000000E+00  1.60000000E+01  1.00800000E+00
  1.00800000E+00  0.00000000E+00  1.60000000E+01  1.00800000E+00  1.00800000E+00
  0.00000000E+00  1.60000000E+01  1.00800000E+00  1.00800000E+00  0.00000000E+00
  1.60000000E+01  1.00800000E+00  1.00800000E+00  0.00000000E+00  1.60000000E+01
  1.00800000E+00  1.00800000E+00  0.00000000E+00  1.60000000E+01  1.00800000E+00
  1.00800000E+00  0.00000000E+00  1.60000000E+01  1.00800000E+00  1.00800000E+00
  0.00000000E+00  1.60000000E+01  1.00800000E+00  1.00800000E+00  0.00000000E+00
  1.60000000E+01  1.00800000E+00  1.00800000E+00  0.00000000E+00  1.60000000E+01
  1.00800000E+00  1.00800000E+00  0.00000000E+00  1.60000000E+01  1.00800000E+00
  1.00800000E+00  0.00000000E+00  1.60000000E+01  1.00800000E+00  1.00800000E+00
  0.00000000E+00  1.60000000E+01  1.00800000E+00  1.00800000E+00  0.00000000E+00
  1.60000000E+01  1.00800000E+00  1.00800000E+00  0.00000000E+00  1.60000000E+01
  1.00800000E+00  1.00800000E+00  0.00000000E+00  1.60000000E+01  1.00800000E+00
  1.00800000E+00  0.00000000E+00  1.60000000E+01  1.00800000E+00  1.00800000E+00
  0.00000000E+00  1.60000000E+01  1.00800000E+00  1.00800000E+00  0.00000000E+00
  1.60000000E+01  1.00800000E+00  1.00800000E+00  0.00000000E+00  1.60000000E+01
  1.00800000E+00  1.00800000E+00  0.00000000E+00  1.60000000E+01  1.00800000E+00
  1.00800000E+00  0.00000000E+00  1.60000000E+01  1.00800000E+00  1.00800000E+00
  0.00000000E+00  1.60000000E+01  1.00800000E+00  1.00800000E+00  0.00000000E+00
  1.60000000E+01  1.00800000E+00  1.00800000E+00  0.00000000E+00  1.60000000E+01
  1.00800000E+00  1.00800000E+00  0.00000000E+00  1.60000000E+01  1.00800000E+00
  1.00800000E+00  0.00000000E+00  1.60000000E+01  1.00800000E+00  1.00800000E+00
  0.00000000E+00  1.60000000E+01  1.00800000E+00  1.00800000E+00  0.00000000E+00
  1.60000000E+01  1.00800000E+00  1.00800000E+00  0.00000000E+00  1.60000000E+01
  1.00800000E+00  1.00800000E+00  0.00000000E+00  1.60000000E+01  1.00800000E+00
  1.00800000E+00  0.00000000E+00  1.60000000E+01  1.00800000E+00  1.00800000E+00
  0.00000000E+00  1.60000000E+01  1.00800000E+00  1.00800000E+00  0.00000000E+00
  1.60000000E+01  1.00800000E+00  1.00800000E+00  0.00000000E+00  1.60000000E+01
  1.00800000E+00  1.00800000E+00  0.00000000E+00  1.60000000E+01  1.00800000E+00
  1.00800000E+00  0.00000000E+00  1.60000000E+01  1.00800000E+00  1.00800000E+00
  0.00000000E+00  1.60000000E+01  1.00800000E+00  1.00800000E+00  0.00000000E+00
  1.60000000E+01  1.00800000E+00  1.00800000E+00  0.00000000E+00  1.60000000E+01
  1.00800000E+00  1.00800000E+00  0.00000000E+00  1.60000000E+01  1.00800000E+00
  1.00800000E+00  0.00000000E+00  1.60000000E+01  1.00800000E+00  1.00800000E+00
  0.00000000E+00  1.60000000E+01  1.00800000E+00  1.00800000E+00  0.00000000E+00
  1.60000000E+01  1.00800000E+00  1.00800000E+00  0.00000000E+00  1.60000000E+01
  1.00800000E+00  1.00800000E+00  0.00000000E+00  1.60000000E+01  1.00800000E+00
  1.00800000E+00  0.00000000E+00  1.60000000E+01  1.00800000E+00  1.00800000E+00
  0.00000000E+00  1.60000000E+01  1.00800000E+00  1.00800000E+00  0.00000000E+00
  1.60000000E+01  1.00800000E+00  1.00800000E+00  0.00000000E+00  1.60000000E+01
  1.00800000E+00  1.00800000E+00  0.00000000E+00  1.60000000E+01  1.00800000E+00
  1.00800000E+00  0.00000000E+00  1.60000000E+01  1.00800000E+00  1.00800000E+00
  0.00000000E+00  1.60000000E+01  1.00800000E+00  1.00800000E+00  0.00000000E+00
  1.60000000E+01  1.00800000E+00  1.00800000E+00  0.00000000E+00  1.60000000E+01
  1.00800000E+00  1.00800000E+00  0.00000000E+00  1.60000000E+01  1.00800000E+00
  1.00800000E+00  0.00000000E+00  1.60000000E+01  1.00800000E+00  1.00800000E+00
  0.00000000E+00  1.60000000E+01  1.00800000E+00  1.00800000E+00  0.00000000E+00
  1.60000000E+01  1.00800000E+00  1.00800000E+00  0.00000000E+00  1.60000000E+01
  1.00800000E+00  1.00800000E+00  0.00000000E+00  1.60000000E+01  1.00800000E+00
  1.00800000E+00  0.00000000E+00  1.60000000E+01  1.00800000E+00  1.00800000E+00
  0.00000000E+00  1.60000000E+01  1.00800000E+00  1.00800000E+00  0.00000000E+00
  1.60000000E+01  1.00800000E+00  1.00800000E+00  0.00000000E+00  1.60000000E+01
  1.00800000E+00  1.00800000E+00  0.00000000E+00  1.60000000E+01  1.00800000E+00
  1.00800000E+00  0.00000000E+00  1.60000000E+01  1.00800000E+00  1.00800000E+00
  0.00000000E+00  1.60000000E+01  1.00800000E+00  1.00800000E+00  0.00000000E+00
  1.60000000E+01  1.00800000E+00  1.00800000E+00  0.00000000E+00  1.60000000E+01
  1.00800000E+00  1.00800000E+00  0.00000000E+00  1.60000000E+01  1.00800000E+00
  1.00800000E+00  0.00000000E+00  1.60000000E+01  1.00800000E+00  1.00800000E+00
  0.00000000E+00  1.60000000E+01  1.00800000E+00  1.00800000E+00  0.00000000E+00
  1.60000000E+01  1.00800000E+00  1.00800000E+00  0.00000000E+00  1.60000000E+01
  1.00800000E+00  1.00800000E+00  0.00000000E+00  1.60000000E+01  1.00800000E+00
  1.00800000E+00  0.00000000E+00  1.60000000E+01  1.00800000E+00  1.00800000E+00
  0.00000000E+00  1.60000000E+01  1.00800000E+00  1.00800000E+00  0.00000000E+00
  1.60000000E+01  1.00800000E+00  1.00800000E+00  0.00000000E+00  1.60000000E+01
  1.00800000E+00  1.00800000E+00  0.00000000E+00  1.60000000E+01  1.00800000E+00
  1.00800000E+00  0.00000000E+00  1.60000000E+01  1.00800000E+00  1.00800000E+00
  0.00000000E+00  1.60000000E+01  1.00800000E+00  1.00800000E+00  0.00000000E+00
  1.60000000E+01  1.00800000E+00  1.00800000E+00  0.00000000E+00  1.60000000E+01
  1.00800000E+00  1.00800000E+00  0.00000000E+00  1.60000000E+01  1.00800000E+00
  1.00800000E+00  0.00000000E+00  1.60000000E+01  1.00800000E+00  1.00800000E+00
  0.00000000E+00  1.60000000E+01  1.00800000E+00  1.00800000E+00  0.00000000E+00
  1.60000000E+01  1.00800000E+00  1.00800000E+00  0.00000000E+00  1.60000000E+01
  1.00800000E+00  1.00800000E+00  0.00000000E+00  1.60000000E+01  1.00800000E+00
  1.00800000E+00  0.00000000E+00  1.60000000E+01  1.00800000E+00  1.00800000E+00
  0.00000000E+00  1.60000000E+01  1.00800000E+00  1.00800000E+00  0.00000000E+00
  1.60000000E+01  1.00800000E+00  1.00800000E+00  0.00000000E+00  1.60000000E+01
  1.00800000E+00  1.00800000E+00  0.00000000E+00  1.60000000E+01  1.00800000E+00
  1.00800000E+00  0.00000000E+00  1.60000000E+01  1.00800000E+00  1.00800000E+00
  0.00000000E+00  1.60000000E+01  1.00800000E+00  1.00800000E+00  0.00000000E+00
  1.60000000E+01  1.00800000E+00  1.00800000E+00  0.00000000E+00  1.60000000E+01
  1.00800000E+00  1.00800000E+00  0.00000000E+00  1.60000000E+01  1.00800000E+00
  1.00800000E+00  0.00000000E+00  1.60000000E+01  1.00800000E+00  1.00800000E+00
  0.00000000E+00  1.60000000E+01  1.00800000E+00  1.00800000E+00  0.00000000E+00
  1.60000000E+01  1.00800000E+00  1.00800000E+00  0.00000000E+00  1.60000000E+01
  1.00800000E+00  1.00800000E+00  0.00000000E+00  1.60000000E+01  1.00800000E+00
  1.00800000E+00  0.00000000E+00  1.60000000E+01  1.00800000E+00  1.00800000E+00
  0.00000000E+00  1.60000000E+01  1.00800000E+00  1.00800000E+00  0.00000000E+00
  1.60000000E+01  1.00800000E+00  1.00800000E+00  0.00000000E+00  1.60000000E+01
  1.00800000E+00  1.00800000E+00  0.00000000E+00  1.60000000E+01  1.00800000E+00
  1.00800000E+00  0.00000000E+00  1.60000000E+01  1.00800000E+00  1.00800000E+00
  0.00000000E+00  1.60000000E+01  1.00800000E+00  1.00800000E+00  0.00000000E+00
  1.60000000E+01  1.00800000E+00  1.00800000E+00  0.00000000E+00  1.60000000E+01
  1.00800000E+00  1.00800000E+00  0.00000000E+00  1.60000000E+01  1.00800000E+00
  1.00800000E+00  0.00000000E+00  1.60000000E+01  1.00800000E+00  1.00800000E+00
  0.00000000E+00  1.60000000E+01  1.00800000E+00  1.00800000E+00  0.00000000E+00
  1.60000000E+01  1.00800000E+00  1.00800000E+00  0.00000000E+00  1.60000000E+01
  1.00800000E+00  1.00800000E+00  0.00000000E+00  1.60000000E+01  1.00800000E+00
  1.00800000E+00  0.00000000E+00  1.60000000E+01  1.00800000E+00  1.00800000E+00
  0.00000000E+00  1.60000000E+01  1.00800000E+00  1.00800000E+00  0.00000000E+00
  1.60000000E+01  1.00800000E+00  1.00800000E+00  0.00000000E+00  1.60000000E+01
  1.00800000E+00  1.00800000E+00  0.00000000E+00  1.60000000E+01  1.00800000E+00
  1.00800000E+00  0.00000000E+00  1.60000000E+01  1.00800000E+00  1.00800000E+00
  0.00000000E+00  1.60000000E+01  1.00800000E+00  1.00800000E+00  0.00000000E+00
  1.60000000E+01  1.00800000E+00  1.00800000E+00  0.00000000E+00  1.60000000E+01
  1.00800000E+00  1.00800000E+00  0.00000000E+00  1.60000000E+01  1.00800000E+00
  1.00800000E+00  0.00000000E+00  1.60000000E+01  1.00800000E+00  1.00800000E+00
  0.00000000E+00  1.60000000E+01  1.00800000E+00  1.00800000E+00  0.00000000E+00
  1.60000000E+01  1.00800000E+00  1.00800000E+00  0.00000000E+00  1.60000000E+01
  1.00800000E+00  1.00800000E+00  0.00000000E+00  1.60000000E+01  1.00800000E+00
  1.00800000E+00  0.00000000E+00  1.60000000E+01  1.00800000E+00  1.00800000E+00
  0.00000000E+00  1.60000000E+01  1.00800000E+00  1.00800000E+00  0.00000000E+00
  1.60000000E+01  1.00800000E+00  1.00800000E+00  0.00000000E+00  1.60000000E+01
  1.00800000E+00  1.00800000E+00  0.00000000E+00  1.60000000E+01  1.00800000E+00
  1.00800000E+00  0.00000000E+00  1.60000000E+01  1.00800000E+00  1.00800000E+00
  0.00000000E+00  1.60000000E+01  1.00800000E+00  1.00800000E+00  0.00000000E+00
  1.60000000E+01  1.00800000E+00  1.00800000E+00  0.00000000E+00  1.60000000E+01
  1.00800000E+00  1.00800000E+00  0.00000000E+00  1.60000000E+01  1.00800000E+00
  1.00800000E+00  0.00000000E+00  1.60000000E+01  1.00800000E+00  1.00800000E+00
  0.00000000E+00  1.60000000E+01  1.00800000E+00  1.00800000E+00  0.00000000E+00
  1.60000000E+01  1.00800000E+00  1.00800000E+00  0.00000000E+00  1.60000000E+01
  1.00800000E+00  1.00800000E+00  0.00000000E+00  1.60000000E+01  1.00800000E+00
  1.00800000E+00  0.00000000E+00  1.60000000E+01  1.00800000E+00  1.00800000E+00
  0.00000000E+00  1.60000000E+01  1.00800000E+00  1.00800000E+00  0.00000000E+00
  1.60000000E+01  1.00800000E+00  1.00800000E+00  0.00000000E+00  1.60000000E+01
  1.00800000E+00  1.00800000E+00  0.00000000E+00  1.60000000E+01  1.00800000E+00
  1.00800000E+00  0.00000000E+00  1.60000000E+01  1.00800000E+00  1.00800000E+00
  0.00000000E+00  1.60000000E+01  1.00800000E+00  1.00800000E+00  0.00000000E+00
  1.60000000E+01  1.00800000E+00  1.00800000E+00  0.00000000E+00  1.60000000E+01
  1.00800000E+00  1.00800000E+00  0.00000000E+00  1.60000000E+01  1.00800000E+00
  1.00800000E+00  0.00000000E+00  1.60000000E+01  1.00800000E+00  1.00800000E+00
  0.00000000E+00  1.60000000E+01  1.00800000E+00  1.00800000E+00  0.00000000E+00
  1.60000000E+01  1.00800000E+00  1.00800000E+00  0.00000000E+00  1.60000000E+01
  1.00800000E+00  1.00800000E+00  0.00000000E+00  1.60000000E+01  1.00800000E+00
  1.00800000E+00  0.00000000E+00  1.60000000E+01  1.00800000E+00  1.00800000E+00
  0.00000000E+00  1.60000000E+01  1.00800000E+00  1.00800000E+00  0.00000000E+00
  1.60000000E+01  1.00800000E+00  1.00800000E+00  0.00000000E+00  1.60000000E+01
  1.00800000E+00  1.00800000E+00  0.00000000E+00  1.60000000E+01  1.00800000E+00
  1.00800000E+00  0.00000000E+00  1.60000000E+01  1.00800000E+00  1.00800000E+00
  0.00000000E+00  1.60000000E+01  1.00800000E+00  1.00800000E+00  0.00000000E+00
  1.60000000E+01  1.00800000E+00  1.00800000E+00  0.00000000E+00  1.60000000E+01
  1.00800000E+00  1.00800000E+00  0.00000000E+00  1.60000000E+01  1.00800000E+00
  1.00800000E+00  0.00000000E+00  1.60000000E+01  1.00800000E+00  1.00800000E+00
  0.00000000E+00  1.60000000E+01  1.00800000E+00  1.00800000E+00  0.00000000E+00
  1.60000000E+01  1.00800000E+00  1.00800000E+00  0.00000000E+00  1.60000000E+01
  1.00800000E+00  1.00800000E+00  0.00000000E+00  1.60000000E+01  1.00800000E+00
  1.00800000E+00  0.00000000E+00  1.60000000E+01  1.00800000E+00  1.00800000E+00
  0.00000000E+00  1.60000000E+01  1.00800000E+00  1.00800000E+00  0.00000000E+00
  1.60000000E+01  1.00800000E+00  1.00800000E+00  0.00000000E+00  1.60000000E+01
  1.00800000E+00  1.00800000E+00  0.00000000E+00  1.60000000E+01  1.00800000E+00
  1.00800000E+00  0.00000000E+00  1.60000000E+01  1.00800000E+00  1.00800000E+00
  0.00000000E+00  1.60000000E+01  1.00800000E+00  1.00800000E+00  0.00000000E+00
  1.60000000E+01  1.00800000E+00  1.00800000E+00  0.00000000E+00  1.60000000E+01
  1.00800000E+00  1.00800000E+00  0.00000000E+00  1.60000000E+01  1.00800000E+00
  1.00800000E+00  0.00000000E+00  1.60000000E+01  1.00800000E+00  1.00800000E+00
  0.00000000E+00  1.60000000E+01  1.00800000E+00  1.00800000E+00  0.00000000E+00
  1.60000000E+01  1.00800000E+00  1.00800000E+00  0.00000000E+00  1.60000000E+01
  1.00800000E+00  1.00800000E+00  0.00000000E+00  1.60000000E+01  1.00800000E+00
  1.00800000E+00  0.00000000E+00  1.60000000E+01  1.00800000E+00  1.00800000E+00
  0.00000000E+00  1.60000000E+01  1.00800000E+00  1.00800000E+00  0.00000000E+00
  1.60000000E+01  1.00800000E+00  1.00800000E+00  0.00000000E+00  1.60000000E+01
  1.00800000E+00  1.00800000E+00  0.00000000E+00  1.60000000E+01  1.00800000E+00
  1.00800000E+00  0.00000000E+00  1.60000000E+01  1.00800000E+00  1.00800000E+00
  0.00000000E+00  1.60000000E+01  1.00800000E+00  1.00800000E+00  0.00000000E+00
  1.60000000E+01  1.00800000E+00  1.00800000E+00  0.00000000E+00  1.60000000E+01
  1.00800000E+00  1.00800000E+00  0.00000000E+00  1.60000000E+01  1.00800000E+00
  1.00800000E+00  0.00000000E+00  1.60000000E+01  1.00800000E+00  1.00800000E+00
  0.00000000E+00  1.60000000E+01  1.00800000E+00  1.00800000E+00  0.00000000E+00
  1.60000000E+01  1.00800000E+00  1.00800000E+00  0.00000000E+00  1.60000000E+01
  1.00800000E+00  1.00800000E+00  0.00000000E+00  1.60000000E+01  1.00800000E+00
  1.00800000E+00  0.00000000E+00  1.60000000E+01  1.00800000E+00  1.00800000E+00
  0.00000000E+00  1.60000000E+01  1.00800000E+00  1.00800000E+00  0.00000000E+00
  1.60000000E+01  1.00800000E+00  1.00800000E+00  0.00000000E+00  1.60000000E+01
  1.00800000E+00  1.00800000E+00  0.00000000E+00  1.60000000E+01  1.00800000E+00
  1.00800000E+00  0.00000000E+00  1.60000000E+01  1.00800000E+00  1.00800000E+00
  0.00000000E+00  1.60000000E+01  1.00800000E+00  1.00800000E+00  0.00000000E+00
  1.60000000E+01  1.00800000E+00  1.00800000E+00  0.00000000E+00  1.60000000E+01
  1.00800000E+00  1.00800000E+00  0.00000000E+00  1.60000000E+01  1.00800000E+00
  1.00800000E+00  0.00000000E+00  1.60000000E+01  1.00800000E+00  1.00800000E+00
  0.00000000E+00  1.60000000E+01  1.00800000E+00  1.00800000E+00  0.00000000E+00
  1.60000000E+01  1.00800000E+00  1.00800000E+00  0.00000000E+00  1.60000000E+01
  1.00800000E+00  1.00800000E+00  0.00000000E+00  1.60000000E+01  1.00800000E+00
  1.00800000E+00  0.00000000E+00  1.60000000E+01  1.00800000E+00  1.00800000E+00
  0.00000000E+00  1.60000000E+01  1.00800000E+00  1.00800000E+00  0.00000000E+00
  1.60000000E+01  1.00800000E+00  1.00800000E+00  0.00000000E+00  1.60000000E+01
  1.00800000E+00  1.00800000E+00  0.00000000E+00  1.60000000E+01  1.00800000E+00
  1.00800000E+00  0.00000000E+00  1.60000000E+01  1.00800000E+00  1.00800000E+00
  0.00000000E+00  1.60000000E+01  1.00800000E+00  1.00800000E+00  0.00000000E+00
  1.60000000E+01  1.00800000E+00  1.00800000E+00  0.00000000E+00  1.60000000E+01
  1.00800000E+00  1.00800000E+00  0.00000000E+00  1.60000000E+01  1.00800000E+00
  1.00800000E+00  0.00000000E+00  1.60000000E+01  1.00800000E+00  1.00800000E+00
  0.00000000E+00  1.60000000E+01  1.00800000E+00  1.00800000E+00  0.00000000E+00
  1.60000000E+01  1.00800000E+00  1.00800000E+00  0.00000000E+00  1.60000000E+01
  1.00800000E+00  1.00800000E+00  0.00000000E+00  1.60000000E+01  1.00800000E+00
  1.00800000E+00  0.00000000E+00  1.60000000E+01  1.00800000E+00  1.00800000E+00
  0.00000000E+00  1.60000000E+01  1.00800000E+00  1.00800000E+00  0.00000000E+00
  1.60000000E+01  1.00800000E+00  1.00800000E+00  0.00000000E+00  1.60000000E+01
  1.00800000E+00  1.00800000E+00  0.00000000E+00  1.60000000E+01  1.00800000E+00
  1.00800000E+00  0.00000000E+00  1.60000000E+01  1.00800000E+00  1.00800000E+00
  0.00000000E+00  1.60000000E+01  1.00800000E+00  1.00800000E+00  0.00000000E+00
  1.60000000E+01  1.00800000E+00  1.00800000E+00  0.00000000E+00  1.60000000E+01
  1.00800000E+00  1.00800000E+00  0.00000000E+00  1.60000000E+01  1.00800000E+00
  1.00800000E+00  0.00000000E+00  1.60000000E+01  1.00800000E+00  1.00800000E+00
  0.00000000E+00  1.60000000E+01  1.00800000E+00  1.00800000E+00  0.00000000E+00
  1.60000000E+01  1.00800000E+00  1.00800000E+00  0.00000000E+00  1.60000000E+01
  1.00800000E+00  1.00800000E+00  0.00000000E+00  1.60000000E+01  1.00800000E+00
  1.00800000E+00  0.00000000E+00  1.60000000E+01  1.00800000E+00  1.00800000E+00
  0.00000000E+00  1.60000000E+01  1.00800000E+00  1.00800000E+00  0.00000000E+00
  1.60000000E+01  1.00800000E+00  1.00800000E+00  0.00000000E+00  1.60000000E+01
  1.00800000E+00  1.00800000E+00  0.00000000E+00  1.60000000E+01  1.00800000E+00
  1.00800000E+00  0.00000000E+00  1.60000000E+01  1.00800000E+00  1.00800000E+00
  0.00000000E+00  1.60000000E+01  1.00800000E+00  1.00800000E+00  0.00000000E+00
  1.60000000E+01  1.00800000E+00  1.00800000E+00  0.00000000E+00  1.60000000E+01
  1.00800000E+00  1.00800000E+00  0.00000000E+00  1.60000000E+01  1.00800000E+00
  1.00800000E+00  0.00000000E+00  1.60000000E+01  1.00800000E+00  1.00800000E+00
  0.00000000E+00  1.60000000E+01  1.00800000E+00  1.00800000E+00  0.00000000E+00
  1.60000000E+01  1.00800000E+00  1.00800000E+00  0.00000000E+00  1.60000000E+01
  1.00800000E+00  1.00800000E+00  0.00000000E+00  1.60000000E+01  1.00800000E+00
  1.00800000E+00  0.00000000E+00  1.60000000E+01  1.00800000E+00  1.00800000E+00
  0.00000000E+00  1.60000000E+01  1.00800000E+00  1.00800000E+00  0.00000000E+00
  1.60000000E+01  1.00800000E+00  1.00800000E+00  0.00000000E+00  1.60000000E+01
  1.00800000E+00  1.00800000E+00  0.00000000E+00  1.60000000E+01  1.00800000E+00
  1.00800000E+00  0.00000000E+00  1.60000000E+01  1.00800000E+00  1.00800000E+00
  0.00000000E+00  1.60000000E+01  1.00800000E+00  1.00800000E+00  0.00000000E+00
  1.60000000E+01  1.00800000E+00  1.00800000E+00  0.00000000E+00  1.60000000E+01
  1.00800000E+00  1.00800000E+00  0.00000000E+00  1.60000000E+01  1.00800000E+00
  1.00800000E+00  0.00000000E+00  1.60000000E+01  1.00800000E+00  1.00800000E+00
  0.00000000E+00  1.60000000E+01  1.00800000E+00  1.00800000E+00  0.00000000E+00
  1.60000000E+01  1.00800000E+00  1.00800000E+00  0.00000000E+00  1.60000000E+01
  1.00800000E+00  1.00800000E+00  0.00000000E+00  1.60000000E+01  1.00800000E+00
  1.00800000E+00  0.00000000E+00  1.60000000E+01  1.00800000E+00  1.00800000E+00
  0.00000000E+00  1.60000000E+01  1.00800000E+00  1.00800000E+00  0.00000000E+00
  1.60000000E+01  1.00800000E+00  1.00800000E+00  0.00000000E+00  1.60000000E+01
  1.00800000E+00  1.00800000E+00  0.00000000E+00  1.60000000E+01  1.00800000E+00
  1.00800000E+00  0.00000000E+00  1.60000000E+01  1.00800000E+00  1.00800000E+00
  0.00000000E+00  1.60000000E+01  1.00800000E+00  1.00800000E+00  0.00000000E+00
  1.60000000E+01  1.00800000E+00  1.00800000E+00  0.00000000E+00  1.60000000E+01
  1.00800000E+00  1.00800000E+00  0.00000000E+00  1.60000000E+01  1.00800000E+00
  1.00800000E+00  0.00000000E+00  1.60000000E+01  1.00800000E+00  1.00800000E+00
  0.00000000E+00  1.60000000E+01  1.00800000E+00  1.00800000E+00  0.00000000E+00
  1.60000000E+01  1.00800000E+00  1.00800000E+00  0.00000000E+00  1.60000000E+01
  1.00800000E+00  1.00800000E+00  0.00000000E+00  1.60000000E+01  1.00800000E+00
  1.00800000E+00  0.00000000E+00  1.60000000E+01  1.00800000E+00  1.00800000E+00
  0.00000000E+00  1.60000000E+01  1.00800000E+00  1.00800000E+00  0.00000000E+00
  1.60000000E+01  1.00800000E+00  1.00800000E+00  0.00000000E+00  1.60000000E+01
  1.00800000E+00  1.00800000E+00  0.00000000E+00  1.60000000E+01  1.00800000E+00
  1.00800000E+00  0.00000000E+00  1.60000000E+01  1.00800000E+00  1.00800000E+00
  0.00000000E+00  1.60000000E+01  1.00800000E+00  1.00800000E+00  0.00000000E+00
  1.60000000E+01  1.00800000E+00  1.00800000E+00  0.00000000E+00  1.60000000E+01
  1.00800000E+00  1.00800000E+00  0.00000000E+00  1.60000000E+01  1.00800000E+00
  1.00800000E+00  0.00000000E+00  1.60000000E+01  1.00800000E+00  1.00800000E+00
  0.00000000E+00  1.60000000E+01  1.00800000E+00  1.00800000E+00  0.00000000E+00
  1.60000000E+01  1.00800000E+00  1.00800000E+00  0.00000000E+00  1.60000000E+01
  1.00800000E+00  1.00800000E+00  0.00000000E+00  1.60000000E+01  1.00800000E+00
  1.00800000E+00  0.00000000E+00  1.60000000E+01  1.00800000E+00  1.00800000E+00
  0.00000000E+00  1.60000000E+01  1.00800000E+00  1.00800000E+00  0.00000000E+00
  1.60000000E+01  1.00800000E+00  1.00800000E+00  0.00000000E+00  1.60000000E+01
  1.00800000E+00  1.00800000E+00  0.00000000E+00  1.60000000E+01  1.00800000E+00
  1.00800000E+00  0.00000000E+00  1.60000000E+01  1.00800000E+00  1.00800000E+00
  0.00000000E+00  1.60000000E+01  1.00800000E+00  1.00800000E+00  0.00000000E+00
  1.60000000E+01  1.00800000E+00  1.00800000E+00  0.00000000E+00  1.60000000E+01
  1.00800000E+00  1.00800000E+00  0.00000000E+00  1.60000000E+01  1.00800000E+00
  1.00800000E+00  0.00000000E+00  1.60000000E+01  1.00800000E+00  1.00800000E+00
  0.00000000E+00  1.60000000E+01  1.00800000E+00  1.00800000E+00  0.00000000E+00
  1.60000000E+01  1.00800000E+00  1.00800000E+00  0.00000000E+00  1.60000000E+01
  1.00800000E+00  1.00800000E+00  0.00000000E+00  1.60000000E+01  1.00800000E+00
  1.00800000E+00  0.00000000E+00  1.60000000E+01  1.00800000E+00  1.00800000E+00
  0.00000000E+00  1.60000000E+01  1.00800000E+00  1.00800000E+00  0.00000000E+00
  1.60000000E+01  1.00800000E+00  1.00800000E+00  0.00000000E+00  1.60000000E+01
  1.00800000E+00  1.00800000E+00  0.00000000E+00  1.60000000E+01  1.00800000E+00
  1.00800000E+00  0.00000000E+00  1.60000000E+01  1.00800000E+00  1.00800000E+00
  0.00000000E+00  1.60000000E+01  1.00800000E+00  1.00800000E+00  0.00000000E+00
  1.60000000E+01  1.00800000E+00  1.00800000E+00  0.00000000E+00  1.60000000E+01
  1.00800000E+00  1.00800000E+00  0.00000000E+00  1.60000000E+01  1.00800000E+00
  1.00800000E+00  0.00000000E+00  1.60000000E+01  1.00800000E+00  1.00800000E+00
  0.00000000E+00  1.60000000E+01  1.00800000E+00  1.00800000E+00  0.00000000E+00
  1.60000000E+01  1.00800000E+00  1.00800000E+00  0.00000000E+00  1.60000000E+01
  1.00800000E+00  1.00800000E+00  0.00000000E+00  1.60000000E+01  1.00800000E+00
  1.00800000E+00  0.00000000E+00  1.60000000E+01  1.00800000E+00  1.00800000E+00
  0.00000000E+00  1.60000000E+01  1.00800000E+00  1.00800000E+00  0.00000000E+00
  1.60000000E+01  1.00800000E+00  1.00800000E+00  0.00000000E+00  1.60000000E+01
  1.00800000E+00  1.00800000E+00  0.00000000E+00  1.60000000E+01  1.00800000E+00
  1.00800000E+00  0.00000000E+00  1.60000000E+01  1.00800000E+00  1.00800000E+00
  0.00000000E+00  1.60000000E+01  1.00800000E+00  1.00800000E+00  0.00000000E+00
  1.60000000E+01  1.00800000E+00  1.00800000E+00  0.00000000E+00  1.60000000E+01
  1.00800000E+00  1.00800000E+00  0.00000000E+00  1.60000000E+01  1.00800000E+00
  1.00800000E+00  0.00000000E+00  1.60000000E+01  1.00800000E+00  1.00800000E+00
  0.00000000E+00  1.60000000E+01  1.00800000E+00  1.00800000E+00  0.00000000E+00
  1.60000000E+01  1.00800000E+00  1.00800000E+00  0.00000000E+00  1.60000000E+01
  1.00800000E+00  1.00800000E+00  0.00000000E+00  1.60000000E+01  1.00800000E+00
  1.00800000E+00  0.00000000E+00  1.60000000E+01  1.00800000E+00  1.00800000E+00
  0.00000000E+00  1.60000000E+01  1.00800000E+00  1.00800000E+00  0.00000000E+00
  1.60000000E+01  1.00800000E+00  1.00800000E+00  0.00000000E+00  1.60000000E+01
  1.00800000E+00  1.00800000E+00  0.00000000E+00  1.60000000E+01  1.00800000E+00
  1.00800000E+00  0.00000000E+00  1.60000000E+01  1.00800000E+00  1.00800000E+00
  0.00000000E+00  1.60000000E+01  1.00800000E+00  1.00800000E+00  0.00000000E+00
  1.60000000E+01  1.00800000E+00  1.00800000E+00  0.00000000E+00  1.60000000E+01
  1.00800000E+00  1.00800000E+00  0.00000000E+00  1.60000000E+01  1.00800000E+00
  1.00800000E+00  0.00000000E+00  1.60000000E+01  1.00800000E+00  1.00800000E+00
  0.00000000E+00  1.60000000E+01  1.00800000E+00  1.00800000E+00  0.00000000E+00
  1.60000000E+01  1.00800000E+00  1.00800000E+00  0.00000000E+00  1.60000000E+01
  1.00800000E+00  1.00800000E+00  0.00000000E+00  1.60000000E+01  1.00800000E+00
  1.00800000E+00  0.00000000E+00  1.60000000E+01  1.00800000E+00  1.00800000E+00
  0.00000000E+00  1.60000000E+01  1.00800000E+00  1.00800000E+00  0.00000000E+00
  1.60000000E+01  1.00800000E+00  1.00800000E+00  0.00000000E+00  1.60000000E+01
  1.00800000E+00  1.00800000E+00  0.00000000E+00  1.60000000E+01  1.00800000E+00
  1.00800000E+00  0.00000000E+00  1.60000000E+01  1.00800000E+00  1.00800000E+00
  0.00000000E+00  1.60000000E+01  1.00800000E+00  1.00800000E+00  0.00000000E+00
  1.60000000E+01  1.00800000E+00  1.00800000E+00  0.00000000E+00  1.60000000E+01
  1.00800000E+00  1.00800000E+00  0.00000000E+00  1.60000000E+01  1.00800000E+00
  1.00800000E+00  0.00000000E+00  1.60000000E+01  1.00800000E+00  1.00800000E+00
  0.00000000E+00  1.60000000E+01  1.00800000E+00  1.00800000E+00  0.00000000E+00
  1.60000000E+01  1.00800000E+00  1.00800000E+00  0.00000000E+00  1.60000000E+01
  1.00800000E+00  1.00800000E+00  0.00000000E+00  1.60000000E+01  1.00800000E+00
  1.00800000E+00  0.00000000E+00  1.60000000E+01  1.00800000E+00  1.00800000E+00
  0.00000000E+00  1.60000000E+01  1.00800000E+00  1.00800000E+00  0.00000000E+00
  1.60000000E+01  1.00800000E+00  1.00800000E+00  0.00000000E+00  1.60000000E+01
  1.00800000E+00  1.00800000E+00  0.00000000E+00  1.60000000E+01  1.00800000E+00
  1.00800000E+00  0.00000000E+00  1.60000000E+01  1.00800000E+00  1.00800000E+00
  0.00000000E+00  1.60000000E+01  1.00800000E+00  1.00800000E+00  0.00000000E+00
  1.60000000E+01  1.00800000E+00  1.00800000E+00  0.00000000E+00  1.60000000E+01
  1.00800000E+00  1.00800000E+00  0.00000000E+00  1.60000000E+01  1.00800000E+00
  1.00800000E+00  0.00000000E+00  1.60000000E+01  1.00800000E+00  1.00800000E+00
  0.00000000E+00  1.60000000E+01  1.00800000E+00  1.00800000E+00  0.00000000E+00
  1.60000000E+01  1.00800000E+00  1.00800000E+00  0.00000000E+00  1.60000000E+01
  1.00800000E+00  1.00800000E+00  0.00000000E+00  1.60000000E+01  1.00800000E+00
  1.00800000E+00  0.00000000E+00  1.60000000E+01  1.00800000E+00  1.00800000E+00
  0.00000000E+00  1.60000000E+01  1.00800000E+00  1.00800000E+00  0.00000000E+00
  1.60000000E+01  1.00800000E+00  1.00800000E+00  0.00000000E+00  1.60000000E+01
  1.00800000E+00  1.00800000E+00  0.00000000E+00  1.60000000E+01  1.00800000E+00
  1.00800000E+00  0.00000000E+00  1.60000000E+01  1.00800000E+00  1.00800000E+00
  0.00000000E+00  1.60000000E+01  1.00800000E+00  1.00800000E+00  0.00000000E+00
  1.60000000E+01  1.00800000E+00  1.00800000E+00  0.00000000E+00  1.60000000E+01
  1.00800000E+00  1.00800000E+00  0.00000000E+00  1.60000000E+01  1.00800000E+00
  1.00800000E+00  0.00000000E+00  1.60000000E+01  1.00800000E+00  1.00800000E+00
  0.00000000E+00  1.60000000E+01  1.00800000E+00  1.00800000E+00  0.00000000E+00
  1.60000000E+01  1.00800000E+00  1.00800000E+00  0.00000000E+00  1.60000000E+01
  1.00800000E+00  1.00800000E+00  0.00000000E+00  1.60000000E+01  1.00800000E+00
  1.00800000E+00  0.00000000E+00  1.60000000E+01  1.00800000E+00  1.00800000E+00
  0.00000000E+00  1.60000000E+01  1.00800000E+00  1.00800000E+00  0.00000000E+00
  1.60000000E+01  1.00800000E+00  1.00800000E+00  0.00000000E+00  1.60000000E+01
  1.00800000E+00  1.00800000E+00  0.00000000E+00  1.60000000E+01  1.00800000E+00
  1.00800000E+00  0.00000000E+00  1.60000000E+01  1.00800000E+00  1.00800000E+00
  0.00000000E+00  1.60000000E+01  1.00800000E+00  1.00800000E+00  0.00000000E+00
  1.60000000E+01  1.00800000E+00  1.00800000E+00  0.00000000E+00  1.60000000E+01
  1.00800000E+00  1.00800000E+00  0.00000000E+00  1.60000000E+01  1.00800000E+00
  1.00800000E+00  0.00000000E+00  1.60000000E+01  1.00800000E+00  1.00800000E+00
  0.00000000E+00  1.60000000E+01  1.00800000E+00  1.00800000E+00  0.00000000E+00
  1.60000000E+01  1.00800000E+00  1.00800000E+00  0.00000000E+00  1.60000000E+01
  1.00800000E+00  1.00800000E+00  0.00000000E+00  1.60000000E+01  1.00800000E+00
  1.00800000E+00  0.00000000E+00  1.60000000E+01  1.00800000E+00  1.00800000E+00
  0.00000000E+00  1.60000000E+01  1.00800000E+00  1.00800000E+00  0.00000000E+00
  1.60000000E+01  1.00800000E+00  1.00800000E+00  0.00000000E+00  1.60000000E+01
  1.00800000E+00  1.00800000E+00  0.00000000E+00  1.60000000E+01  1.00800000E+00
  1.00800000E+00  0.00000000E+00  1.60000000E+01  1.00800000E+00  1.00800000E+00
  0.00000000E+00  1.60000000E+01  1.00800000E+00  1.00800000E+00  0.00000000E+00
  1.60000000E+01  1.00800000E+00  1.00800000E+00  0.00000000E+00  1.60000000E+01
  1.00800000E+00  1.00800000E+00  0.00000000E+00  1.60000000E+01  1.00800000E+00
  1.00800000E+00  0.00000000E+00  1.60000000E+01  1.00800000E+00  1.00800000E+00
  0.00000000E+00  1.60000000E+01  1.00800000E+00  1.00800000E+00  0.00000000E+00
  1.60000000E+01  1.00800000E+00  1.00800000E+00  0.00000000E+00  1.60000000E+01
  1.00800000E+00  1.00800000E+00  0.00000000E+00  1.60000000E+01  1.00800000E+00
  1.00800000E+00  0.00000000E+00  1.60000000E+01  1.00800000E+00  1.00800000E+00
  0.00000000E+00  1.60000000E+01  1.00800000E+00  1.00800000E+00  0.00000000E+00
  1.60000000E+01  1.00800000E+00  1.00800000E+00  0.00000000E+00  1.60000000E+01
  1.00800000E+00  1.00800000E+00  0.00000000E+00  1.60000000E+01  1.00800000E+00
  1.00800000E+00  0.00000000E+00  1.60000000E+01  1.00800000E+00  1.00800000E+00
  0.00000000E+00  1.60000000E+01  1.00800000E+00  1.00800000E+00  0.00000000E+00
  1.60000000E+01  1.00800000E+00  1.00800000E+00  0.00000000E+00  1.60000000E+01
  1.00800000E+00  1.00800000E+00  0.00000000E+00  1.60000000E+01  1.00800000E+00
  1.00800000E+00  0.00000000E+00  1.60000000E+01  1.00800000E+00  1.00800000E+00
  0.00000000E+00  1.60000000E+01  1.00800000E+00  1.00800000E+00  0.00000000E+00
  1.60000000E+01  1.00800000E+00  1.00800000E+00  0.00000000E+00  1.60000000E+01
  1.00800000E+00  1.00800000E+00  0.00000000E+00  1.60000000E+01  1.00800000E+00
  1.00800000E+00  0.00000000E+00  1.60000000E+01  1.00800000E+00  1.00800000E+00
  0.00000000E+00  1.60000000E+01  1.00800000E+00  1.00800000E+00  0.00000000E+00
  1.60000000E+01  1.00800000E+00  1.00800000E+00  0.00000000E+00  1.60000000E+01
  1.00800000E+00  1.00800000E+00  0.00000000E+00  1.60000000E+01  1.00800000E+00
  1.00800000E+00  0.00000000E+00  1.60000000E+01  1.00800000E+00  1.00800000E+00
  0.00000000E+00  1.60000000E+01  1.00800000E+00  1.00800000E+00  0.00000000E+00
  1.60000000E+01  1.00800000E+00  1.00800000E+00  0.00000000E+00  1.60000000E+01
  1.00800000E+00  1.00800000E+00  0.00000000E+00  1.60000000E+01  1.00800000E+00
  1.00800000E+00  0.00000000E+00  1.60000000E+01  1.00800000E+00  1.00800000E+00
  0.00000000E+00  1.60000000E+01  1.00800000E+00  1.00800000E+00  0.00000000E+00
  1.60000000E+01  1.00800000E+00  1.00800000E+00  0.00000000E+00  1.60000000E+01
  1.00800000E+00  1.00800000E+00  0.00000000E+00  1.60000000E+01  1.00800000E+00
  1.00800000E+00  0.00000000E+00  1.60000000E+01  1.00800000E+00  1.00800000E+00
  0.00000000E+00  1.60000000E+01  1.00800000E+00  1.00800000E+00  0.00000000E+00
  1.60000000E+01  1.00800000E+00  1.00800000E+00  0.00000000E+00  1.60000000E+01
  1.00800000E+00  1.00800000E+00  0.00000000E+00  1.60000000E+01  1.00800000E+00
  1.00800000E+00  0.00000000E+00  1.60000000E+01  1.00800000E+00  1.00800000E+00
  0.00000000E+00  1.60000000E+01  1.00800000E+00  1.00800000E+00  0.00000000E+00
  1.60000000E+01  1.00800000E+00  1.00800000E+00  0.00000000E+00  1.60000000E+01
  1.00800000E+00  1.00800000E+00  0.00000000E+00  1.60000000E+01  1.00800000E+00
  1.00800000E+00  0.00000000E+00  1.60000000E+01  1.00800000E+00  1.00800000E+00
  0.00000000E+00  1.60000000E+01  1.00800000E+00  1.00800000E+00  0.00000000E+00
  1.60000000E+01  1.00800000E+00  1.00800000E+00  0.00000000E+00  1.60000000E+01
  1.00800000E+00  1.00800000E+00  0.00000000E+00  1.60000000E+01  1.00800000E+00
  1.00800000E+00  0.00000000E+00  1.60000000E+01  1.00800000E+00  1.00800000E+00
  0.00000000E+00  1.60000000E+01  1.00800000E+00  1.00800000E+00  0.00000000E+00
  1.60000000E+01  1.00800000E+00  1.00800000E+00  0.00000000E+00  1.60000000E+01
  1.00800000E+00  1.00800000E+00  0.00000000E+00  1.60000000E+01  1.00800000E+00
  1.00800000E+00  0.00000000E+00  1.60000000E+01  1.00800000E+00  1.00800000E+00
  0.00000000E+00  1.60000000E+01  1.00800000E+00  1.00800000E+00  0.00000000E+00
  1.60000000E+01  1.00800000E+00  1.00800000E+00  0.00000000E+00  1.60000000E+01
  1.00800000E+00  1.00800000E+00  0.00000000E+00  1.60000000E+01  1.00800000E+00
  1.00800000E+00  0.00000000E+00  1.60000000E+01  1.00800000E+00  1.00800000E+00
  0.00000000E+00  1.60000000E+01  1.00800000E+00  1.00800000E+00  0.00000000E+00
  1.60000000E+01  1.00800000E+00  1.00800000E+00  0.00000000E+00  1.60000000E+01
  1.00800000E+00  1.00800000E+00  0.00000000E+00  1.60000000E+01  1.00800000E+00
  1.00800000E+00  0.00000000E+00  1.60000000E+01  1.00800000E+00  1.00800000E+00
  0.00000000E+00  1.60000000E+01  1.00800000E+00  1.00800000E+00  0.00000000E+00
  1.60000000E+01  1.00800000E+00  1.00800000E+00  0.00000000E+00  1.60000000E+01
  1.00800000E+00  1.00800000E+00  0.00000000E+00  1.60000000E+01  1.00800000E+00
  1.00800000E+00  0.00000000E+00  1.60000000E+01  1.00800000E+00  1.00800000E+00
  0.00000000E+00  1.60000000E+01  1.00800000E+00  1.00800000E+00  0.00000000E+00
  1.60000000E+01  1.00800000E+00  1.00800000E+00  0.00000000E+00  1.60000000E+01
  1.00800000E+00  1.00800000E+00  0.00000000E+00  1.60000000E+01  1.00800000E+00
  1.00800000E+00  0.00000000E+00  1.60000000E+01  1.00800000E+00  1.00800000E+00
  0.00000000E+00  1.60000000E+01  1.00800000E+00  1.00800000E+00  0.00000000E+00
  1.60000000E+01  1.00800000E+00  1.00800000E+00  0.00000000E+00  1.60000000E+01
  1.00800000E+00  1.00800000E+00  0.00000000E+00  1.60000000E+01  1.00800000E+00
  1.00800000E+00  0.00000000E+00  1.60000000E+01  1.00800000E+00  1.00800000E+00
  0.00000000E+00  1.60000000E+01  1.00800000E+00  1.00800000E+00  0.00000000E+00
  1.60000000E+01  1.00800000E+00  1.00800000E+00  0.00000000E+00  1.60000000E+01
  1.00800000E+00  1.00800000E+00  0.00000000E+00  1.60000000E+01  1.00800000E+00
  1.00800000E+00  0.00000000E+00  1.60000000E+01  1.00800000E+00  1.00800000E+00
  0.00000000E+00  1.60000000E+01  1.00800000E+00  1.00800000E+00  0.00000000E+00
  1.60000000E+01  1.00800000E+00  1.00800000E+00  0.00000000E+00  1.60000000E+01
  1.00800000E+00  1.00800000E+00  0.00000000E+00  1.60000000E+01  1.00800000E+00
  1.00800000E+00  0.00000000E+00  1.60000000E+01  1.00800000E+00  1.00800000E+00
  0.00000000E+00  1.60000000E+01  1.00800000E+00  1.00800000E+00  0.00000000E+00
  1.60000000E+01  1.00800000E+00  1.00800000E+00  0.00000000E+00  1.60000000E+01
  1.00800000E+00  1.00800000E+00  0.00000000E+00  1.60000000E+01  1.00800000E+00
  1.00800000E+00  0.00000000E+00  1.60000000E+01  1.00800000E+00  1.00800000E+00
  0.00000000E+00  1.60000000E+01  1.00800000E+00  1.00800000E+00  0.00000000E+00
  1.60000000E+01  1.00800000E+00  1.00800000E+00  0.00000000E+00  1.60000000E+01
  1.00800000E+00  1.00800000E+00  0.00000000E+00  1.60000000E+01  1.00800000E+00
  1.00800000E+00  0.00000000E+00  1.60000000E+01  1.00800000E+00  1.00800000E+00
  0.00000000E+00  1.60000000E+01  1.00800000E+00  1.00800000E+00  0.00000000E+00
  1.60000000E+01  1.00800000E+00  1.00800000E+00  0.00000000E+00  1.60000000E+01
  1.00800000E+00  1.00800000E+00  0.00000000E+00  1.60000000E+01  1.00800000E+00
  1.00800000E+00  0.00000000E+00  1.60000000E+01  1.00800000E+00  1.00800000E+00
  0.00000000E+00  1.60000000E+01  1.00800000E+00  1.00800000E+00  0.00000000E+00
  1.60000000E+01  1.00800000E+00  1.00800000E+00  0.00000000E+00  1.60000000E+01
  1.00800000E+00  1.00800000E+00  0.00000000E+00  1.60000000E+01  1.00800000E+00
  1.00800000E+00  0.00000000E+00  1.60000000E+01  1.00800000E+00  1.00800000E+00
  0.00000000E+00  1.60000000E+01  1.00800000E+00  1.00800000E+00  0.00000000E+00
  1.60000000E+01  1.00800000E+00  1.00800000E+00  0.00000000E+00  1.60000000E+01
  1.00800000E+00  1.00800000E+00  0.00000000E+00  1.60000000E+01  1.00800000E+00
  1.00800000E+00  0.00000000E+00  1.60000000E+01  1.00800000E+00  1.00800000E+00
  0.00000000E+00  1.60000000E+01  1.00800000E+00  1.00800000E+00  0.00000000E+00
  1.60000000E+01  1.00800000E+00  1.00800000E+00  0.00000000E+00  1.60000000E+01
  1.00800000E+00  1.00800000E+00  0.00000000E+00  1.60000000E+01  1.00800000E+00
  1.00800000E+00  0.00000000E+00  1.60000000E+01  1.00800000E+00  1.00800000E+00
  0.00000000E+00  1.60000000E+01  1.00800000E+00  1.00800000E+00  0.00000000E+00
  1.60000000E+01  1.00800000E+00  1.00800000E+00  0.00000000E+00  1.60000000E+01
  1.00800000E+00  1.00800000E+00  0.00000000E+00  1.60000000E+01  1.00800000E+00
  1.00800000E+00  0.00000000E+00  1.60000000E+01  1.00800000E+00  1.00800000E+00
  0.00000000E+00  1.60000000E+01  1.00800000E+00  1.00800000E+00  0.00000000E+00
  1.60000000E+01  1.00800000E+00  1.00800000E+00  0.00000000E+00  1.60000000E+01
  1.00800000E+00  1.00800000E+00  0.00000000E+00  1.60000000E+01  1.00800000E+00
  1.00800000E+00  0.00000000E+00  1.60000000E+01  1.00800000E+00  1.00800000E+00
  0.00000000E+00  1.60000000E+01  1.00800000E+00  1.00800000E+00  0.00000000E+00
  1.60000000E+01  1.00800000E+00  1.00800000E+00  0.00000000E+00  1.60000000E+01
  1.00800000E+00  1.00800000E+00  0.00000000E+00  1.60000000E+01  1.00800000E+00
  1.00800000E+00  0.00000000E+00  1.60000000E+01  1.00800000E+00  1.00800000E+00
  0.00000000E+00  1.60000000E+01  1.00800000E+00  1.00800000E+00  0.00000000E+00
  1.60000000E+01  1.00800000E+00  1.00800000E+00  0.00000000E+00  1.60000000E+01
  1.00800000E+00  1.00800000E+00  0.00000000E+00  1.60000000E+01  1.00800000E+00
  1.00800000E+00  0.00000000E+00  1.60000000E+01  1.00800000E+00  1.00800000E+00
  0.00000000E+00  1.60000000E+01  1.00800000E+00  1.00800000E+00  0.00000000E+00
  1.60000000E+01  1.00800000E+00  1.00800000E+00  0.00000000E+00  1.60000000E+01
  1.00800000E+00  1.00800000E+00  0.00000000E+00  1.60000000E+01  1.00800000E+00
  1.00800000E+00  0.00000000E+00  1.60000000E+01  1.00800000E+00  1.00800000E+00
  0.00000000E+00  1.60000000E+01  1.00800000E+00  1.00800000E+00  0.00000000E+00
  1.60000000E+01  1.00800000E+00  1.00800000E+00  0.00000000E+00  1.60000000E+01
  1.00800000E+00  1.00800000E+00  0.00000000E+00  1.60000000E+01  1.00800000E+00
  1.00800000E+00  0.00000000E+00  1.60000000E+01  1.00800000E+00  1.00800000E+00
  0.00000000E+00  1.60000000E+01  1.00800000E+00  1.00800000E+00  0.00000000E+00
  1.60000000E+01  1.00800000E+00  1.00800000E+00  0.00000000E+00  1.60000000E+01
  1.00800000E+00  1.00800000E+00  0.00000000E+00  1.60000000E+01  1.00800000E+00
  1.00800000E+00  0.00000000E+00  1.60000000E+01  1.00800000E+00  1.00800000E+00
  0.00000000E+00  1.60000000E+01  1.00800000E+00  1.00800000E+00  0.00000000E+00
  1.60000000E+01  1.00800000E+00  1.00800000E+00  0.00000000E+00  1.60000000E+01
  1.00800000E+00  1.00800000E+00  0.00000000E+00  1.60000000E+01  1.00800000E+00
  1.00800000E+00  0.00000000E+00  1.60000000E+01  1.00800000E+00  1.00800000E+00
  0.00000000E+00  1.60000000E+01  1.00800000E+00  1.00800000E+00  0.00000000E+00
  1.60000000E+01  1.00800000E+00  1.00800000E+00  0.00000000E+00  1.60000000E+01
  1.00800000E+00  1.00800000E+00  0.00000000E+00  1.60000000E+01  1.00800000E+00
  1.00800000E+00  0.00000000E+00  1.60000000E+01  1.00800000E+00  1.00800000E+00
  0.00000000E+00  1.60000000E+01  1.00800000E+00  1.00800000E+00  0.00000000E+00
  1.60000000E+01  1.00800000E+00  1.00800000E+00  0.00000000E+00  1.60000000E+01
  1.00800000E+00  1.00800000E+00  0.00000000E+00  1.60000000E+01  1.00800000E+00
  1.00800000E+00  0.00000000E+00  1.60000000E+01  1.00800000E+00  1.00800000E+00
  0.00000000E+00  1.60000000E+01  1.00800000E+00  1.00800000E+00  0.00000000E+00
  1.60000000E+01  1.00800000E+00  1.00800000E+00  0.00000000E+00  1.60000000E+01
  1.00800000E+00  1.00800000E+00  0.00000000E+00  1.60000000E+01  1.00800000E+00
  1.00800000E+00  0.00000000E+00  1.60000000E+01  1.00800000E+00  1.00800000E+00
  0.00000000E+00  1.60000000E+01  1.00800000E+00  1.00800000E+00  0.00000000E+00
  1.60000000E+01  1.00800000E+00  1.00800000E+00  0.00000000E+00  1.60000000E+01
  1.00800000E+00  1.00800000E+00  0.00000000E+00  1.60000000E+01  1.00800000E+00
  1.00800000E+00  0.00000000E+00  1.60000000E+01  1.00800000E+00  1.00800000E+00
  0.00000000E+00  1.60000000E+01  1.00800000E+00  1.00800000E+00  0.00000000E+00
  1.60000000E+01  1.00800000E+00  1.00800000E+00  0.00000000E+00  1.60000000E+01
  1.00800000E+00  1.00800000E+00  0.00000000E+00  1.60000000E+01  1.00800000E+00
  1.00800000E+00  0.00000000E+00  1.60000000E+01  1.00800000E+00  1.00800000E+00
  0.00000000E+00  1.60000000E+01  1.00800000E+00  1.00800000E+00  0.00000000E+00
  1.60000000E+01  1.00800000E+00  1.00800000E+00  0.00000000E+00  1.60000000E+01
  1.00800000E+00  1.00800000E+00  0.00000000E+00  1.60000000E+01  1.00800000E+00
  1.00800000E+00  0.00000000E+00  1.60000000E+01  1.00800000E+00  1.00800000E+00
  0.00000000E+00  1.60000000E+01  1.00800000E+00  1.00800000E+00  0.00000000E+00
  1.60000000E+01  1.00800000E+00  1.00800000E+00  0.00000000E+00  1.60000000E+01
  1.00800000E+00  1.00800000E+00  0.00000000E+00  1.60000000E+01  1.00800000E+00
  1.00800000E+00  0.00000000E+00  1.60000000E+01  1.00800000E+00  1.00800000E+00
  0.00000000E+00  1.60000000E+01  1.00800000E+00  1.00800000E+00  0.00000000E+00
  1.60000000E+01  1.00800000E+00  1.00800000E+00  0.00000000E+00  1.60000000E+01
  1.00800000E+00  1.00800000E+00  0.00000000E+00  1.60000000E+01  1.00800000E+00
  1.00800000E+00  0.00000000E+00  1.60000000E+01  1.00800000E+00  1.00800000E+00
  0.00000000E+00  1.60000000E+01  1.00800000E+00  1.00800000E+00  0.00000000E+00
  1.60000000E+01  1.00800000E+00  1.00800000E+00  0.00000000E+00  1.60000000E+01
  1.00800000E+00  1.00800000E+00  0.00000000E+00  1.60000000E+01  1.00800000E+00
  1.00800000E+00  0.00000000E+00  1.60000000E+01  1.00800000E+00  1.00800000E+00
  0.00000000E+00  1.60000000E+01  1.00800000E+00  1.00800000E+00  0.00000000E+00
  1.60000000E+01  1.00800000E+00  1.00800000E+00  0.00000000E+00  1.60000000E+01
  1.00800000E+00  1.00800000E+00  0.00000000E+00  1.60000000E+01  1.00800000E+00
  1.00800000E+00  0.00000000E+00  1.60000000E+01  1.00800000E+00  1.00800000E+00
  0.00000000E+00  1.60000000E+01  1.00800000E+00  1.00800000E+00  0.00000000E+00
  1.60000000E+01  1.00800000E+00  1.00800000E+00  0.00000000E+00  1.60000000E+01
  1.00800000E+00  1.00800000E+00  0.00000000E+00  1.60000000E+01  1.00800000E+00
  1.00800000E+00  0.00000000E+00  1.60000000E+01  1.00800000E+00  1.00800000E+00
  0.00000000E+00  1.60000000E+01  1.00800000E+00  1.00800000E+00  0.00000000E+00
  1.60000000E+01  1.00800000E+00  1.00800000E+00  0.00000000E+00  1.60000000E+01
  1.00800000E+00  1.00800000E+00  0.00000000E+00  1.60000000E+01  1.00800000E+00
  1.00800000E+00  0.00000000E+00  1.60000000E+01  1.00800000E+00  1.00800000E+00
  0.00000000E+00  1.60000000E+01  1.00800000E+00  1.00800000E+00  0.00000000E+00
  1.60000000E+01  1.00800000E+00  1.00800000E+00  0.00000000E+00  1.60000000E+01
  1.00800000E+00  1.00800000E+00  0.00000000E+00  1.60000000E+01  1.00800000E+00
  1.00800000E+00  0.00000000E+00  1.60000000E+01  1.00800000E+00  1.00800000E+00
  0.00000000E+00  1.60000000E+01  1.00800000E+00  1.00800000E+00  0.00000000E+00
  1.60000000E+01  1.00800000E+00  1.00800000E+00  0.00000000E+00  1.60000000E+01
  1.00800000E+00  1.00800000E+00  0.00000000E+00  1.60000000E+01  1.00800000E+00
  1.00800000E+00  0.00000000E+00  1.60000000E+01  1.00800000E+00  1.00800000E+00
  0.00000000E+00  1.60000000E+01  1.00800000E+00  1.00800000E+00  0.00000000E+00
  1.60000000E+01  1.00800000E+00  1.00800000E+00  0.00000000E+00  1.60000000E+01
  1.00800000E+00  1.00800000E+00  0.00000000E+00  1.60000000E+01  1.00800000E+00
  1.00800000E+00  0.00000000E+00  1.60000000E+01  1.00800000E+00  1.00800000E+00
  0.00000000E+00  1.60000000E+01  1.00800000E+00  1.00800000E+00  0.00000000E+00
  1.60000000E+01  1.00800000E+00  1.00800000E+00  0.00000000E+00  1.60000000E+01
  1.00800000E+00  1.00800000E+00  0.00000000E+00  1.60000000E+01  1.00800000E+00
  1.00800000E+00  0.00000000E+00  1.60000000E+01  1.00800000E+00  1.00800000E+00
  0.00000000E+00  1.60000000E+01  1.00800000E+00  1.00800000E+00  0.00000000E+00
  1.60000000E+01  1.00800000E+00  1.00800000E+00  0.00000000E+00  1.60000000E+01
  1.00800000E+00  1.00800000E+00  0.00000000E+00  1.60000000E+01  1.00800000E+00
  1.00800000E+00  0.00000000E+00  1.60000000E+01  1.00800000E+00  1.00800000E+00
  0.00000000E+00  1.60000000E+01  1.00800000E+00  1.00800000E+00  0.00000000E+00
  1.60000000E+01  1.00800000E+00  1.00800000E+00  0.00000000E+00  1.60000000E+01
  1.00800000E+00  1.00800000E+00  0.00000000E+00  1.60000000E+01  1.00800000E+00
  1.00800000E+00  0.00000000E+00  1.60000000E+01  1.00800000E+00  1.00800000E+00
  0.00000000E+00  1.60000000E+01  1.00800000E+00  1.00800000E+00  0.00000000E+00
  1.60000000E+01  1.00800000E+00  1.00800000E+00  0.00000000E+00  1.60000000E+01
  1.00800000E+00  1.00800000E+00  0.00000000E+00  1.60000000E+01  1.00800000E+00
  1.00800000E+00  0.00000000E+00  1.60000000E+01  1.00800000E+00  1.00800000E+00
  0.00000000E+00  1.60000000E+01  1.00800000E+00  1.00800000E+00  0.00000000E+00
  1.60000000E+01  1.00800000E+00  1.00800000E+00  0.00000000E+00  1.60000000E+01
  1.00800000E+00  1.00800000E+00  0.00000000E+00  1.60000000E+01  1.00800000E+00
  1.00800000E+00  0.00000000E+00  1.60000000E+01  1.00800000E+00  1.00800000E+00
  0.00000000E+00  1.60000000E+01  1.00800000E+00  1.00800000E+00  0.00000000E+00
  1.60000000E+01  1.00800000E+00  1.00800000E+00  0.00000000E+00  1.60000000E+01
  1.00800000E+00  1.00800000E+00  0.00000000E+00  1.60000000E+01  1.00800000E+00
  1.00800000E+00  0.00000000E+00  1.60000000E+01  1.00800000E+00  1.00800000E+00
  0.00000000E+00  1.60000000E+01  1.00800000E+00  1.00800000E+00  0.00000000E+00
  1.60000000E+01  1.00800000E+00  1.00800000E+00  0.00000000E+00  1.60000000E+01
  1.00800000E+00  1.00800000E+00  0.00000000E+00  1.60000000E+01  1.00800000E+00
  1.00800000E+00  0.00000000E+00  1.60000000E+01  1.00800000E+00  1.00800000E+00
  0.00000000E+00  1.60000000E+01  1.00800000E+00  1.00800000E+00  0.00000000E+00
  1.60000000E+01  1.00800000E+00  1.00800000E+00  0.00000000E+00  1.60000000E+01
  1.00800000E+00  1.00800000E+00  0.00000000E+00  1.60000000E+01  1.00800000E+00
  1.00800000E+00  0.00000000E+00  1.60000000E+01  1.00800000E+00  1.00800000E+00
  0.00000000E+00  1.60000000E+01  1.00800000E+00  1.00800000E+00  0.00000000E+00
  1.60000000E+01  1.00800000E+00  1.00800000E+00  0.00000000E+00  1.60000000E+01
  1.00800000E+00  1.00800000E+00  0.00000000E+00  1.60000000E+01  1.00800000E+00
  1.00800000E+00  0.00000000E+00  1.60000000E+01  1.00800000E+00  1.00800000E+00
  0.00000000E+00  1.60000000E+01  1.00800000E+00  1.00800000E+00  0.00000000E+00
  1.60000000E+01  1.00800000E+00  1.00800000E+00  0.00000000E+00  1.60000000E+01
  1.00800000E+00  1.00800000E+00  0.00000000E+00  1.60000000E+01  1.00800000E+00
  1.00800000E+00  0.00000000E+00  1.60000000E+01  1.00800000E+00  1.00800000E+00
  0.00000000E+00  1.60000000E+01  1.00800000E+00  1.00800000E+00  0.00000000E+00
  1.60000000E+01  1.00800000E+00  1.00800000E+00  0.00000000E+00  1.60000000E+01
  1.00800000E+00  1.00800000E+00  0.00000000E+00  1.60000000E+01  1.00800000E+00
  1.00800000E+00  0.00000000E+00  1.60000000E+01  1.00800000E+00  1.00800000E+00
  0.00000000E+00  1.60000000E+01  1.00800000E+00  1.00800000E+00  0.00000000E+00
  1.60000000E+01  1.00800000E+00  1.00800000E+00  0.00000000E+00  1.60000000E+01
  1.00800000E+00  1.00800000E+00  0.00000000E+00  1.60000000E+01  1.00800000E+00
  1.00800000E+00  0.00000000E+00  1.60000000E+01  1.00800000E+00  1.00800000E+00
  0.00000000E+00  1.60000000E+01  1.00800000E+00  1.00800000E+00  0.00000000E+00
  1.60000000E+01  1.00800000E+00  1.00800000E+00  0.00000000E+00  1.60000000E+01
  1.00800000E+00  1.00800000E+00  0.00000000E+00  1.60000000E+01  1.00800000E+00
  1.00800000E+00  0.00000000E+00  1.60000000E+01  1.00800000E+00  1.00800000E+00
  0.00000000E+00  1.60000000E+01  1.00800000E+00  1.00800000E+00  0.00000000E+00
  1.60000000E+01  1.00800000E+00  1.00800000E+00  0.00000000E+00  1.60000000E+01
  1.00800000E+00  1.00800000E+00  0.00000000E+00  1.60000000E+01  1.00800000E+00
  1.00800000E+00  0.00000000E+00  1.60000000E+01  1.00800000E+00  1.00800000E+00
  0.00000000E+00  1.60000000E+01  1.00800000E+00  1.00800000E+00  0.00000000E+00
  1.60000000E+01  1.00800000E+00  1.00800000E+00  0.00000000E+00  1.60000000E+01
  1.00800000E+00  1.00800000E+00  0.00000000E+00  1.60000000E+01  1.00800000E+00
  1.00800000E+00  0.00000000E+00  1.60000000E+01  1.00800000E+00  1.00800000E+00
  0.00000000E+00  1.60000000E+01  1.00800000E+00  1.00800000E+00  0.00000000E+00
  1.60000000E+01  1.00800000E+00  1.00800000E+00  0.00000000E+00  1.60000000E+01
  1.00800000E+00  1.00800000E+00  0.00000000E+00  1.60000000E+01  1.00800000E+00
  1.00800000E+00  0.00000000E+00  1.60000000E+01  1.00800000E+00  1.00800000E+00
  0.00000000E+00  1.60000000E+01  1.00800000E+00  1.00800000E+00  0.00000000E+00
  1.60000000E+01  1.00800000E+00  1.00800000E+00  0.00000000E+00  1.60000000E+01
  1.00800000E+00  1.00800000E+00  0.00000000E+00  1.60000000E+01  1.00800000E+00
  1.00800000E+00  0.00000000E+00  1.60000000E+01  1.00800000E+00  1.00800000E+00
  0.00000000E+00  1.60000000E+01  1.00800000E+00  1.00800000E+00  0.00000000E+00
  1.60000000E+01  1.00800000E+00  1.00800000E+00  0.00000000E+00  1.60000000E+01
  1.00800000E+00  1.00800000E+00  0.00000000E+00  1.60000000E+01  1.00800000E+00
  1.00800000E+00  0.00000000E+00  1.60000000E+01  1.00800000E+00  1.00800000E+00
  0.00000000E+00  1.60000000E+01  1.00800000E+00  1.00800000E+00  0.00000000E+00
  1.60000000E+01  1.00800000E+00  1.00800000E+00  0.00000000E+00  1.60000000E+01
  1.00800000E+00  1.00800000E+00  0.00000000E+00  1.60000000E+01  1.00800000E+00
  1.00800000E+00  0.00000000E+00  1.60000000E+01  1.00800000E+00  1.00800000E+00
  0.00000000E+00  1.60000000E+01  1.00800000E+00  1.00800000E+00  0.00000000E+00
  1.60000000E+01  1.00800000E+00  1.00800000E+00  0.00000000E+00  1.60000000E+01
  1.00800000E+00  1.00800000E+00  0.00000000E+00  1.60000000E+01  1.00800000E+00
  1.00800000E+00  0.00000000E+00  1.60000000E+01  1.00800000E+00  1.00800000E+00
  0.00000000E+00  1.60000000E+01  1.00800000E+00  1.00800000E+00  0.00000000E+00
  1.60000000E+01  1.00800000E+00  1.00800000E+00  0.00000000E+00  1.60000000E+01
  1.00800000E+00  1.00800000E+00  0.00000000E+00  1.60000000E+01  1.00800000E+00
  1.00800000E+00  0.00000000E+00  1.60000000E+01  1.00800000E+00  1.00800000E+00
  0.00000000E+00  1.60000000E+01  1.00800000E+00  1.00800000E+00  0.00000000E+00
  1.60000000E+01  1.00800000E+00  1.00800000E+00  0.00000000E+00  1.60000000E+01
  1.00800000E+00  1.00800000E+00  0.00000000E+00  1.60000000E+01  1.00800000E+00
  1.00800000E+00  0.00000000E+00  1.60000000E+01  1.00800000E+00  1.00800000E+00
  0.00000000E+00  1.60000000E+01  1.00800000E+00  1.00800000E+00  0.00000000E+00
  1.60000000E+01  1.00800000E+00  1.00800000E+00  0.00000000E+00  1.60000000E+01
  1.00800000E+00  1.00800000E+00  0.00000000E+00  1.60000000E+01  1.00800000E+00
  1.00800000E+00  0.00000000E+00  1.60000000E+01  1.00800000E+00  1.00800000E+00
  0.00000000E+00  1.60000000E+01  1.00800000E+00  1.00800000E+00  0.00000000E+00
  1.60000000E+01  1.00800000E+00  1.00800000E+00  0.00000000E+00  1.60000000E+01
  1.00800000E+00  1.00800000E+00  0.00000000E+00  1.60000000E+01  1.00800000E+00
  1.00800000E+00  0.00000000E+00  1.60000000E+01  1.00800000E+00  1.00800000E+00
  0.00000000E+00  1.60000000E+01  1.00800000E+00  1.00800000E+00  0.00000000E+00
  1.60000000E+01  1.00800000E+00  1.00800000E+00  0.00000000E+00  1.60000000E+01
  1.00800000E+00  1.00800000E+00  0.00000000E+00  1.60000000E+01  1.00800000E+00
  1.00800000E+00  0.00000000E+00  1.60000000E+01  1.00800000E+00  1.00800000E+00
  0.00000000E+00  1.60000000E+01  1.00800000E+00  1.00800000E+00  0.00000000E+00
  1.60000000E+01  1.00800000E+00  1.00800000E+00  0.00000000E+00  1.60000000E+01
  1.00800000E+00  1.00800000E+00  0.00000000E+00  1.60000000E+01  1.00800000E+00
  1.00800000E+00  0.00000000E+00  1.60000000E+01  1.00800000E+00  1.00800000E+00
  0.00000000E+00  1.60000000E+01  1.00800000E+00  1.00800000E+00  0.00000000E+00
  1.60000000E+01  1.00800000E+00  1.00800000E+00  0.00000000E+00  1.60000000E+01
  1.00800000E+00  1.00800000E+00  0.00000000E+00  1.60000000E+01  1.00800000E+00
  1.00800000E+00  0.00000000E+00  1.60000000E+01  1.00800000E+00  1.00800000E+00
  0.00000000E+00  1.60000000E+01  1.00800000E+00  1.00800000E+00  0.00000000E+00
  1.60000000E+01  1.00800000E+00  1.00800000E+00  0.00000000E+00  1.60000000E+01
  1.00800000E+00  1.00800000E+00  0.00000000E+00  1.60000000E+01  1.00800000E+00
  1.00800000E+00  0.00000000E+00  1.60000000E+01  1.00800000E+00  1.00800000E+00
  0.00000000E+00  1.60000000E+01  1.00800000E+00  1.00800000E+00  0.00000000E+00
  1.60000000E+01  1.00800000E+00  1.00800000E+00  0.00000000E+00  1.60000000E+01
  1.00800000E+00  1.00800000E+00  0.00000000E+00  1.60000000E+01  1.00800000E+00
  1.00800000E+00  0.00000000E+00  1.60000000E+01  1.00800000E+00  1.00800000E+00
  0.00000000E+00  1.60000000E+01  1.00800000E+00  1.00800000E+00  0.00000000E+00
  1.60000000E+01  1.00800000E+00  1.00800000E+00  0.00000000E+00  1.60000000E+01
  1.00800000E+00  1.00800000E+00  0.00000000E+00  1.60000000E+01  1.00800000E+00
  1.00800000E+00  0.00000000E+00  1.60000000E+01  1.00800000E+00  1.00800000E+00
  0.00000000E+00  1.60000000E+01  1.00800000E+00  1.00800000E+00  0.00000000E+00
  1.60000000E+01  1.00800000E+00  1.00800000E+00  0.00000000E+00  1.60000000E+01
  1.00800000E+00  1.00800000E+00  0.00000000E+00  1.60000000E+01  1.00800000E+00
  1.00800000E+00  0.00000000E+00  1.60000000E+01  1.00800000E+00  1.00800000E+00
  0.00000000E+00  1.60000000E+01  1.00800000E+00  1.00800000E+00  0.00000000E+00
  1.60000000E+01  1.00800000E+00  1.00800000E+00  0.00000000E+00  1.60000000E+01
  1.00800000E+00  1.00800000E+00  0.00000000E+00  1.60000000E+01  1.00800000E+00
  1.00800000E+00  0.00000000E+00  1.60000000E+01  1.00800000E+00  1.00800000E+00
  0.00000000E+00  1.60000000E+01  1.00800000E+00  1.00800000E+00  0.00000000E+00
  1.60000000E+01  1.00800000E+00  1.00800000E+00  0.00000000E+00  1.60000000E+01
  1.00800000E+00  1.00800000E+00  0.00000000E+00  1.60000000E+01  1.00800000E+00
  1.00800000E+00  0.00000000E+00  1.60000000E+01  1.00800000E+00  1.00800000E+00
  0.00000000E+00  1.60000000E+01  1.00800000E+00  1.00800000E+00  0.00000000E+00
  1.60000000E+01  1.00800000E+00  1.00800000E+00  0.00000000E+00  1.60000000E+01
  1.00800000E+00  1.00800000E+00  0.00000000E+00  1.60000000E+01  1.00800000E+00
  1.00800000E+00  0.00000000E+00  1.60000000E+01  1.00800000E+00  1.00800000E+00
  0.00000000E+00  1.60000000E+01  1.00800000E+00  1.00800000E+00  0.00000000E+00
  1.60000000E+01  1.00800000E+00  1.00800000E+00  0.00000000E+00  1.60000000E+01
  1.00800000E+00  1.00800000E+00  0.00000000E+00  1.60000000E+01  1.00800000E+00
  1.00800000E+00  0.00000000E+00  1.60000000E+01  1.00800000E+00  1.00800000E+00
  0.00000000E+00  1.60000000E+01  1.00800000E+00  1.00800000E+00  0.00000000E+00
  1.60000000E+01  1.00800000E+00  1.00800000E+00  0.00000000E+00  1.60000000E+01
  1.00800000E+00  1.00800000E+00  0.00000000E+00  1.60000000E+01  1.00800000E+00
  1.00800000E+00  0.00000000E+00  1.60000000E+01  1.00800000E+00  1.00800000E+00
  0.00000000E+00  1.60000000E+01  1.00800000E+00  1.00800000E+00  0.00000000E+00
  1.60000000E+01  1.00800000E+00  1.00800000E+00  0.00000000E+00  1.60000000E+01
  1.00800000E+00  1.00800000E+00  0.00000000E+00  1.60000000E+01  1.00800000E+00
  1.00800000E+00  0.00000000E+00  1.60000000E+01  1.00800000E+00  1.00800000E+00
  0.00000000E+00  1.60000000E+01  1.00800000E+00  1.00800000E+00  0.00000000E+00
  1.60000000E+01  1.00800000E+00  1.00800000E+00  0.00000000E+00  1.60000000E+01
  1.00800000E+00  1.00800000E+00  0.00000000E+00  1.60000000E+01  1.00800000E+00
  1.00800000E+00  0.00000000E+00  1.60000000E+01  1.00800000E+00  1.00800000E+00
  0.00000000E+00  1.60000000E+01  1.00800000E+00  1.00800000E+00  0.00000000E+00
  1.60000000E+01  1.00800000E+00  1.00800000E+00  0.00000000E+00  1.60000000E+01
  1.00800000E+00  1.00800000E+00  0.00000000E+00  1.60000000E+01  1.00800000E+00
  1.00800000E+00  0.00000000E+00  1.60000000E+01  1.00800000E+00  1.00800000E+00
  0.00000000E+00  1.60000000E+01  1.00800000E+00  1.00800000E+00  0.00000000E+00
  1.60000000E+01  1.00800000E+00  1.00800000E+00  0.00000000E+00  1.60000000E+01
  1.00800000E+00  1.00800000E+00  0.00000000E+00  1.60000000E+01  1.00800000E+00
  1.00800000E+00  0.00000000E+00  1.60000000E+01  1.00800000E+00  1.00800000E+00
  0.00000000E+00  1.60000000E+01  1.00800000E+00  1.00800000E+00  0.00000000E+00
  1.60000000E+01  1.00800000E+00  1.00800000E+00  0.00000000E+00  1.60000000E+01
  1.00800000E+00  1.00800000E+00  0.00000000E+00  1.60000000E+01  1.00800000E+00
  1.00800000E+00  0.00000000E+00  1.60000000E+01  1.00800000E+00  1.00800000E+00
  0.00000000E+00  1.60000000E+01  1.00800000E+00  1.00800000E+00  0.00000000E+00
  1.60000000E+01  1.00800000E+00  1.00800000E+00  0.00000000E+00  1.60000000E+01
  1.00800000E+00  1.00800000E+00  0.00000000E+00  1.60000000E+01  1.00800000E+00
  1.00800000E+00  0.00000000E+00  1.60000000E+01  1.00800000E+00  1.00800000E+00
  0.00000000E+00  1.60000000E+01  1.00800000E+00  1.00800000E+00  0.00000000E+00
  1.60000000E+01  1.00800000E+00  1.00800000E+00  0.00000000E+00  1.60000000E+01
  1.00800000E+00  1.00800000E+00  0.00000000E+00  1.60000000E+01  1.00800000E+00
  1.00800000E+00  0.00000000E+00  1.60000000E+01  1.00800000E+00  1.00800000E+00
  0.00000000E+00  1.60000000E+01  1.00800000E+00  1.00800000E+00  0.00000000E+00
  1.60000000E+01  1.00800000E+00  1.00800000E+00  0.00000000E+00  1.60000000E+01
  1.00800000E+00  1.00800000E+00  0.00000000E+00  1.60000000E+01  1.00800000E+00
  1.00800000E+00  0.00000000E+00  1.60000000E+01  1.00800000E+00  1.00800000E+00
  0.00000000E+00  1.60000000E+01  1.00800000E+00  1.00800000E+00  0.00000000E+00
  1.60000000E+01  1.00800000E+00  1.00800000E+00  0.00000000E+00  1.60000000E+01
  1.00800000E+00  1.00800000E+00  0.00000000E+00  1.60000000E+01  1.00800000E+00
  1.00800000E+00  0.00000000E+00  1.60000000E+01  1.00800000E+00  1.00800000E+00
  0.00000000E+00  1.60000000E+01  1.00800000E+00  1.00800000E+00  0.00000000E+00
  1.60000000E+01  1.00800000E+00  1.00800000E+00  0.00000000E+00  1.60000000E+01
  1.00800000E+00  1.00800000E+00  0.00000000E+00  1.60000000E+01  1.00800000E+00
  1.00800000E+00  0.00000000E+00  1.60000000E+01  1.00800000E+00  1.00800000E+00
  0.00000000E+00  1.60000000E+01  1.00800000E+00  1.00800000E+00  0.00000000E+00
  1.60000000E+01  1.00800000E+00  1.00800000E+00  0.00000000E+00  1.60000000E+01
  1.00800000E+00  1.00800000E+00  0.00000000E+00  1.60000000E+01  1.00800000E+00
  1.00800000E+00  0.00000000E+00  1.60000000E+01  1.00800000E+00  1.00800000E+00
  0.00000000E+00  1.60000000E+01  1.00800000E+00  1.00800000E+00  0.00000000E+00
  1.60000000E+01  1.00800000E+00  1.00800000E+00  0.00000000E+00  1.60000000E+01
  1.00800000E+00  1.00800000E+00  0.00000000E+00  1.60000000E+01  1.00800000E+00
  1.00800000E+00  0.00000000E+00  1.60000000E+01  1.00800000E+00  1.00800000E+00
  0.00000000E+00  1.60000000E+01  1.00800000E+00  1.00800000E+00  0.00000000E+00
  1.60000000E+01  1.00800000E+00  1.00800000E+00  0.00000000E+00  1.60000000E+01
  1.00800000E+00  1.00800000E+00  0.00000000E+00  1.60000000E+01  1.00800000E+00
  1.00800000E+00  0.00000000E+00  1.60000000E+01  1.00800000E+00  1.00800000E+00
  0.00000000E+00  1.60000000E+01  1.00800000E+00  1.00800000E+00  0.00000000E+00
  1.60000000E+01  1.00800000E+00  1.00800000E+00  0.00000000E+00  1.60000000E+01
  1.00800000E+00  1.00800000E+00  0.00000000E+00  1.60000000E+01  1.00800000E+00
  1.00800000E+00  0.00000000E+00  1.60000000E+01  1.00800000E+00  1.00800000E+00
  0.00000000E+00  1.60000000E+01  1.00800000E+00  1.00800000E+00  0.00000000E+00
  1.60000000E+01  1.00800000E+00  1.00800000E+00  0.00000000E+00  1.60000000E+01
  1.00800000E+00  1.00800000E+00  0.00000000E+00  1.60000000E+01  1.00800000E+00
  1.00800000E+00  0.00000000E+00  1.60000000E+01  1.00800000E+00  1.00800000E+00
  0.00000000E+00  1.60000000E+01  1.00800000E+00  1.00800000E+00  0.00000000E+00
  1.60000000E+01  1.00800000E+00  1.00800000E+00  0.00000000E+00  1.60000000E+01
  1.00800000E+00  1.00800000E+00  0.00000000E+00  1.60000000E+01  1.00800000E+00
  1.00800000E+00  0.00000000E+00  1.60000000E+01  1.00800000E+00  1.00800000E+00
  0.00000000E+00  1.60000000E+01  1.00800000E+00  1.00800000E+00  0.00000000E+00
  1.60000000E+01  1.00800000E+00  1.00800000E+00  0.00000000E+00  1.60000000E+01
  1.00800000E+00  1.00800000E+00  0.00000000E+00  1.60000000E+01  1.00800000E+00
  1.00800000E+00  0.00000000E+00  1.60000000E+01  1.00800000E+00  1.00800000E+00
  0.00000000E+00  1.60000000E+01  1.00800000E+00  1.00800000E+00  0.00000000E+00
  1.60000000E+01  1.00800000E+00  1.00800000E+00  0.00000000E+00  1.60000000E+01
  1.00800000E+00  1.00800000E+00  0.00000000E+00  1.60000000E+01  1.00800000E+00
  1.00800000E+00  0.00000000E+00  1.60000000E+01  1.00800000E+00  1.00800000E+00
  0.00000000E+00  1.60000000E+01  1.00800000E+00  1.00800000E+00  0.00000000E+00
  1.60000000E+01  1.00800000E+00  1.00800000E+00  0.00000000E+00  1.60000000E+01
  1.00800000E+00  1.00800000E+00  0.00000000E+00  1.60000000E+01  1.00800000E+00
  1.00800000E+00  0.00000000E+00  1.60000000E+01  1.00800000E+00  1.00800000E+00
  0.00000000E+00  1.60000000E+01  1.00800000E+00  1.00800000E+00  0.00000000E+00
  1.60000000E+01  1.00800000E+00  1.00800000E+00  0.00000000E+00  1.60000000E+01
  1.00800000E+00  1.00800000E+00  0.00000000E+00  1.60000000E+01  1.00800000E+00
  1.00800000E+00  0.00000000E+00  1.60000000E+01  1.00800000E+00  1.00800000E+00
  0.00000000E+00  1.60000000E+01  1.00800000E+00  1.00800000E+00  0.00000000E+00
  1.60000000E+01  1.00800000E+00  1.00800000E+00  0.00000000E+00  1.60000000E+01
  1.00800000E+00  1.00800000E+00  0.00000000E+00  1.60000000E+01  1.00800000E+00
  1.00800000E+00  0.00000000E+00  1.60000000E+01  1.00800000E+00  1.00800000E+00
  0.00000000E+00  1.60000000E+01  1.00800000E+00  1.00800000E+00  0.00000000E+00
  1.60000000E+01  1.00800000E+00  1.00800000E+00  0.00000000E+00  1.60000000E+01
  1.00800000E+00  1.00800000E+00  0.00000000E+00  1.60000000E+01  1.00800000E+00
  1.00800000E+00  0.00000000E+00  1.60000000E+01  1.00800000E+00  1.00800000E+00
  0.00000000E+00  1.60000000E+01  1.00800000E+00  1.00800000E+00  0.00000000E+00
  1.60000000E+01  1.00800000E+00  1.00800000E+00  0.00000000E+00  1.60000000E+01
  1.00800000E+00  1.00800000E+00  0.00000000E+00  1.60000000E+01  1.00800000E+00
  1.00800000E+00  0.00000000E+00  1.60000000E+01  1.00800000E+00  1.00800000E+00
  0.00000000E+00  1.60000000E+01  1.00800000E+00  1.00800000E+00  0.00000000E+00
  1.60000000E+01  1.00800000E+00  1.00800000E+00  0.00000000E+00  1.60000000E+01
  1.00800000E+00  1.00800000E+00  0.00000000E+00  1.60000000E+01  1.00800000E+00
  1.00800000E+00  0.00000000E+00  1.60000000E+01  1.00800000E+00  1.00800000E+00
  0.00000000E+00  1.60000000E+01  1.00800000E+00  1.00800000E+00  0.00000000E+00
  1.60000000E+01  1.00800000E+00  1.00800000E+00  0.00000000E+00  1.60000000E+01
  1.00800000E+00  1.00800000E+00  0.00000000E+00  1.60000000E+01  1.00800000E+00
  1.00800000E+00  0.00000000E+00  1.60000000E+01  1.00800000E+00  1.00800000E+00
  0.00000000E+00  1.60000000E+01  1.00800000E+00  1.00800000E+00  0.00000000E+00
  1.60000000E+01  1.00800000E+00  1.00800000E+00  0.00000000E+00  1.60000000E+01
  1.00800000E+00  1.00800000E+00  0.00000000E+00  1.60000000E+01  1.00800000E+00
  1.00800000E+00  0.00000000E+00  1.60000000E+01  1.00800000E+00  1.00800000E+00
  0.00000000E+00  1.60000000E+01  1.00800000E+00  1.00800000E+00  0.00000000E+00
  1.60000000E+01  1.00800000E+00  1.00800000E+00  0.00000000E+00  1.60000000E+01
  1.00800000E+00  1.00800000E+00  0.00000000E+00  1.60000000E+01  1.00800000E+00
  1.00800000E+00  0.00000000E+00  1.60000000E+01  1.00800000E+00  1.00800000E+00
  0.00000000E+00  1.60000000E+01  1.00800000E+00  1.00800000E+00  0.00000000E+00
  1.60000000E+01  1.00800000E+00  1.00800000E+00  0.00000000E+00  1.60000000E+01
  1.00800000E+00  1.00800000E+00  0.00000000E+00  1.60000000E+01  1.00800000E+00
  1.00800000E+00  0.00000000E+00  1.60000000E+01  1.00800000E+00  1.00800000E+00
  0.00000000E+00  1.60000000E+01  1.00800000E+00  1.00800000E+00  0.00000000E+00
  1.60000000E+01  1.00800000E+00  1.00800000E+00  0.00000000E+00  1.60000000E+01
  1.00800000E+00  1.00800000E+00  0.00000000E+00  1.60000000E+01  1.00800000E+00
  1.00800000E+00  0.00000000E+00  1.60000000E+01  1.00800000E+00  1.00800000E+00
  0.00000000E+00  1.60000000E+01  1.00800000E+00  1.00800000E+00  0.00000000E+00
  1.60000000E+01  1.00800000E+00  1.00800000E+00  0.00000000E+00  1.60000000E+01
  1.00800000E+00  1.00800000E+00  0.00000000E+00  1.60000000E+01  1.00800000E+00
  1.00800000E+00  0.00000000E+00  1.60000000E+01  1.00800000E+00  1.00800000E+00
  0.00000000E+00  1.60000000E+01  1.00800000E+00  1.00800000E+00  0.00000000E+00
  1.60000000E+01  1.00800000E+00  1.00800000E+00  0.00000000E+00  1.60000000E+01
  1.00800000E+00  1.00800000E+00  0.00000000E+00  1.60000000E+01  1.00800000E+00
  1.00800000E+00  0.00000000E+00  1.60000000E+01  1.00800000E+00  1.00800000E+00
  0.00000000E+00  1.60000000E+01  1.00800000E+00  1.00800000E+00  0.00000000E+00
  1.60000000E+01  1.00800000E+00  1.00800000E+00  0.00000000E+00  1.60000000E+01
  1.00800000E+00  1.00800000E+00  0.00000000E+00  1.60000000E+01  1.00800000E+00
  1.00800000E+00  0.00000000E+00  1.60000000E+01  1.00800000E+00  1.00800000E+00
  0.00000000E+00  1.60000000E+01  1.00800000E+00  1.00800000E+00  0.00000000E+00
  1.60000000E+01  1.00800000E+00  1.00800000E+00  0.00000000E+00  1.60000000E+01
  1.00800000E+00  1.00800000E+00  0.00000000E+00  1.60000000E+01  1.00800000E+00
  1.00800000E+00  0.00000000E+00  1.60000000E+01  1.00800000E+00  1.00800000E+00
  0.00000000E+00  1.60000000E+01  1.00800000E+00  1.00800000E+00  0.00000000E+00
  1.60000000E+01  1.00800000E+00  1.00800000E+00  0.00000000E+00  1.60000000E+01
  1.00800000E+00  1.00800000E+00  0.00000000E+00  1.60000000E+01  1.00800000E+00
  1.00800000E+00  0.00000000E+00  1.60000000E+01  1.00800000E+00  1.00800000E+00
  0.00000000E+00  1.60000000E+01  1.00800000E+00  1.00800000E+00  0.00000000E+00
  1.60000000E+01  1.00800000E+00  1.00800000E+00  0.00000000E+00  1.60000000E+01
  1.00800000E+00  1.00800000E+00  0.00000000E+00  1.60000000E+01  1.00800000E+00
  1.00800000E+00  0.00000000E+00  1.60000000E+01  1.00800000E+00  1.00800000E+00
  0.00000000E+00  1.60000000E+01  1.00800000E+00  1.00800000E+00  0.00000000E+00
  1.60000000E+01  1.00800000E+00  1.00800000E+00  0.00000000E+00  1.60000000E+01
  1.00800000E+00  1.00800000E+00  0.00000000E+00  1.60000000E+01  1.00800000E+00
  1.00800000E+00  0.00000000E+00  1.60000000E+01  1.00800000E+00  1.00800000E+00
  0.00000000E+00  1.60000000E+01  1.00800000E+00  1.00800000E+00  0.00000000E+00
  1.60000000E+01  1.00800000E+00  1.00800000E+00  0.00000000E+00  1.60000000E+01
  1.00800000E+00  1.00800000E+00  0.00000000E+00  1.60000000E+01  1.00800000E+00
  1.00800000E+00  0.00000000E+00  1.60000000E+01  1.00800000E+00  1.00800000E+00
  0.00000000E+00  1.60000000E+01  1.00800000E+00  1.00800000E+00  0.00000000E+00
  1.60000000E+01  1.00800000E+00  1.00800000E+00  0.00000000E+00  1.60000000E+01
  1.00800000E+00  1.00800000E+00  0.00000000E+00  1.60000000E+01  1.00800000E+00
  1.00800000E+00  0.00000000E+00  1.60000000E+01  1.00800000E+00  1.00800000E+00
  0.00000000E+00  1.60000000E+01  1.00800000E+00  1.00800000E+00  0.00000000E+00
  1.60000000E+01  1.00800000E+00  1.00800000E+00  0.00000000E+00  1.60000000E+01
  1.00800000E+00  1.00800000E+00  0.00000000E+00  1.60000000E+01  1.00800000E+00
  1.00800000E+00  0.00000000E+00  1.60000000E+01  1.00800000E+00  1.00800000E+00
  0.00000000E+00  1.60000000E+01  1.00800000E+00  1.00800000E+00  0.00000000E+00
  1.60000000E+01  1.00800000E+00  1.00800000E+00  0.00000000E+00  1.60000000E+01
  1.00800000E+00  1.00800000E+00  0.00000000E+00  1.60000000E+01  1.00800000E+00
  1.00800000E+00  0.00000000E+00  1.60000000E+01  1.00800000E+00  1.00800000E+00
  0.00000000E+00  1.60000000E+01  1.00800000E+00  1.00800000E+00  0.00000000E+00
  1.60000000E+01  1.00800000E+00  1.00800000E+00  0.00000000E+00  1.60000000E+01
  1.00800000E+00  1.00800000E+00  0.00000000E+00  1.60000000E+01  1.00800000E+00
  1.00800000E+00  0.00000000E+00  1.60000000E+01  1.00800000E+00  1.00800000E+00
  0.00000000E+00  1.60000000E+01  1.00800000E+00  1.00800000E+00  0.00000000E+00
  1.60000000E+01  1.00800000E+00  1.00800000E+00  0.00000000E+00  1.60000000E+01
  1.00800000E+00  1.00800000E+00  0.00000000E+00  1.60000000E+01  1.00800000E+00
  1.00800000E+00  0.00000000E+00  1.60000000E+01  1.00800000E+00  1.00800000E+00
  0.00000000E+00  1.60000000E+01  1.00800000E+00  1.00800000E+00  0.00000000E+00
  1.60000000E+01  1.00800000E+00  1.00800000E+00  0.00000000E+00  1.60000000E+01
  1.00800000E+00  1.00800000E+00  0.00000000E+00  1.60000000E+01  1.00800000E+00
  1.00800000E+00  0.00000000E+00  1.60000000E+01  1.00800000E+00  1.00800000E+00
  0.00000000E+00  1.60000000E+01  1.00800000E+00  1.00800000E+00  0.00000000E+00
  1.60000000E+01  1.00800000E+00  1.00800000E+00  0.00000000E+00  1.60000000E+01
  1.00800000E+00  1.00800000E+00  0.00000000E+00  1.60000000E+01  1.00800000E+00
  1.00800000E+00  0.00000000E+00  1.60000000E+01  1.00800000E+00  1.00800000E+00
  0.00000000E+00  1.60000000E+01  1.00800000E+00  1.00800000E+00  0.00000000E+00
  1.60000000E+01  1.00800000E+00  1.00800000E+00  0.00000000E+00  1.60000000E+01
  1.00800000E+00  1.00800000E+00  0.00000000E+00  1.60000000E+01  1.00800000E+00
  1.00800000E+00  0.00000000E+00  1.60000000E+01  1.00800000E+00  1.00800000E+00
  0.00000000E+00  1.60000000E+01  1.00800000E+00  1.00800000E+00  0.00000000E+00
  1.60000000E+01  1.00800000E+00  1.00800000E+00  0.00000000E+00  1.60000000E+01
  1.00800000E+00  1.00800000E+00  0.00000000E+00  1.60000000E+01  1.00800000E+00
  1.00800000E+00  0.00000000E+00  1.60000000E+01  1.00800000E+00  1.00800000E+00
  0.00000000E+00  1.60000000E+01  1.00800000E+00  1.00800000E+00  0.00000000E+00
  1.60000000E+01  1.00800000E+00  1.00800000E+00  0.00000000E+00  1.60000000E+01
  1.00800000E+00  1.00800000E+00  0.00000000E+00  1.60000000E+01  1.00800000E+00
  1.00800000E+00  0.00000000E+00  1.60000000E+01  1.00800000E+00  1.00800000E+00
  0.00000000E+00  1.60000000E+01  1.00800000E+00  1.00800000E+00  0.00000000E+00
  1.60000000E+01  1.00800000E+00  1.00800000E+00  0.00000000E+00  1.60000000E+01
  1.00800000E+00  1.00800000E+00  0.00000000E+00  1.60000000E+01  1.00800000E+00
  1.00800000E+00  0.00000000E+00  1.60000000E+01  1.00800000E+00  1.00800000E+00
  0.00000000E+00  1.60000000E+01  1.00800000E+00  1.00800000E+00  0.00000000E+00
  1.60000000E+01  1.00800000E+00  1.00800000E+00  0.00000000E+00  1.60000000E+01
  1.00800000E+00  1.00800000E+00  0.00000000E+00  1.60000000E+01  1.00800000E+00
  1.00800000E+00  0.00000000E+00  1.60000000E+01  1.00800000E+00  1.00800000E+00
  0.00000000E+00  1.60000000E+01  1.00800000E+00  1.00800000E+00  0.00000000E+00
  1.60000000E+01  1.00800000E+00  1.00800000E+00  0.00000000E+00  1.60000000E+01
  1.00800000E+00  1.00800000E+00  0.00000000E+00  1.60000000E+01  1.00800000E+00
  1.00800000E+00  0.00000000E+00  1.60000000E+01  1.00800000E+00  1.00800000E+00
  0.00000000E+00  1.60000000E+01  1.00800000E+00  1.00800000E+00  0.00000000E+00
  1.60000000E+01  1.00800000E+00  1.00800000E+00  0.00000000E+00  1.60000000E+01
  1.00800000E+00  1.00800000E+00  0.00000000E+00  1.60000000E+01  1.00800000E+00
  1.00800000E+00  0.00000000E+00  1.60000000E+01  1.00800000E+00  1.00800000E+00
  0.00000000E+00  1.60000000E+01  1.00800000E+00  1.00800000E+00  0.00000000E+00
  1.60000000E+01  1.00800000E+00  1.00800000E+00  0.00000000E+00  1.60000000E+01
  1.00800000E+00  1.00800000E+00  0.00000000E+00  1.60000000E+01  1.00800000E+00
  1.00800000E+00  0.00000000E+00  1.60000000E+01  1.00800000E+00  1.00800000E+00
  0.00000000E+00  1.60000000E+01  1.00800000E+00  1.00800000E+00  0.00000000E+00
  1.60000000E+01  1.00800000E+00  1.00800000E+00  0.00000000E+00  1.60000000E+01
  1.00800000E+00  1.00800000E+00  0.00000000E+00  1.60000000E+01  1.00800000E+00
  1.00800000E+00  0.00000000E+00  1.60000000E+01  1.00800000E+00  1.00800000E+00
  0.00000000E+00  1.60000000E+01  1.00800000E+00  1.00800000E+00  0.00000000E+00
  1.60000000E+01  1.00800000E+00  1.00800000E+00  0.00000000E+00  1.60000000E+01
  1.00800000E+00  1.00800000E+00  0.00000000E+00  1.60000000E+01  1.00800000E+00
  1.00800000E+00  0.00000000E+00  1.60000000E+01  1.00800000E+00  1.00800000E+00
  0.00000000E+00  1.60000000E+01  1.00800000E+00  1.00800000E+00  0.00000000E+00
  1.60000000E+01  1.00800000E+00  1.00800000E+00  0.00000000E+00  1.60000000E+01
  1.00800000E+00  1.00800000E+00  0.00000000E+00  1.60000000E+01  1.00800000E+00
  1.00800000E+00  0.00000000E+00  1.60000000E+01  1.00800000E+00  1.00800000E+00
  0.00000000E+00  1.60000000E+01  1.00800000E+00  1.00800000E+00  0.00000000E+00
  1.60000000E+01  1.00800000E+00  1.00800000E+00  0.00000000E+00  1.60000000E+01
  1.00800000E+00  1.00800000E+00  0.00000000E+00  1.60000000E+01  1.00800000E+00
  1.00800000E+00  0.00000000E+00  1.60000000E+01  1.00800000E+00  1.00800000E+00
  0.00000000E+00  1.60000000E+01  1.00800000E+00  1.00800000E+00  0.00000000E+00
  1.60000000E+01  1.00800000E+00  1.00800000E+00  0.00000000E+00  1.60000000E+01
  1.00800000E+00  1.00800000E+00  0.00000000E+00  1.60000000E+01  1.00800000E+00
  1.00800000E+00  0.00000000E+00  1.60000000E+01  1.00800000E+00  1.00800000E+00
  0.00000000E+00
%FLAG ATOM_TYPE_INDEX                                                           
%FORMAT(10I8)                                                                   
       1       2       1       1       3       4       5       6       2       7
       2       1       1       8       8       9      10       6       8       8
      11       8      11       8      11       8      11       8       3       4
       5       6       2       7       2       1       2       1       1       1
       2       1       1       1       3       4       5       6       2       7
       2       7       2       1       1       1      12      13       3       4
       5       6       2       7       2       1       1       8      10       6
       8      14      10       8       9       3       4       5       6       2
       7       2       1       1       2       1       1       2       7       7
      10       6       8      10       6       6      10       6       6       3
       4       3       4      15      15      15      15      15       3       3
      15       5       1       1       1       1       1       1       1       1
       1      11      11       1       1       6       5       6       2       7
       2       1       1       1       3       4       5       6       2       7
       7       3       4       5       6       2       7       2       1       1
       2       1       2       1       1       1       2       1       1       1
       3       4       3       4      15      15      15      15       5       1
       1       1       1       1       1       1       6       5       6       2
       7       2       7       7      12      13       3       4       5       6
       2       7       2       1       1       2       1       1       2       7
       7      10       6       8      10       6       6      10       6       6
       3       4       5       6       2       7       2       7       7      12
      13       3       4       5       6       2       7       7       3       4
       5       6       2       7       7       3       4       5       6       2
       7       2       1       2       1       1       1       2       1       1
       1       3       4       5       6       2       7       2       1       2
       1       1       1       2       1       1       1       3       4       5
       6       2       7       2       1       1       2       1       1       2
       1       1       2      16      16      10       6       6       6       3
       4       5       6       2       7       2       1       1       3       4
       5       6       6       3       4       5       6       2       7       2
       1       1       3       4       5       6       6       3       4       5
       6       2       7       2       1       1       8       8      11       8
      11       8      11       8      11       8      11       3       4       5
       6       2       7       2       1       2       1       1       1       2
       1       1       1       3       4       5       2       7       7       2
       1       1       2       1       1       2       7       3       4       5
       6       2       7       2       7       2       1       1       1      12
      13       3       4       5       6       2       7       2       1       1
       8      17      17       3       4       5       6       2       7       2
       1       2       1       1       1       2       1       1       1       3
       4       5       6       2       7       7       3       4       5       2
       7       7       2       1       1       2       1       1       2       7
       3       4       5       6       2       7       2       1       1       8
       8      11       8      11       8      11       8      11       8      11
       3       4       5       6       2       7       2       1       1       1
       3       4       5       6       2       7       2       1       1       8
       8      11       8      11       8      11       8      11       8      11
       3       4       5       6       6      18      18      18      18      18
      18      18      18      18      18      18      18      18      18      18
      18      18      18      18      18      19      19      19      19      19
      19      19      19      19      19      19      19      19      19      19
      19      19      19      19      19      19      19      20      21      21
      22      20      21      21      22      20      21      21      22      20
      21      21      22      20      21      21      22      20      21      21
      22      20      21      21      22      20      21      21      22      20
      21      21      22      20      21      21      22      20      21      21
      22      20      21      21      22      20      21      21      22      20
      21      21      22      20      21      21      22      20      21      21
      22      20      21      21      22      20      21      21      22      20
      21      21      22      20      21      21      22      20      21      21
      22      20      21      21      22      20      21      21      22      20
      21      21      22      20      21      21      22      20      21      21
      22      20      21      21      22      20      21      21      22      20
      21      21      22      20      21      21      22      20      21      21
      22      20      21      21      22      20      21      21      22      20
      21      21      22      20      21      21      22      20      21      21
      22      20      21      21      22      20      21      21      22      20
      21      21      22      20      21      21      22      20      21      21
      22      20      21      21      22      20      21      21      22      20
      21      21      22      20      21      21      22      20      21      21
      22      20      21      21      22      20      21      21      22      20
      21      21      22      20      21      21      22      20      21      21
      22      20      21      21      22      20      21      21      22      20
      21      21      22      20      21      21      22      20      21      21
      22      20      21      21      22      20      21      21      22      20
      21      21      22      20      21      21      22      20      21      21
      22      20      21      21      22      20      21      21      22      20
      21      21      22      20      21      21      22      20      21      21
      22      20      21      21      22      20      21      21      22      20
      21      21      22      20      21      21      22      20      21      21
      22      20      21      21      22      20      21      21      22      20
      21      21      22      20      21      21      22      20      21      21
      22      20      21      21      22      20      21      21      22      20
      21      21      22      20      21      21      22      20      21      21
      22      20      21      21      22      20      21      21      22      20
      21      21      22      20      21      21      22      20      21      21
      22      20      21      21      22      20      21      21      22      20
      21      21      22      20      21      21      22      20      21      21
      22      20      21      21      22      20      21      21      22      20
      21      21      22      20      21      21      22      20      21      21
      22      20      21      21      22      20      21      21      22      20
      21      21      22      20      21      21      22      20      21      21
      22      20      21      21      22      20      21      21      22      20
      21      21      22      20      21      21      22      20      21      21
      22      20      21      21      22      20      21      21      22      20
      21      21      22      20      21      21      22      20      21      21
      22      20      21      21      22      20      21      21      22      20
      21      21      22      20      21      21      22      20      21      21
      22      20      21      21      22      20      21      21      22      20
      21      21      22      20      21      21      22      20      21      21
      22      20      21      21      22      20      21      21      22      20
      21      21      22      20      21      21      22      20      21      21
      22      20      21      21      22      20      21      21      22      20
      21      21      22      20      21      21      22      20      21      21
      22      20      21      21      22      20      21      21      22      20
      21      21      22      20      21      21      22      20      21      21
      22      20      21      21      22      20      21      21      22      20
      21      21      22      20      21      21      22      20      21      21
      22      20      21      21      22      20      21      21      22      20
      21      21      22      20      21      21      22      20      21      21
      22      20      21      21      22      20      21      21      22      20
      21      21      22      20      21      21      22      20      21      21
      22      20      21      21      22      20      21      21      22      20
      21      21      22      20      21      21      22      20      21      21
      22      20      21      21      22      20      21      21      22      20
      21      21      22      20      21      21      22      20      21      21
      22      20      21      21      22      20      21      21      22      20
      21      21      22      20      21      21      22      20      21      21
      22      20      21      21      22      20      21      21      22      20
      21      21      22      20      21      21      22      20      21      21
      22      20      21      21      22      20      21      21      22      20
      21      21      22      20      21      21      22      20      21      21
      22      20      21      21      22      20      21      21      22      20
      21      21      22      20      21      21      22      20      21      21
      22      20      21      21      22      20      21      21      22      20
      21      21      22      20      21      21      22      20      21      21
      22      20      21      21      22      20      21      21      22      20
      21      21      22      20      21      21      22      20      21      21
      22      20      21      21      22      20      21      21      22      20
      21      21      22      20      21      21      22      20      21      21
      22      20      21      21      22      20      21      21      22      20
      21      21      22      20      21      21      22      20      21      21
      22      20      21      21      22      20      21      21      22      20
      21      21      22      20      21      21      22      20      21      21
      22      20      21      21      22      20      21      21      22      20
      21      21      22      20      21      21      22      20      21      21
      22      20      21      21      22      20      21      21      22      20
      21      21      22      20      21      21      22      20      21      21
      22      20      21      21      22      20      21      21      22      20
      21      21      22      20      21      21      22      20      21      21
      22      20      21      21      22      20      21      21      22      20
      21      21      22      20      21      21      22      20      21      21
      22      20      21      21      22      20      21      21      22      20
      21      21      22      20      21      21      22      20      21      21
      22      20      21      21      22      20      21      21      22      20
      21      21      22      20      21      21      22      20      21      21
      22      20      21      21      22      20      21      21      22      20
      21      21      22      20      21      21      22      20      21      21
      22      20      21      21      22      20      21      21      22      20
      21      21      22      20      21      21      22      20      21      21
      22      20      21      21      22      20      21      21      22      20
      21      21      22      20      21      21      22      20      21      21
      22      20      21      21      22      20      21      21      22      20
      21      21      22      20      21      21      22      20      21      21
      22      20      21      21      22      20      21      21      22      20
      21      21      22      20      21      21      22      20      21      21
      22      20      21      21      22      20      21      21      22      20
      21      21      22      20      21      21      22      20      21      21
      22      20      21      21      22      20      21      21      22      20
      21      21      22      20      21      21      22      20      21      21
      22      20      21      21      22      20      21      21      22      20
      21      21      22      20      21      21      22      20      21      21
      22      20      21      21      22      20      21      21      22      20
      21      21      22      20      21      21      22      20      21      21
      22      20      21      21      22      20      21      21      22      20
      21      21      22      20      21      21      22      20      21      21
      22      20      21      21      22      20      21      21      22      20
      21      21      22      20      21      21      22      20      21      21
      22      20      21      21      22      20      21      21      22      20
      21      21      22      20      21      21      22      20      21      21
      22      20      21      21      22      20      21      21      22      20
      21      21      22      20      21      21      22      20      21      21
      22      20      21      21      22      20      21      21      22      20
      21      21      22      20      21      21      22      20      21      21
      22      20      21      21      22      20      21      21      22      20
      21      21      22      20      21      21      22      20      21      21
      22      20      21      21      22      20      21      21      22      20
      21      21      22      20      21      21      22      20      21      21
      22      20      21      21      22      20      21      21      22      20
      21      21      22      20      21      21      22      20      21      21
      22      20      21      21      22      20      21      21      22      20
      21      21      22      20      21      21      22      20      21      21
      22      20      21      21      22      20      21      21      22      20
      21      21      22      20      21      21      22      20      21      21
      22      20      21      21      22      20      21      21      22      20
      21      21      22      20      21      21      22      20      21      21
      22      20      21      21      22      20      21      21      22      20
      21      21      22      20      21      21      22      20      21      21
      22      20      21      21      22      20      21      21      22      20
      21      21      22      20      21      21      22      20      21      21
      22      20      21      21      22      20      21      21      22      20
      21      21      22      20      21      21      22      20      21      21
      22      20      21      21      22      20      21      21      22      20
      21      21      22      20      21      21      22      20      21      21
      22      20      21      21      22      20      21      21      22      20
      21      21      22      20      21      21      22      20      21      21
      22      20      21      21      22      20      21      21      22      20
      21      21      22      20      21      21      22      20      21      21
      22      20      21      21      22      20      21      21      22      20
      21      21      22      20      21      21      22      20      21      21
      22      20      21      21      22      20      21      21      22      20
      21      21      22      20      21      21      22      20      21      21
      22      20      21      21      22      20      21      21      22      20
      21      21      22      20      21      21      22      20      21      21
      22      20      21      21      22      20      21      21      22      20
      21      21      22      20      21      21      22      20      21      21
      22      20      21      21      22      20      21      21      22      20
      21      21      22      20      21      21      22      20      21      21
      22      20      21      21      22      20      21      21      22      20
      21      21      22      20      21      21      22      20      21      21
      22      20      21      21      22      20      21      21      22      20
      21      21      22      20      21      21      22      20      21      21
      22      20      21      21      22      20      21      21      22      20
      21      21      22      20      21      21      22      20      21      21
      22      20      21      21      22      20      21      21      22      20
      21      21      22      20      21      21      22      20      21      21
      22      20      21      21      22      20      21      21      22      20
      21      21      22      20      21      21      22      20      21      21
      22      20      21      21      22      20      21      21      22      20
      21      21      22      20      21      21      22      20      21      21
      22      20      21      21      22      20      21      21      22      20
      21      21      22      20      21      21      22      20      21      21
      22      20      21      21      22      20      21      21      22      20
      21      21      22      20      21      21      22      20      21      21
      22      20      21      21      22      20      21      21      22      20
      21      21      22      20      21      21      22      20      21      21
      22      20      21      21      22      20      21      21      22      20
      21      21      22      20      21      21      22      20      21      21
      22      20      21      21      22      20      21      21      22      20
      21      21      22      20      21      21      22      20      21      21
      22      20      21      21      22      20      21      21      22      20
      21      21      22      20      21      21      22      20      21      21
      22      20      21      21      22      20      21      21      22      20
      21      21      22      20      21      21      22      20      21      21
      22      20      21      21      22      20      21      21      22      20
      21      21      22      20      21      21      22      20      21      21
      22      20      21      21      22      20      21      21      22      20
      21      21      22      20      21      21      22      20      21      21
      22      20      21      21      22      20      21      21      22      20
      21      21      22      20      21      21      22      20      21      21
      22      20      21      21      22      20      21      21      22      20
      21      21      22      20      21      21      22      20      21      21
      22      20      21      21      22      20      21      21      22      20
      21      21      22      20      21      21      22      20      21      21
      22      20      21      21      22      20      21      21      22      20
      21      21      22      20      21      21      22      20      21      21
      22      20      21      21      22      20      21      21      22      20
      21      21      22      20      21      21      22      20      21      21
      22      20      21      21      22      20      21      21      22      20
      21      21      22      20      21      21      22      20      21      21
      22      20      21      21      22      20      21      21      22      20
      21      21      22      20      21      21      22      20      21      21
      22      20      21      21      22      20      21      21      22      20
      21      21      22      20      21      21      22      20      21      21
      22      20      21      21      22      20      21      21      22      20
      21      21      22      20      21      21      22      20      21      21
      22      20      21      21      22      20      21      21      22      20
      21      21      22      20      21      21      22      20      21      21
      22      20      21      21      22      20      21      21      22      20
      21      21      22      20      21      21      22      20      21      21
      22      20      21      21      22      20      21      21      22      20
      21      21      22      20      21      21      22      20      21      21
      22      20      21      21      22      20      21      21      22      20
      21      21      22      20      21      21      22      20      21      21
      22      20      21      21      22      20      21      21      22      20
      21      21      22      20      21      21      22      20      21      21
      22      20      21      21      22      20      21      21      22      20
      21      21      22      20      21      21      22      20      21      21
      22      20      21      21      22      20      21      21      22      20
      21      21      22      20      21      21      22      20      21      21
      22      20      21      21      22      20      21      21      22      20
      21      21      22      20      21      21      22      20      21      21
      22      20      21      21      22      20      21      21      22      20
      21      21      22      20      21      21      22      20      21      21
      22      20      21      21      22      20      21      21      22      20
      21      21      22      20      21      21      22      20      21      21
      22      20      21      21      22      20      21      21      22      20
      21      21      22      20      21      21      22      20      21      21
      22      20      21      21      22      20      21      21      22      20
      21      21      22      20      21      21      22      20      21      21
      22      20      21      21      22      20      21      21      22      20
      21      21      22      20      21      21      22      20      21      21
      22      20      21      21      22      20      21      21      22      20
      21      21      22      20      21      21      22      20      21      21
      22      20      21      21      22      20      21      21      22      20
      21      21      22      20      21      21      22      20      21      21
      22      20      21      21      22      20      21      21      22      20
      21      21      22      20      21      21      22      20      21      21
      22      20      21      21      22      20      21      21      22      20
      21      21      22      20      21      21      22      20      21      21
      22      20      21      21      22      20      21      21      22      20
      21      21      22      20      21      21      22      20      21      21
      22      20      21      21      22      20      21      21      22      20
      21      21      22      20      21      21      22      20      21      21
      22      20      21      21      22      20      21      21      22      20
      21      21      22      20      21      21      22      20      21      21
      22      20      21      21      22      20      21      21      22      20
      21      21      22      20      21      21      22      20      21      21
      22      20      21      21      22      20      21      21      22      20
      21      21      22      20      21      21      22      20      21      21
      22      20      21      21      22      20      21      21      22      20
      21      21      22      20      21      21      22      20      21      21
      22      20      21      21      22      20      21      21      22      20
      21      21      22      20      21      21      22      20      21      21
      22      20      21      21      22      20      21      21      22      20
      21      21      22      20      21      21      22      20      21      21
      22      20      21      21      22      20      21      21      22      20
      21      21      22      20      21      21      22      20      21      21
      22      20      21      21      22      20      21      21      22      20
      21      21      22      20      21      21      22      20      21      21
      22      20      21      21      22      20      21      21      22      20
      21      21      22      20      21      21      22      20      21      21
      22      20      21      21      22      20      21      21      22      20
      21      21      22      20      21      21      22      20      21      21
      22      20      21      21      22      20      21      21      22      20
      21      21      22      20      21      21      22      20      21      21
      22      20      21      21      22      20      21      21      22      20
      21      21      22      20      21      21      22      20      21      21
      22      20      21      21      22      20      21      21      22      20
      21      21      22      20      21      21      22      20      21      21
      22      20      21      21      22      20      21      21      22      20
      21      21      22      20      21      21      22      20      21      21
      22      20      21      21      22      20      21      21      22      20
      21      21      22      20      21      21      22      20      21      21
      22      20      21      21      22      20      21      21      22      20
      21      21      22      20      21      21      22      20      21      21
      22      20      21      21      22      20      21      21      22      20
      21      21      22      20      21      21      22      20      21      21
      22      20      21      21      22      20      21      21      22      20
      21      21      22      20      21      21      22      20      21      21
      22      20      21      21      22      20      21      21      22      20
      21      21      22      20      21      21      22      20      21      21
      22      20      21      21      22      20      21      21      22      20
      21      21      22      20      21      21      22      20      21      21
      22      20      21      21      22      20      21      21      22      20
      21      21      22      20      21      21      22      20      21      21
      22      20      21      21      22      20      21      21      22      20
      21      21      22      20      21      21      22      20      21      21
      22      20      21      21      22      20      21      21      22      20
      21      21      22      20      21      21      22      20      21      21
      22      20      21      21      22      20      21      21      22      20
      21      21      22      20      21      21      22      20      21      21
      22      20      21      21      22      20      21      21      22      20
      21      21      22      20      21      21      22      20      21      21
      22      20      21      21      22      20      21      21      22      20
      21      21      22      20      21      21      22      20      21      21
      22      20      21      21      22      20      21      21      22      20
      21      21      22      20      21      21      22      20      21      21
      22      20      21      21      22      20      21      21      22      20
      21      21      22      20      21      21      22      20      21      21
      22      20      21      21      22      20      21      21      22      20
      21      21      22      20      21      21      22      20      21      21
      22      20      21      21      22      20      21      21      22      20
      21      21      22      20      21      21      22      20      21      21
      22      20      21      21      22      20      21      21      22      20
      21      21      22      20      21      21      22      20      21      21
      22      20      21      21      22      20      21      21      22      20
      21      21      22      20      21      21      22      20      21      21
      22      20      21      21      22      20      21      21      22      20
      21      21      22      20      21      21      22      20      21      21
      22      20      21      21      22      20      21      21      22      20
      21      21      22      20      21      21      22      20      21      21
      22      20      21      21      22      20      21      21      22      20
      21      21      22      20      21      21      22      20      21      21
      22      20      21      21      22      20      21      21      22      20
      21      21      22      20      21      21      22      20      21      21
      22      20      21      21      22      20      21      21      22      20
      21      21      22      20      21      21      22      20      21      21
      22      20      21      21      22      20      21      21      22      20
      21      21      22      20      21      21      22      20      21      21
      22      20      21      21      22      20      21      21      22      20
      21      21      22      20      21      21      22      20      21      21
      22      20      21      21      22      20      21      21      22      20
      21      21      22      20      21      21      22      20      21      21
      22      20      21      21      22      20      21      21      22      20
      21      21      22      20      21      21      22      20      21      21
      22      20      21      21      22      20      21      21      22      20
      21      21      22      20      21      21      22      20      21      21
      22      20      21      21      22      20      21      21      22      20
      21      21      22      20      21      21      22      20      21      21
      22      20      21      21      22      20      21      21      22      20
      21      21      22      20      21      21      22      20      21      21
      22      20      21      21      22      20      21      21      22      20
      21      21      22      20      21      21      22      20      21      21
      22      20      21      21      22      20      21      21      22      20
      21      21      22      20      21      21      22      20      21      21
      22      20      21      21      22      20      21      21      22      20
      21      21      22      20      21      21      22      20      21      21
      22      20      21      21      22      20      21      21      22      20
      21      21      22      20      21      21      22      20      21      21
      22      20      21      21      22      20      21      21      22      20
      21      21      22      20      21      21      22      20      21      21
      22      20      21      21      22      20      21      21      22      20
      21      21      22      20      21      21      22      20      21      21
      22      20      21      21      22      20      21      21      22      20
      21      21      22      20      21      21      22      20      21      21
      22      20      21      21      22      20      21      21      22      20
      21      21      22      20      21      21      22      20      21      21
      22      20      21      21      22      20      21      21      22      20
      21      21      22      20      21      21      22      20      21      21
      22      20      21      21      22      20      21      21      22      20
      21      21      22      20      21      21      22      20      21      21
      22      20      21      21      22      20      21      21      22      20
      21      21      22      20      21      21      22      20      21      21
      22      20      21      21      22      20      21      21      22      20
      21      21      22      20      21      21      22      20      21      21
      22      20      21      21      22      20      21      21      22      20
      21      21      22      20      21      21      22      20      21      21
      22      20      21      21      22      20      21      21      22      20
      21      21      22      20      21      21      22      20      21      21
      22      20      21      21      22      20      21      21      22      20
      21      21      22      20      21      21      22      20      21      21
      22      20      21      21      22      20      21      21      22      20
      21      21      22      20      21      21      22      20      21      21
      22      20      21      21      22      20      21      21      22      20
      21      21      22      20      21      21      22      20      21      21
      22      20      21      21      22      20      21      21      22      20
      21      21      22      20      21      21      22      20      21      21
      22      20      21      21      22      20      21      21      22      20
      21      21      22      20      21      21      22      20      21      21
      22      20      21      21      22      20      21      21      22      20
      21      21      22      20      21      21      22      20      21      21
      22      20      21      21      22      20      21      21      22      20
      21      21      22      20      21      21      22      20      21      21
      22      20      21      21      22      20      21      21      22      20
      21      21      22      20      21      21      22      20      21      21
      22      20      21      21      22      20      21      21      22      20
      21      21      22      20      21      21      22      20      21      21
      22      20      21      21      22      20      21      21      22      20
      21      21      22      20      21      21      22      20      21      21
      22      20      21      21      22      20      21      21      22      20
      21      21      22      20      21      21      22      20      21      21
      22      20      21      21      22      20      21      21      22      20
      21      21      22      20      21      21      22      20      21      21
      22      20      21      21      22      20      21      21      22      20
      21      21      22      20      21      21      22      20      21      21
      22      20      21      21      22      20      21      21      22      20
      21      21      22      20      21      21      22      20      21      21
      22      20      21      21      22      20      21      21      22      20
      21      21      22      20      21      21      22      20      21      21
      22      20      21      21      22      20      21      21      22      20
      21      21      22      20      21      21      22      20      21      21
      22      20      21      21      22      20      21      21      22      20
      21      21      22      20      21      21      22      20      21      21
      22      20      21      21      22      20      21      21      22      20
      21      21      22      20      21      21      22      20      21      21
      22      20      21      21      22      20      21      21      22      20
      21      21      22      20      21      21      22      20      21      21
      22      20      21      21      22      20      21      21      22      20
      21      21      22      20      21      21      22      20      21      21
      22      20      21      21      22      20      21      21      22      20
      21      21      22      20      21      21      22      20      21      21
      22      20      21      21      22      20      21      21      22      20
      21      21      22      20      21      21      22      20      21      21
      22      20      21      21      22      20      21      21      22      20
      21      21      22      20      21      21      22      20      21      21
      22      20      21      21      22      20      21      21      22      20
      21      21      22      20      21      21      22      20      21      21
      22      20      21      21      22      20      21      21      22      20
      21      21      22      20      21      21      22      20      21      21
      22      20      21      21      22      20      21      21      22      20
      21      21      22      20      21      21      22      20      21      21
      22      20      21      21      22      20      21      21      22      20
      21      21      22      20      21      21      22      20      21      21
      22      20      21      21      22      20      21      21      22      20
      21      21      22      20      21      21      22      20      21      21
      22      20      21      21      22      20      21      21      22      20
      21      21      22      20      21      21      22      20      21      21
      22      20      21      21      22      20      21      21      22      20
      21      21      22      20      21      21      22      20      21      21
      22      20      21      21      22      20      21      21      22      20
      21      21      22      20      21      21      22      20      21      21
      22      20      21      21      22      20      21      21      22      20
      21      21      22      20      21      21      22      20      21      21
      22      20      21      21      22      20      21      21      22      20
      21      21      22      20      21      21      22      20      21      21
      22      20      21      21      22      20      21      21      22      20
      21      21      22      20      21      21      22      20      21      21
      22      20      21      21      22      20      21      21      22      20
      21      21      22      20      21      21      22      20      21      21
      22      20      21      21      22      20      21      21      22      20
      21      21      22      20      21      21      22      20      21      21
      22      20      21      21      22      20      21      21      22      20
      21      21      22      20      21      21      22      20      21      21
      22      20      21      21      22      20      21      21      22      20
      21      21      22      20      21      21      22      20      21      21
      22      20      21      21      22      20      21      21      22      20
      21      21      22      20      21      21      22      20      21      21
      22      20      21      21      22      20      21      21      22      20
      21      21      22      20      21      21      22      20      21      21
      22      20      21      21      22      20      21      21      22      20
      21      21      22      20      21      21      22      20      21      21
      22      20      21      21      22      20      21      21      22      20
      21      21      22      20      21      21      22      20      21      21
      22      20      21      21      22      20      21      21      22      20
      21      21      22      20      21      21      22      20      21      21
      22      20      21      21      22      20      21      21      22      20
      21      21      22      20      21      21      22      20      21      21
      22      20      21      21      22      20      21      21      22      20
      21      21      22      20      21      21      22      20      21      21
      22      20      21      21      22      20      21      21      22      20
      21      21      22      20      21      21      22      20      21      21
      22      20      21      21      22      20      21      21      22      20
      21      21      22      20      21      21      22      20      21      21
      22      20      21      21      22      20      21      21      22      20
      21      21      22      20      21      21      22      20      21      21
      22      20      21      21      22      20      21      21      22      20
      21      21      22      20      21      21      22      20      21      21
      22      20      21      21      22      20      21      21      22      20
      21      21      22      20      21      21      22      20      21      21
      22      20      21      21      22      20      21      21      22      20
      21      21      22      20      21      21      22      20      21      21
      22      20      21      21      22      20      21      21      22      20
      21      21      22      20      21      21      22      20      21      21
      22      20      21      21      22      20      21      21      22      20
      21      21      22      20      21      21      22      20      21      21
      22      20      21      21      22      20      21      21      22      20
      21      21      22      20      21      21      22      20      21      21
      22      20      21      21      22      20      21      21      22      20
      21      21      22      20      21      21      22      20      21      21
      22      20      21      21      22      20      21      21      22      20
      21      21      22      20      21      21      22      20      21      21
      22      20      21      21      22      20      21      21      22      20
      21      21      22      20      21      21      22      20      21      21
      22      20      21      21      22      20      21      21      22      20
      21      21      22      20      21      21      22      20      21      21
      22      20      21      21      22      20      21      21      22      20
      21      21      22      20      21      21      22      20      21      21
      22      20      21      21      22      20      21      21      22      20
      21      21      22      20      21      21      22      20      21      21
      22      20      21      21      22      20      21      21      22      20
      21      21      22      20      21      21      22      20      21      21
      22      20      21      21      22      20      21      21      22      20
      21      21      22      20      21      21      22      20      21      21
      22      20      21      21      22      20      21      21      22      20
      21      21      22      20      21      21      22      20      21      21
      22      20      21      21      22      20      21      21      22      20
      21      21      22      20      21      21      22      20      21      21
      22      20      21      21      22      20      21      21      22      20
      21      21      22      20      21      21      22      20      21      21
      22      20      21      21      22      20      21      21      22      20
      21      21      22      20      21      21      22      20      21      21
      22      20      21      21      22      20      21      21      22      20
      21      21      22      20      21      21      22      20      21      21
      22      20      21      21      22      20      21      21      22      20
      21      21      22      20      21      21      22      20      21      21
      22      20      21      21      22      20      21      21      22      20
      21      21      22      20      21      21      22      20      21      21
      22      20      21      21      22      20      21      21      22      20
      21      21      22      20      21      21      22      20      21      21
      22      20      21      21      22      20      21      21      22      20
      21      21      22      20      21      21      22      20      21      21
      22      20      21      21      22      20      21      21      22      20
      21      21      22      20      21      21      22      20      21      21
      22      20      21      21      22      20      21      21      22      20
      21      21      22      20      21      21      22      20      21      21
      22      20      21      21      22      20      21      21      22      20
      21      21      22      20      21      21      22      20      21      21
      22      20      21      21      22      20      21      21      22      20
      21      21      22      20      21      21      22      20      21      21
      22      20      21      21      22      20      21      21      22      20
      21      21      22      20      21      21      22      20      21      21
      22      20      21      21      22      20      21      21      22      20
      21      21      22      20      21      21      22      20      21      21
      22      20      21      21      22      20      21      21      22      20
      21      21      22      20      21      21      22      20      21      21
      22      20      21      21      22      20      21      21      22      20
      21      21      22      20      21      21      22      20      21      21
      22      20      21      21      22      20      21      21      22      20
      21      21      22      20      21      21      22      20      21      21
      22      20      21      21      22      20      21      21      22      20
      21      21      22      20      21      21      22      20      21      21
      22      20      21      21      22      20      21      21      22      20
      21      21      22      20      21      21      22      20      21      21
      22      20      21      21      22      20      21      21      22      20
      21      21      22      20      21      21      22      20      21      21
      22      20      21      21      22      20      21      21      22      20
      21      21      22      20      21      21      22      20      21      21
      22      20      21      21      22      20      21      21      22      20
      21      21      22      20      21      21      22      20      21      21
      22      20      21      21      22      20      21      21      22      20
      21      21      22      20      21      21      22      20      21      21
      22      20      21      21      22      20      21      21      22      20
      21      21      22      20      21      21      22      20      21      21
      22      20      21      21      22      20      21      21      22      20
      21      21      22      20      21      21      22      20      21      21
      22      20      21      21      22      20      21      21      22      20
      21      21      22      20      21      21      22      20      21      21
      22      20      21      21      22      20      21      21      22      20
      21      21      22      20      21      21      22      20      21      21
      22      20      21      21      22      20      21      21      22      20
      21      21      22      20      21      21      22      20      21      21
      22      20      21      21      22      20      21      21      22      20
      21      21      22      20      21      21      22      20      21      21
      22      20      21      21      22      20      21      21      22      20
      21      21      22      20      21      21      22      20      21      21
      22      20      21      21      22      20      21      21      22      20
      21      21      22      20      21      21      22      20      21      21
      22      20      21      21      22      20      21      21      22      20
      21      21      22      20      21      21      22      20      21      21
      22      20      21      21      22      20      21      21      22      20
      21      21      22      20      21      21      22      20      21      21
      22      20      21      21      22      20      21      21      22      20
      21      21      22      20      21      21      22      20      21      21
      22      20      21      21      22      20      21      21      22      20
      21      21      22      20      21      21      22      20      21      21
      22      20      21      21      22      20      21      21      22      20
      21      21      22      20      21      21      22      20      21      21
      22      20      21      21      22      20      21      21      22      20
      21      21      22      20      21      21      22      20      21      21
      22      20      21      21      22      20      21      21      22      20
      21      21      22      20      21      21      22      20      21      21
      22      20      21      21      22      20      21      21      22      20
      21      21      22      20      21      21      22      20      21      21
      22      20      21      21      22      20      21      21      22      20
      21      21      22      20      21      21      22      20      21      21
      22      20      21      21      22      20      21      21      22      20
      21      21      22      20      21      21      22      20      21      21
      22      20      21      21      22      20      21      21      22      20
      21      21      22      20      21      21      22      20      21      21
      22      20      21      21      22      20      21      21      22      20
      21      21      22      20      21      21      22      20      21      21
      22      20      21      21      22      20      21      21      22      20
      21      21      22      20      21      21      22      20      21      21
      22      20      21      21      22      20      21      21      22      20
      21      21      22      20      21      21      22      20      21      21
      22      20      21      21      22      20      21      21      22      20
      21      21      22      20      21      21      22      20      21      21
      22      20      21      21      22      20      21      21      22      20
      21      21      22      20      21      21      22      20      21      21
      22      20      21      21      22      20      21      21      22      20
      21      21      22      20      21      21      22      20      21      21
      22      20      21      21      22      20      21      21      22      20
      21      21      22      20      21      21      22      20      21      21
      22      20      21      21      22      20      21      21      22      20
      21      21      22      20      21      21      22      20      21      21
      22      20      21      21      22      20      21      21      22      20
      21      21      22      20      21      21      22      20      21      21
      22      20      21      21      22      20      21      21      22      20
      21      21      22      20      21      21      22      20      21      21
      22      20      21      21      22      20      21      21      22      20
      21      21      22      20      21      21      22      20      21      21
      22      20      21      21      22      20      21      21      22      20
      21      21      22      20      21      21      22      20      21      21
      22      20      21      21      22      20      21      21      22      20
      21      21      22      20      21      21      22      20      21      21
      22      20      21      21      22      20      21      21      22      20
      21      21      22      20      21      21      22      20      21      21
      22      20      21      21      22      20      21      21      22      20
      21      21      22      20      21      21      22      20      21      21
      22      20      21      21      22      20      21      21      22      20
      21      21      22      20      21      21      22      20      21      21
      22      20      21      21      22      20      21      21      22      20
      21      21      22      20      21      21      22      20      21      21
      22      20      21      21      22      20      21      21      22      20
      21      21      22      20      21      21      22      20      21      21
      22      20      21      21      22      20      21      21      22      20
      21      21      22      20      21      21      22      20      21      21
      22      20      21      21      22      20      21      21      22      20
      21      21      22      20      21      21      22      20      21      21
      22      20      21      21      22      20      21      21      22      20
      21      21      22      20      21      21      22      20      21      21
      22      20      21      21      22      20      21      21      22      20
      21      21      22      20      21      21      22      20      21      21
      22      20      21      21      22      20      21      21      22      20
      21      21      22      20      21      21      22      20      21      21
      22      20      21      21      22      20      21      21      22      20
      21      21      22      20      21      21      22      20      21      21
      22      20      21      21      22      20      21      21      22      20
      21      21      22      20      21      21      22      20      21      21
      22      20      21      21      22      20      21      21      22      20
      21      21      22      20      21      21      22      20      21      21
      22      20      21      21      22      20      21      21      22      20
      21      21      22      20      21      21      22      20      21      21
      22      20      21      21      22      20      21      21      22      20
      21      21      22      20      21      21      22      20      21      21
      22      20      21      21      22      20      21      21      22      20
      21      21      22      20      21      21      22      20      21      21
      22      20      21      21      22      20      21      21      22      20
      21      21      22      20      21      21      22      20      21      21
      22      20      21      21      22      20      21      21      22      20
      21      21      22      20      21      21      22      20      21      21
      22      20      21      21      22      20      21      21      22      20
      21      21      22      20      21      21      22      20      21      21
      22      20      21      21      22      20      21      21      22      20
      21      21      22      20      21      21      22      20      21      21
      22      20      21      21      22      20      21      21      22      20
      21      21      22      20      21      21      22      20      21      21
      22      20      21      21      22      20      21      21      22      20
      21      21      22      20      21      21      22      20      21      21
      22      20      21      21      22      20      21      21      22      20
      21      21      22      20      21      21      22      20      21      21
      22      20      21      21      22      20      21      21      22      20
      21      21      22      20      21      21      22      20      21      21
      22      20      21      21      22      20      21      21      22      20
      21      21      22      20      21      21      22      20      21      21
      22      20      21      21      22      20      21      21      22      20
      21      21      22      20      21      21      22      20      21      21
      22      20      21      21      22      20      21      21      22      20
      21      21      22      20      21      21      22      20      21      21
      22      20      21      21      22      20      21      21      22      20
      21      21      22      20      21      21      22      20      21      21
      22      20      21      21      22      20      21      21      22      20
      21      21      22      20      21      21      22      20      21      21
      22      20      21      21      22      20      21      21      22      20
      21      21      22      20      21      21      22      20      21      21
      22      20      21      21      22      20      21      21      22      20
      21      21      22      20      21      21      22      20      21      21
      22      20      21      21      22      20      21      21      22      20
      21      21      22      20      21      21      22      20      21      21
      22      20      21      21      22      20      21      21      22      20
      21      21      22      20      21      21      22      20      21      21
      22      20      21      21      22      20      21      21      22      20
      21      21      22      20      21      21      22      20      21      21
      22      20      21      21      22      20      21      21      22      20
      21      21      22      20      21      21      22      20      21      21
      22      20      21      21      22      20      21      21      22      20
      21      21      22      20      21      21      22      20      21      21
      22      20      21      21      22      20      21      21      22      20
      21      21      22      20      21      21      22      20      21      21
      22      20      21      21      22      20      21      21      22      20
      21      21      22      20      21      21      22      20      21      21
      22      20      21      21      22      20      21      21      22      20
      21      21      22      20      21      21      22      20      21      21
      22      20      21      21      22      20      21      21      22      20
      21      21      22      20      21      21      22      20      21      21
      22      20      21      21      22      20      21      21      22      20
      21      21      22      20      21      21      22      20      21      21
      22      20      21      21      22      20      21      21      22      20
      21      21      22      20      21      21      22      20      21      21
      22      20      21      21      22      20      21      21      22      20
      21      21      22      20      21      21      22      20      21      21
      22      20      21      21      22      20      21      21      22      20
      21      21      22      20      21      21      22      20      21      21
      22      20      21      21      22      20      21      21      22      20
      21      21      22      20      21      21      22      20      21      21
      22      20      21      21      22      20      21      21      22      20
      21      21      22      20      21      21      22      20      21      21
      22      20      21      21      22      20      21      21      22      20
      21      21      22      20      21      21      22      20      21      21
      22      20      21      21      22      20      21      21      22      20
      21      21      22      20      21      21      22      20      21      21
      22      20      21      21      22      20      21      21      22      20
      21      21      22      20      21      21      22      20      21      21
      22      20      21      21      22      20      21      21      22      20
      21      21      22      20      21      21      22      20      21      21
      22      20      21      21      22      20      21      21      22      20
      21      21      22      20      21      21      22      20      21      21
      22      20      21      21      22      20      21      21      22      20
      21      21      22      20      21      21      22      20      21      21
      22      20      21      21      22      20      21      21      22      20
      21      21      22      20      21      21      22      20      21      21
      22      20      21      21      22      20      21      21      22      20
      21      21      22      20      21      21      22      20      21      21
      22      20      21      21      22      20      21      21      22      20
      21      21      22      20      21      21      22      20      21      21
      22      20      21      21      22      20      21      21      22      20
      21      21      22      20      21      21      22      20      21      21
      22      20      21      21      22      20      21      21      22      20
      21      21      22      20      21      21      22      20      21      21
      22      20      21      21      22      20      21      21      22      20
      21      21      22      20      21      21      22      20      21      21
      22      20      21      21      22      20      21      21      22      20
      21      21      22      20      21      21      22      20      21      21
      22      20      21      21      22      20      21      21      22      20
      21      21      22      20      21      21      22      20      21      21
      22      20      21      21      22      20      21      21      22      20
      21      21      22      20      21      21      22      20      21      21
      22      20      21      21      22      20      21      21      22      20
      21      21      22      20      21      21      22      20      21      21
      22      20      21      21      22      20      21      21      22      20
      21      21      22      20      21      21      22      20      21      21
      22      20      21      21      22      20      21      21      22      20
      21      21      22      20      21      21      22      20      21      21
      22      20      21      21      22      20      21      21      22      20
      21      21      22      20      21      21      22      20      21      21
      22      20      21      21      22      20      21      21      22      20
      21      21      22      20      21      21      22      20      21      21
      22      20      21      21      22      20      21      21      22      20
      21      21      22      20      21      21      22      20      21      21
      22      20      21      21      22      20      21      21      22      20
      21      21      22      20      21      21      22      20      21      21
      22      20      21      21      22      20      21      21      22      20
      21      21      22      20      21      21      22      20      21      21
      22      20      21      21      22      20      21      21      22      20
      21      21      22      20      21      21      22      20      21      21
      22      20      21      21      22      20      21      21      22      20
      21      21      22      20      21      21      22      20      21      21
      22      20      21      21      22      20      21      21      22      20
      21      21      22      20      21      21      22      20      21      21
      22      20      21      21      22      20      21      21      22      20
      21      21      22      20      21      21      22      20      21      21
      22      20      21      21      22      20      21      21      22      20
      21      21      22      20      21      21      22      20      21      21
      22      20      21      21      22      20      21      21      22      20
      21      21      22      20      21      21      22      20      21      21
      22      20      21      21      22      20      21      21      22      20
      21      21      22      20      21      21      22      20      21      21
      22      20      21      21      22      20      21      21      22      20
      21      21      22      20      21      21      22      20      21      21
      22      20      21      21      22      20      21      21      22      20
      21      21      22      20      21      21      22      20      21      21
      22      20      21      21      22      20      21      21      22      20
      21      21      22      20      21      21      22      20      21      21
      22      20      21      21      22      20      21      21      22      20
      21      21      22      20      21      21      22      20      21      21
      22      20      21      21      22      20      21      21      22      20
      21      21      22      20      21      21      22      20      21      21
      22      20      21      21      22      20      21      21      22      20
      21      21      22      20      21      21      22      20      21      21
      22      20      21      21      22      20      21      21      22      20
      21      21      22      20      21      21      22      20      21      21
      22      20      21      21      22      20      21      21      22      20
      21      21      22      20      21      21      22      20      21      21
      22      20      21      21      22      20      21      21      22      20
      21      21      22      20      21      21      22      20      21      21
      22      20      21      21      22      20      21      21      22      20
      21      21      22      20      21      21      22      20      21      21
      22      20      21      21      22      20      21      21      22      20
      21      21      22      20      21      21      22      20      21      21
      22      20      21      21      22      20      21      21      22      20
      21      21      22      20      21      21      22      20      21      21
      22      20      21      21      22      20      21      21      22      20
      21      21      22      20      21      21      22      20      21      21
      22      20      21      21      22      20      21      21      22      20
      21      21      22      20      21      21      22      20      21      21
      22      20      21      21      22      20      21      21      22      20
      21      21      22      20      21      21      22      20      21      21
      22      20      21      21      22      20      21      21      22      20
      21      21      22      20      21      21      22      20      21      21
      22      20      21      21      22      20      21      21      22      20
      21      21      22      20      21      21      22      20      21      21
      22      20      21      21      22      20      21      21      22      20
      21      21      22      20      21      21      22      20      21      21
      22      20      21      21      22      20      21      21      22      20
      21      21      22      20      21      21      22      20      21      21
      22      20      21      21      22      20      21      21      22      20
      21      21      22      20      21      21      22      20      21      21
      22      20      21      21      22      20      21      21      22      20
      21      21      22      20      21      21      22      20      21      21
      22      20      21      21      22      20      21      21      22      20
      21      21      22      20      21      21      22      20      21      21
      22      20      21      21      22      20      21      21      22      20
      21      21      22      20      21      21      22      20      21      21
      22      20      21      21      22      20      21      21      22      20
      21      21      22      20      21      21      22      20      21      21
      22      20      21      21      22      20      21      21      22      20
      21      21      22      20      21      21      22      20      21      21
      22      20      21      21      22      20      21      21      22      20
      21      21      22      20      21      21      22      20      21      21
      22      20      21      21      22      20      21      21      22      20
      21      21      22      20      21      21      22      20      21      21
      22      20      21      21      22      20      21      21      22      20
      21      21      22      20      21      21      22      20      21      21
      22      20      21      21      22      20      21      21      22      20
      21      21      22      20      21      21      22      20      21      21
      22      20      21      21      22      20      21      21      22      20
      21      21      22      20      21      21      22      20      21      21
      22      20      21      21      22      20      21      21      22      20
      21      21      22      20      21      21      22      20      21      21
      22      20      21      21      22      20      21      21      22      20
      21      21      22      20      21      21      22      20      21      21
      22      20      21      21      22      20      21      21      22      20
      21      21      22      20      21      21      22      20      21      21
      22      20      21      21      22      20      21      21      22      20
      21      21      22      20      21      21      22      20      21      21
      22      20      21      21      22      20      21      21      22      20
      21      21      22      20      21      21      22      20      21      21
      22      20      21      21      22      20      21      21      22      20
      21      21      22      20      21      21      22      20      21      21
      22      20      21      21      22      20      21      21      22      20
      21      21      22      20      21      21      22      20      21      21
      22      20      21      21      22      20      21      21      22      20
      21      21      22      20      21      21      22      20      21      21
      22      20      21      21      22      20      21      21      22      20
      21      21      22      20      21      21      22      20      21      21
      22      20      21      21      22      20      21      21      22      20
      21      21      22      20      21      21      22      20      21      21
      22      20      21      21      22      20      21      21      22      20
      21      21      22      20      21      21      22      20      21      21
      22      20      21      21      22      20      21      21      22      20
      21      21      22      20      21      21      22      20      21      21
      22      20      21      21      22      20      21      21      22      20
      21      21      22      20      21      21      22      20      21      21
      22      20      21      21      22      20      21      21      22      20
      21      21      22      20      21      21      22      20      21      21
      22      20      21      21      22      20      21      21      22      20
      21      21      22      20      21      21      22      20      21      21
      22      20      21      21      22      20      21      21      22      20
      21      21      22      20      21      21      22      20      21      21
      22      20      21      21      22      20      21      21      22      20
      21      21      22      20      21      21      22      20      21      21
      22      20      21      21      22      20      21      21      22      20
      21      21      22      20      21      21      22      20      21      21
      22      20      21      21      22      20      21      21      22      20
      21      21      22      20      21      21      22      20      21      21
      22      20      21      21      22      20      21      21      22      20
      21      21      22      20      21      21      22      20      21      21
      22      20      21      21      22      20      21      21      22      20
      21      21      22      20      21      21      22      20      21      21
      22      20      21      21      22      20      21      21      22      20
      21      21      22      20      21      21      22      20      21      21
      22      20      21      21      22      20      21      21      22      20
      21      21      22      20      21      21      22      20      21      21
      22      20      21      21      22      20      21      21      22      20
      21      21      22      20      21      21      22      20      21      21
      22      20      21      21      22      20      21      21      22      20
      21      21      22      20      21      21      22      20      21      21
      22      20      21      21      22      20      21      21      22      20
      21      21      22      20      21      21      22      20      21      21
      22      20      21      21      22      20      21      21      22      20
      21      21      22      20      21      21      22      20      21      21
      22      20      21      21      22      20      21      21      22      20
      21      21      22      20      21      21      22      20      21      21
      22      20      21      21      22      20      21      21      22      20
      21      21      22      20      21      21      22      20      21      21
      22      20      21      21      22      20      21      21      22      20
      21      21      22      20      21      21      22      20      21      21
      22      20      21      21      22      20      21      21      22      20
      21      21      22      20      21      21      22      20      21      21
      22      20      21      21      22      20      21      21      22      20
      21      21      22      20      21      21      22      20      21      21
      22      20      21      21      22      20      21      21      22      20
      21      21      22      20      21      21      22      20      21      21
      22      20      21      21      22      20      21      21      22      20
      21      21      22      20      21      21      22      20      21      21
      22      20      21      21      22      20      21      21      22      20
      21      21      22      20      21      21      22      20      21      21
      22      20      21      21      22      20      21      21      22      20
      21      21      22      20      21      21      22      20      21      21
      22      20      21      21      22      20      21      21      22      20
      21      21      22      20      21      21      22      20      21      21
      22      20      21      21      22      20      21      21      22      20
      21      21      22      20      21      21      22      20      21      21
      22      20      21      21      22      20      21      21      22      20
      21      21      22      20      21      21      22      20      21      21
      22      20      21      21      22      20      21      21      22      20
      21      21      22      20      21      21      22      20      21      21
      22      20      21      21      22      20      21      21      22      20
      21      21      22      20      21      21      22      20      21      21
      22      20      21      21      22      20      21      21      22      20
      21      21      22      20      21      21      22      20      21      21
      22      20      21      21      22      20      21      21      22      20
      21      21      22      20      21      21      22      20      21      21
      22      20      21      21      22      20      21      21      22      20
      21      21      22      20      21      21      22      20      21      21
      22      20      21      21      22      20      21      21      22      20
      21      21      22      20      21      21      22      20      21      21
      22      20      21      21      22      20      21      21      22      20
      21      21      22      20      21      21      22      20      21      21
      22      20      21      21      22      20      21      21      22      20
      21      21      22      20      21      21      22      20      21      21
      22      20      21      21      22      20      21      21      22      20
      21      21      22      20      21      21      22      20      21      21
      22      20      21      21      22      20      21      21      22      20
      21      21      22      20      21      21      22      20      21      21
      22      20      21      21      22      20      21      21      22      20
      21      21      22      20      21      21      22      20      21      21
      22      20      21      21      22      20      21      21      22      20
      21      21      22      20      21      21      22      20      21      21
      22      20      21      21      22      20      21      21      22      20
      21      21      22      20      21      21      22      20      21      21
      22      20      21      21      22      20      21      21      22      20
      21      21      22      20      21      21      22      20      21      21
      22      20      21      21      22      20      21      21      22      20
      21      21      22      20      21      21      22      20      21      21
      22      20      21      21      22      20      21      21      22      20
      21      21      22      20      21      21      22      20      21      21
      22      20      21      21      22      20      21      21      22      20
      21      21      22      20      21      21      22      20      21      21
      22      20      21      21      22      20      21      21      22      20
      21      21      22      20      21      21      22      20      21      21
      22      20      21      21      22      20      21      21      22      20
      21      21      22      20      21      21      22      20      21      21
      22      20      21      21      22      20      21      21      22      20
      21      21      22      20      21      21      22      20      21      21
      22      20      21      21      22      20      21      21      22      20
      21      21      22      20      21      21      22      20      21      21
      22      20      21      21      22      20      21      21      22      20
      21      21      22      20      21      21      22      20      21      21
      22      20      21      21      22      20      21      21      22      20
      21      21      22      20      21      21      22      20      21      21
      22      20      21      21      22      20      21      21      22      20
      21      21      22      20      21      21      22      20      21      21
      22      20      21      21      22      20      21      21      22      20
      21      21      22      20      21      21      22      20      21      21
      22      20      21      21      22      20      21      21      22      20
      21      21      22      20      21      21      22      20      21      21
      22      20      21      21      22      20      21      21      22      20
      21      21      22      20      21      21      22      20      21      21
      22      20      21      21      22      20      21      21      22      20
      21      21      22      20      21      21      22      20      21      21
      22      20      21      21      22      20      21      21      22      20
      21      21      22      20      21      21      22      20      21      21
      22      20      21      21      22      20      21      21      22      20
      21      21      22      20      21      21      22      20      21      21
      22      20      21      21      22      20      21      21      22      20
      21      21      22      20      21      21      22      20      21      21
      22      20      21      21      22      20      21      21      22      20
      21      21      22      20      21      21      22      20      21      21
      22      20      21      21      22      20      21      21      22      20
      21      21      22      20      21      21      22      20      21      21
      22      20      21      21      22      20      21      21      22      20
      21      21      22      20      21      21      22      20      21      21
      22      20      21      21      22      20      21      21      22      20
      21      21      22      20      21      21      22      20      21      21
      22      20      21      21      22      20      21      21      22      20
      21      21      22      20      21      21      22      20      21      21
      22      20      21      21      22      20      21      21      22      20
      21      21      22      20      21      21      22      20      21      21
      22      20      21      21      22      20      21      21      22      20
      21      21      22      20      21      21      22      20      21      21
      22      20      21      21      22      20      21      21      22      20
      21      21      22      20      21      21      22      20      21      21
      22      20      21      21      22      20      21      21      22      20
      21      21      22      20      21      21      22      20      21      21
      22      20      21      21      22      20      21      21      22      20
      21      21      22      20      21      21      22      20      21      21
      22      20      21      21      22      20      21      21      22      20
      21      21      22      20      21      21      22      20      21      21
      22      20      21      21      22      20      21      21      22      20
      21      21      22      20      21      21      22      20      21      21
      22      20      21      21      22      20      21      21      22      20
      21      21      22      20      21      21      22      20      21      21
      22      20      21      21      22      20      21      21      22      20
      21      21      22      20      21      21      22      20      21      21
      22      20      21      21      22      20      21      21      22      20
      21      21      22      20      21      21      22      20      21      21
      22      20      21      21      22      20      21      21      22      20
      21      21      22      20      21      21      22      20      21      21
      22      20      21      21      22      20      21      21      22      20
      21      21      22      20      21      21      22      20      21      21
      22      20      21      21      22      20      21      21      22      20
      21      21      22      20      21      21      22      20      21      21
      22      20      21      21      22      20      21      21      22      20
      21      21      22      20      21      21      22      20      21      21
      22      20      21      21      22      20      21      21      22      20
      21      21      22      20      21      21      22      20      21      21
      22      20      21      21      22      20      21      21      22      20
      21      21      22      20      21      21      22      20      21      21
      22      20      21      21      22      20      21      21      22      20
      21      21      22      20      21      21      22      20      21      21
      22      20      21      21      22      20      21      21      22      20
      21      21      22      20      21      21      22      20      21      21
      22      20      21      21      22      20      21      21      22      20
      21      21      22      20      21      21      22      20      21      21
      22      20      21      21      22      20      21      21      22      20
      21      21      22      20      21      21      22      20      21      21
      22      20      21      21      22      20      21      21      22      20
      21      21      22      20      21      21      22      20      21      21
      22      20      21      21      22      20      21      21      22      20
      21      21      22      20      21      21      22      20      21      21
      22      20      21      21      22      20      21      21      22      20
      21      21      22      20      21      21      22      20      21      21
      22      20      21      21      22      20      21      21      22      20
      21      21      22      20      21      21      22      20      21      21
      22      20      21      21      22      20      21      21      22      20
      21      21      22      20      21      21      22      20      21      21
      22      20      21      21      22      20      21      21      22      20
      21      21      22      20      21      21      22      20      21      21
      22      20      21      21      22      20      21      21      22      20
      21      21      22      20      21      21      22      20      21      21
      22      20      21      21      22      20      21      21      22      20
      21      21      22      20      21      21      22      20      21      21
      22      20      21      21      22      20      21      21      22      20
      21      21      22      20      21      21      22      20      21      21
      22      20      21      21      22      20      21      21      22      20
      21      21      22      20      21      21      22      20      21      21
      22      20      21      21      22      20      21      21      22      20
      21      21      22      20      21      21      22      20      21      21
      22      20      21      21      22      20      21      21      22      20
      21      21      22      20      21      21      22      20      21      21
      22      20      21      21      22      20      21      21      22      20
      21      21      22      20      21      21      22      20      21      21
      22      20      21      21      22      20      21      21      22      20
      21      21      22      20      21      21      22      20      21      21
      22      20      21      21      22      20      21      21      22      20
      21      21      22      20      21      21      22      20      21      21
      22      20      21      21      22      20      21      21      22      20
      21      21      22      20      21      21      22      20      21      21
      22      20      21      21      22      20      21      21      22      20
      21      21      22      20      21      21      22      20      21      21
      22      20      21      21      22      20      21      21      22      20
      21      21      22      20      21      21      22      20      21      21
      22      20      21      21      22      20      21      21      22      20
      21      21      22      20      21      21      22      20      21      21
      22      20      21      21      22      20      21      21      22      20
      21      21      22      20      21      21      22      20      21      21
      22      20      21      21      22      20      21      21      22      20
      21      21      22      20      21      21      22      20      21      21
      22      20      21      21      22      20      21      21      22      20
      21      21      22      20      21      21      22      20      21      21
      22      20      21      21      22      20      21      21      22      20
      21      21      22      20      21      21      22      20      21      21
      22      20      21      21      22      20      21      21      22      20
      21      21      22      20      21      21      22      20      21      21
      22      20      21      21      22      20      21      21      22      20
      21      21      22      20      21      21      22      20      21      21
      22      20      21      21      22      20      21      21      22      20
      21      21      22      20      21      21      22      20      21      21
      22      20      21      21      22      20      21      21      22      20
      21      21      22      20      21      21      22      20      21      21
      22      20      21      21      22      20      21      21      22      20
      21      21      22      20      21      21      22      20      21      21
      22      20      21      21      22      20      21      21      22      20
      21      21      22      20      21      21      22      20      21      21
      22      20      21      21      22      20      21      21      22      20
      21      21      22      20      21      21      22      20      21      21
      22      20      21      21      22      20      21      21      22      20
      21      21      22      20      21      21      22      20      21      21
      22      20      21      21      22      20      21      21      22      20
      21      21      22      20      21      21      22      20      21      21
      22      20      21      21      22      20      21      21      22      20
      21      21      22      20      21      21      22      20      21      21
      22      20      21      21      22      20      21      21      22      20
      21      21      22      20      21      21      22      20      21      21
      22      20      21      21      22      20      21      21      22      20
      21      21      22      20      21      21      22      20      21      21
      22      20      21      21      22      20      21      21      22      20
      21      21      22      20      21      21      22      20      21      21
      22      20      21      21      22      20      21      21      22      20
      21      21      22      20      21      21      22      20      21      21
      22      20      21      21      22      20      21      21      22      20
      21      21      22      20      21      21      22      20      21      21
      22      20      21      21      22      20      21      21      22      20
      21      21      22      20      21      21      22      20      21      21
      22      20      21      21      22      20      21      21      22      20
      21      21      22      20      21      21      22      20      21      21
      22      20      21      21      22      20      21      21      22      20
      21      21      22      20      21      21      22      20      21      21
      22      20      21      21      22      20      21      21      22      20
      21      21      22      20      21      21      22      20      21      21
      22      20      21      21      22      20      21      21      22      20
      21      21      22      20      21      21      22      20      21      21
      22      20      21      21      22      20      21      21      22      20
      21      21      22      20      21      21      22      20      21      21
      22      20      21      21      22      20      21      21      22      20
      21      21      22      20      21      21      22      20      21      21
      22      20      21      21      22      20      21      21      22      20
      21      21      22      20      21      21      22      20      21      21
      22      20      21      21      22      20      21      21      22      20
      21      21      22      20      21      21      22      20      21      21
      22      20      21      21      22      20      21      21      22      20
      21      21      22      20      21      21      22      20      21      21
      22      20      21      21      22      20      21      21      22      20
      21      21      22      20      21      21      22      20      21      21
      22      20      21      21      22      20      21      21      22      20
      21      21      22      20      21      21      22      20      21      21
      22      20      21      21      22      20      21      21      22      20
      21      21      22      20      21      21      22      20      21      21
      22      20      21      21      22      20      21      21      22      20
      21      21      22      20      21      21      22      20      21      21
      22      20      21      21      22      20      21      21      22      20
      21      21      22      20      21      21      22      20      21      21
      22      20      21      21      22      20      21      21      22      20
      21      21      22      20      21      21      22      20      21      21
      22      20      21      21      22      20      21      21      22      20
      21      21      22      20      21      21      22      20      21      21
      22      20      21      21      22      20      21      21      22      20
      21      21      22      20      21      21      22      20      21      21
      22      20      21      21      22      20      21      21      22      20
      21      21      22      20      21      21      22      20      21      21
      22      20      21      21      22      20      21      21      22      20
      21      21      22      20      21      21      22      20      21      21
      22      20      21      21      22      20      21      21      22      20
      21      21      22      20      21      21      22      20      21      21
      22      20      21      21      22      20      21      21      22      20
      21      21      22      20      21      21      22      20      21      21
      22      20      21      21      22      20      21      21      22      20
      21      21      22      20      21      21      22      20      21      21
      22      20      21      21      22      20      21      21      22      20
      21      21      22      20      21      21      22      20      21      21
      22      20      21      21      22      20      21      21      22      20
      21      21      22      20      21      21      22      20      21      21
      22      20      21      21      22      20      21      21      22      20
      21      21      22      20      21      21      22      20      21      21
      22      20      21      21      22      20      21      21      22      20
      21      21      22      20      21      21      22      20      21      21
      22      20      21      21      22      20      21      21      22      20
      21      21      22      20      21      21      22      20      21      21
      22      20      21      21      22      20      21      21      22      20
      21      21      22      20      21      21      22      20      21      21
      22      20      21      21      22      20      21      21      22      20
      21      21      22      20      21      21      22      20      21      21
      22      20      21      21      22      20      21      21      22      20
      21      21      22      20      21      21      22      20      21      21
      22      20      21      21      22      20      21      21      22      20
      21      21      22      20      21      21      22      20      21      21
      22      20      21      21      22      20      21      21      22      20
      21      21      22      20      21      21      22      20      21      21
      22      20      21      21      22      20      21      21      22      20
      21      21      22      20      21      21      22      20      21      21
      22      20      21      21      22      20      21      21      22      20
      21      21      22      20      21      21      22      20      21      21
      22      20      21      21      22      20      21      21      22      20
      21      21      22      20      21      21      22      20      21      21
      22      20      21      21      22      20      21      21      22      20
      21      21      22      20      21      21      22      20      21      21
      22      20      21      21      22      20      21      21      22      20
      21      21      22      20      21      21      22      20      21      21
      22      20      21      21      22      20      21      21      22      20
      21      21      22      20      21      21      22      20      21      21
      22      20      21      21      22      20      21      21      22      20
      21      21      22      20      21      21      22      20      21      21
      22      20      21      21      22      20      21      21      22      20
      21      21      22      20      21      21      22      20      21      21
      22      20      21      21      22      20      21      21      22      20
      21      21      22      20      21      21      22      20      21      21
      22      20      21      21      22      20      21      21      22      20
      21      21      22      20      21      21      22      20      21      21
      22      20      21      21      22      20      21      21      22      20
      21      21      22      20      21      21      22      20      21      21
      22      20      21      21      22      20      21      21      22      20
      21      21      22      20      21      21      22      20      21      21
      22      20      21      21      22      20      21      21      22      20
      21      21      22      20      21      21      22      20      21      21
      22      20      21      21      22      20      21      21      22      20
      21      21      22      20      21      21      22      20      21      21
      22      20      21      21      22      20      21      21      22      20
      21      21      22      20      21      21      22      20      21      21
      22      20      21      21      22      20      21      21      22      20
      21      21      22      20      21      21      22      20      21      21
      22      20      21      21      22      20      21      21      22      20
      21      21      22      20      21      21      22      20      21      21
      22      20      21      21      22      20      21      21      22      20
      21      21      22      20      21      21      22      20      21      21
      22      20      21      21      22      20      21      21      22      20
      21      21      22      20      21      21      22      20      21      21
      22      20      21      21      22      20      21      21      22      20
      21      21      22      20      21      21      22      20      21      21
      22      20      21      21      22      20      21      21      22      20
      21      21      22      20      21      21      22      20      21      21
      22      20      21      21      22      20      21      21      22      20
      21      21      22      20      21      21      22      20      21      21
      22      20      21      21      22      20      21      21      22      20
      21      21      22      20      21      21      22      20      21      21
      22      20      21      21      22      20      21      21      22      20
      21      21      22      20      21      21      22      20      21      21
      22      20      21      21      22      20      21      21      22      20
      21      21      22      20      21      21      22      20      21      21
      22      20      21      21      22      20      21      21      22      20
      21      21      22      20      21      21      22      20      21      21
      22      20      21      21      22      20      21      21      22      20
      21      21      22      20      21      21      22      20      21      21
      22      20      21      21      22      20      21      21      22      20
      21      21      22      20      21      21      22      20      21      21
      22      20      21      21      22      20      21      21      22      20
      21      21      22      20      21      21      22      20      21      21
      22      20      21      21      22      20      21      21      22      20
      21      21      22      20      21      21      22      20      21      21
      22      20      21      21      22      20      21      21      22      20
      21      21      22      20      21      21      22      20      21      21
      22      20      21      21      22      20      21      21      22      20
      21      21      22      20      21      21      22      20      21      21
      22      20      21      21      22      20      21      21      22      20
      21      21      22      20      21      21      22      20      21      21
      22      20      21      21      22      20      21      21      22      20
      21      21      22      20      21      21      22      20      21      21
      22      20      21      21      22      20      21      21      22      20
      21      21      22      20      21      21      22      20      21      21
      22      20      21      21      22      20      21      21      22      20
      21      21      22      20      21      21      22      20      21      21
      22      20      21      21      22      20      21      21      22      20
      21      21      22      20      21      21      22      20      21      21
      22      20      21      21      22      20      21      21      22      20
      21      21      22      20      21      21      22      20      21      21
      22      20      21      21      22      20      21      21      22      20
      21      21      22      20      21      21      22      20      21      21
      22      20      21      21      22      20      21      21      22      20
      21      21      22      20      21      21      22      20      21      21
      22      20      21      21      22      20      21      21      22      20
      21      21      22      20      21      21      22      20      21      21
      22      20      21      21      22      20      21      21      22      20
      21      21      22      20      21      21      22      20      21      21
      22      20      21      21      22      20      21      21      22      20
      21      21      22      20      21      21      22      20      21      21
      22      20      21      21      22      20      21      21      22      20
      21      21      22      20      21      21      22      20      21      21
      22      20      21      21      22      20      21      21      22      20
      21      21      22      20      21      21      22      20      21      21
      22      20      21      21      22      20      21      21      22      20
      21      21      22      20      21      21      22      20      21      21
      22      20      21      21      22      20      21      21      22      20
      21      21      22      20      21      21      22      20      21      21
      22      20      21      21      22      20      21      21      22      20
      21      21      22      20      21      21      22      20      21      21
      22      20      21      21      22      20      21      21      22      20
      21      21      22      20      21      21      22      20      21      21
      22      20      21      21      22      20      21      21      22      20
      21      21      22      20      21      21      22      20      21      21
      22      20      21      21      22      20      21      21      22      20
      21      21      22      20      21      21      22      20      21      21
      22      20      21      21      22      20      21      21      22      20
      21      21      22      20      21      21      22      20      21      21
      22      20      21      21      22      20      21      21      22      20
      21      21      22      20      21      21      22      20      21      21
      22      20      21      21      22      20      21      21      22      20
      21      21      22      20      21      21      22      20      21      21
      22      20      21      21      22      20      21      21      22      20
      21      21      22      20      21      21      22      20      21      21
      22      20      21      21      22      20      21      21      22      20
      21      21      22      20      21      21      22      20      21      21
      22      20      21      21      22      20      21      21      22      20
      21      21      22      20      21      21      22      20      21      21
      22      20      21      21      22      20      21      21      22      20
      21      21      22      20      21      21      22      20      21      21
      22      20      21      21      22      20      21      21      22      20
      21      21      22      20      21      21      22      20      21      21
      22      20      21      21      22      20      21      21      22      20
      21      21      22      20      21      21      22      20      21      21
      22      20      21      21      22      20      21      21      22      20
      21      21      22      20      21      21      22      20      21      21
      22      20      21      21      22      20      21      21      22      20
      21      21      22      20      21      21      22      20      21      21
      22      20      21      21      22      20      21      21      22      20
      21      21      22      20      21      21      22      20      21      21
      22      20      21      21      22      20      21      21      22      20
      21      21      22      20      21      21      22      20      21      21
      22      20      21      21      22      20      21      21      22      20
      21      21      22      20      21      21      22      20      21      21
      22      20      21      21      22      20      21      21      22      20
      21      21      22      20      21      21      22      20      21      21
      22      20      21      21      22      20      21      21      22      20
      21      21      22      20      21      21      22      20      21      21
      22      20      21      21      22      20      21      21      22      20
      21      21      22      20      21      21      22      20      21      21
      22      20      21      21      22      20      21      21      22      20
      21      21      22      20      21      21      22      20      21      21
      22      20      21      21      22      20      21      21      22      20
      21      21      22      20      21      21      22      20      21      21
      22      20      21      21      22      20      21      21      22      20
      21      21      22      20      21      21      22      20      21      21
      22      20      21      21      22      20      21      21      22      20
      21      21      22      20      21      21      22      20      21      21
      22      20      21      21      22      20      21      21      22      20
      21      21      22      20      21      21      22      20      21      21
      22      20      21      21      22      20      21      21      22      20
      21      21      22      20      21      21      22      20      21      21
      22      20      21      21      22      20      21      21      22      20
      21      21      22      20      21      21      22      20      21      21
      22      20      21      21      22      20      21      21      22      20
      21      21      22      20      21      21      22      20      21      21
      22      20      21      21      22      20      21      21      22      20
      21      21      22      20      21      21      22      20      21      21
      22      20      21      21      22      20      21      21      22      20
      21      21      22      20      21      21      22      20      21      21
      22      20      21      21      22      20      21      21      22      20
      21      21      22      20      21      21      22      20      21      21
      22      20      21      21      22      20      21      21      22      20
      21      21      22      20      21      21      22      20      21      21
      22      20      21      21      22      20      21      21      22      20
      21      21      22      20      21      21      22      20      21      21
      22      20      21      21      22      20      21      21      22      20
      21      21      22      20      21      21      22      20      21      21
      22      20      21      21      22      20      21      21      22      20
      21      21      22      20      21      21      22      20      21      21
      22      20      21      21      22      20      21      21      22      20
      21      21      22      20      21      21      22      20      21      21
      22      20      21      21      22      20      21      21      22      20
      21      21      22      20      21      21      22      20      21      21
      22      20      21      21      22      20      21      21      22      20
      21      21      22      20      21      21      22      20      21      21
      22      20      21      21      22      20      21      21      22      20
      21      21      22      20      21      21      22      20      21      21
      22      20      21      21      22      20      21      21      22      20
      21      21      22      20      21      21      22      20      21      21
      22      20      21      21      22      20      21      21      22      20
      21      21      22      20      21      21      22      20      21      21
      22      20      21      21      22      20      21      21      22      20
      21      21      22      20      21      21      22      20      21      21
      22      20      21      21      22      20      21      21      22      20
      21      21      22      20      21      21      22      20      21      21
      22      20      21      21      22      20      21      21      22      20
      21      21      22      20      21      21      22      20      21      21
      22      20      21      21      22      20      21      21      22      20
      21      21      22      20      21      21      22      20      21      21
      22      20      21      21      22      20      21      21      22      20
      21      21      22      20      21      21      22      20      21      21
      22      20      21      21      22      20      21      21      22      20
      21      21      22      20      21      21      22      20      21      21
      22      20      21      21      22      20      21      21      22      20
      21      21      22      20      21      21      22      20      21      21
      22      20      21      21      22      20      21      21      22      20
      21      21      22      20      21      21      22      20      21      21
      22      20      21      21      22      20      21      21      22      20
      21      21      22      20      21      21      22      20      21      21
      22      20      21      21      22      20      21      21      22      20
      21      21      22      20      21      21      22      20      21      21
      22      20      21      21      22      20      21      21      22      20
      21      21      22      20      21      21      22      20      21      21
      22      20      21      21      22      20      21      21      22      20
      21      21      22      20      21      21      22      20      21      21
      22      20      21      21      22      20      21      21      22      20
      21      21      22      20      21      21      22      20      21      21
      22      20      21      21      22      20      21      21      22      20
      21      21      22      20      21      21      22      20      21      21
      22      20      21      21      22      20      21      21      22      20
      21      21      22      20      21      21      22      20      21      21
      22      20      21      21      22      20      21      21      22      20
      21      21      22      20      21      21      22      20      21      21
      22      20      21      21      22      20      21      21      22      20
      21      21      22      20      21      21      22      20      21      21
      22      20      21      21      22      20      21      21      22      20
      21      21      22      20      21      21      22      20      21      21
      22      20      21      21      22      20      21      21      22      20
      21      21      22      20      21      21      22      20      21      21
      22      20      21      21      22      20      21      21      22      20
      21      21      22      20      21      21      22      20      21      21
      22      20      21      21      22      20      21      21      22      20
      21      21      22      20      21      21      22      20      21      21
      22      20      21      21      22      20      21      21      22      20
      21      21      22      20      21      21      22      20      21      21
      22      20      21      21      22      20      21      21      22      20
      21      21      22      20      21      21      22      20      21      21
      22      20      21      21      22      20      21      21      22      20
      21      21      22      20      21      21      22      20      21      21
      22      20      21      21      22      20      21      21      22      20
      21      21      22      20      21      21      22      20      21      21
      22      20      21      21      22      20      21      21      22      20
      21      21      22      20      21      21      22      20      21      21
      22      20      21      21      22      20      21      21      22      20
      21      21      22      20      21      21      22      20      21      21
      22      20      21      21      22      20      21      21      22      20
      21      21      22      20      21      21      22      20      21      21
      22      20      21      21      22      20      21      21      22      20
      21      21      22      20      21      21      22      20      21      21
      22      20      21      21      22      20      21      21      22      20
      21      21      22      20      21      21      22      20      21      21
      22      20      21      21      22      20      21      21      22      20
      21      21      22      20      21      21      22      20      21      21
      22      20      21      21      22      20      21      21      22      20
      21      21      22      20      21      21      22      20      21      21
      22      20      21      21      22      20      21      21      22      20
      21      21      22      20      21      21      22      20      21      21
      22      20      21      21      22      20      21      21      22      20
      21      21      22      20      21      21      22      20      21      21
      22      20      21      21      22      20      21      21      22      20
      21      21      22      20      21      21      22      20      21      21
      22      20      21      21      22      20      21      21      22      20
      21      21      22      20      21      21      22      20      21      21
      22      20      21      21      22      20      21      21      22      20
      21      21      22      20      21      21      22      20      21      21
      22      20      21      21      22      20      21      21      22      20
      21      21      22      20      21      21      22      20      21      21
      22      20      21      21      22      20      21      21      22      20
      21      21      22      20      21      21      22      20      21      21
      22      20      21      21      22      20      21      21      22      20
      21      21      22      20      21      21      22      20      21      21
      22      20      21      21      22      20      21      21      22      20
      21      21      22      20      21      21      22      20      21      21
      22      20      21      21      22      20      21      21      22      20
      21      21      22      20      21      21      22      20      21      21
      22      20      21      21      22      20      21      21      22      20
      21      21      22      20      21      21      22      20      21      21
      22      20      21      21      22      20      21      21      22      20
      21      21      22      20      21      21      22      20      21      21
      22      20      21      21      22      20      21      21      22      20
      21      21      22      20      21      21      22      20      21      21
      22      20      21      21      22      20      21      21      22      20
      21      21      22      20      21      21      22      20      21      21
      22      20      21      21      22      20      21      21      22      20
      21      21      22      20      21      21      22      20      21      21
      22      20      21      21      22      20      21      21      22      20
      21      21      22      20      21      21      22      20      21      21
      22      20      21      21      22      20      21      21      22      20
      21      21      22      20      21      21      22      20      21      21
      22      20      21      21      22      20      21      21      22      20
      21      21      22      20      21      21      22      20      21      21
      22      20      21      21      22      20      21      21      22      20
      21      21      22      20      21      21      22      20      21      21
      22      20      21      21      22      20      21      21      22      20
      21      21      22      20      21      21      22      20      21      21
      22      20      21      21      22      20      21      21      22      20
      21      21      22      20      21      21      22      20      21      21
      22      20      21      21      22      20      21      21      22      20
      21      21      22      20      21      21      22      20      21      21
      22      20      21      21      22      20      21      21      22      20
      21      21      22      20      21      21      22      20      21      21
      22      20      21      21      22      20      21      21      22      20
      21      21      22      20      21      21      22      20      21      21
      22      20      21      21      22      20      21      21      22      20
      21      21      22      20      21      21      22      20      21      21
      22      20      21      21      22      20      21      21      22      20
      21      21      22      20      21      21      22      20      21      21
      22      20      21      21      22      20      21      21      22      20
      21      21      22      20      21      21      22      20      21      21
      22      20      21      21      22      20      21      21      22      20
      21      21      22      20      21      21      22      20      21      21
      22      20      21      21      22      20      21      21      22      20
      21      21      22      20      21      21      22      20      21      21
      22      20      21      21      22      20      21      21      22      20
      21      21      22      20      21      21      22      20      21      21
      22      20      21      21      22      20      21      21      22      20
      21      21      22      20      21      21      22      20      21      21
      22      20      21      21      22      20      21      21      22      20
      21      21      22      20      21      21      22      20      21      21
      22      20      21      21      22      20      21      21      22      20
      21      21      22      20      21      21      22      20      21      21
      22      20      21      21      22      20      21      21      22      20
      21      21      22      20      21      21      22      20      21      21
      22      20      21      21      22      20      21      21      22      20
      21      21      22      20      21      21      22      20      21      21
      22      20      21      21      22      20      21      21      22      20
      21      21      22      20      21      21      22      20      21      21
      22      20      21      21      22      20      21      21      22      20
      21      21      22      20      21      21      22      20      21      21
      22      20      21      21      22      20      21      21      22      20
      21      21      22      20      21      21      22      20      21      21
      22      20      21      21      22      20      21      21      22      20
      21      21      22      20      21      21      22      20      21      21
      22      20      21      21      22      20      21      21      22      20
      21      21      22      20      21      21      22      20      21      21
      22      20      21      21      22      20      21      21      22      20
      21      21      22      20      21      21      22      20      21      21
      22      20      21      21      22      20      21      21      22      20
      21      21      22      20      21      21      22      20      21      21
      22      20      21      21      22      20      21      21      22      20
      21      21      22      20      21      21      22      20      21      21
      22      20      21      21      22      20      21      21      22      20
      21      21      22      20      21      21      22      20      21      21
      22      20      21      21      22      20      21      21      22      20
      21      21      22      20      21      21      22      20      21      21
      22      20      21      21      22      20      21      21      22      20
      21      21      22      20      21      21      22      20      21      21
      22      20      21      21      22      20      21      21      22      20
      21      21      22      20      21      21      22      20      21      21
      22      20      21      21      22      20      21      21      22      20
      21      21      22      20      21      21      22      20      21      21
      22      20      21      21      22      20      21      21      22      20
      21      21      22      20      21      21      22      20      21      21
      22      20      21      21      22      20      21      21      22      20
      21      21      22      20      21      21      22      20      21      21
      22      20      21      21      22      20      21      21      22      20
      21      21      22      20      21      21      22      20      21      21
      22      20      21      21      22      20      21      21      22      20
      21      21      22      20      21      21      22      20      21      21
      22      20      21      21      22      20      21      21      22      20
      21      21      22      20      21      21      22      20      21      21
      22      20      21      21      22      20      21      21      22      20
      21      21      22      20      21      21      22      20      21      21
      22      20      21      21      22      20      21      21      22      20
      21      21      22      20      21      21      22      20      21      21
      22      20      21      21      22      20      21      21      22      20
      21      21      22      20      21      21      22      20      21      21
      22      20      21      21      22      20      21      21      22      20
      21      21      22      20      21      21      22      20      21      21
      22      20      21      21      22      20      21      21      22      20
      21      21      22      20      21      21      22      20      21      21
      22      20      21      21      22      20      21      21      22      20
      21      21      22      20      21      21      22      20      21      21
      22      20      21      21      22      20      21      21      22      20
      21      21      22      20      21      21      22      20      21      21
      22      20      21      21      22      20      21      21      22      20
      21      21      22      20      21      21      22      20      21      21
      22      20      21      21      22      20      21      21      22      20
      21      21      22      20      21      21      22      20      21      21
      22      20      21      21      22      20      21      21      22      20
      21      21      22      20      21      21      22      20      21      21
      22      20      21      21      22      20      21      21      22      20
      21      21      22      20      21      21      22      20      21      21
      22      20      21      21      22      20      21      21      22      20
      21      21      22      20      21      21      22      20      21      21
      22      20      21      21      22      20      21      21      22      20
      21      21      22      20      21      21      22      20      21      21
      22      20      21      21      22      20      21      21      22      20
      21      21      22      20      21      21      22      20      21      21
      22      20      21      21      22      20      21      21      22      20
      21      21      22      20      21      21      22      20      21      21
      22      20      21      21      22      20      21      21      22      20
      21      21      22      20      21      21      22      20      21      21
      22      20      21      21      22      20      21      21      22      20
      21      21      22      20      21      21      22      20      21      21
      22      20      21      21      22      20      21      21      22      20
      21      21      22      20      21      21      22      20      21      21
      22      20      21      21      22      20      21      21      22      20
      21      21      22      20      21      21      22      20      21      21
      22      20      21      21      22      20      21      21      22      20
      21      21      22      20      21      21      22      20      21      21
      22      20      21      21      22      20      21      21      22      20
      21      21      22      20      21      21      22      20      21      21
      22      20      21      21      22      20      21      21      22      20
      21      21      22      20      21      21      22      20      21      21
      22      20      21      21      22      20      21      21      22      20
      21      21      22      20      21      21      22      20      21      21
      22      20      21      21      22      20      21      21      22      20
      21      21      22      20      21      21      22      20      21      21
      22      20      21      21      22      20      21      21      22      20
      21      21      22      20      21      21      22      20      21      21
      22      20      21      21      22      20      21      21      22      20
      21      21      22      20      21      21      22      20      21      21
      22      20      21      21      22      20      21      21      22      20
      21      21      22      20      21      21      22      20      21      21
      22      20      21      21      22      20      21      21      22      20
      21      21      22      20      21      21      22      20      21      21
      22      20      21      21      22      20      21      21      22      20
      21      21      22      20      21      21      22      20      21      21
      22      20      21      21      22      20      21      21      22      20
      21      21      22      20      21      21      22      20      21      21
      22      20      21      21      22      20      21      21      22      20
      21      21      22      20      21      21      22      20      21      21
      22      20      21      21      22      20      21      21      22      20
      21      21      22      20      21      21      22      20      21      21
      22      20      21      21      22      20      21      21      22      20
      21      21      22      20      21      21      22      20      21      21
      22      20      21      21      22      20      21      21      22      20
      21      21      22      20      21      21      22      20      21      21
      22      20      21      21      22      20      21      21      22      20
      21      21      22      20      21      21      22      20      21      21
      22      20      21      21      22      20      21      21      22      20
      21      21      22      20      21      21      22      20      21      21
      22      20      21      21      22      20      21      21      22      20
      21      21      22      20      21      21      22      20      21      21
      22      20      21      21      22      20      21      21      22      20
      21      21      22      20      21      21      22      20      21      21
      22      20      21      21      22      20      21      21      22      20
      21      21      22      20      21      21      22      20      21      21
      22      20      21      21      22      20      21      21      22      20
      21      21      22      20      21      21      22      20      21      21
      22      20      21      21      22      20      21      21      22      20
      21      21      22      20      21      21      22      20      21      21
      22      20      21      21      22      20      21      21      22      20
      21      21      22      20      21      21      22      20      21      21
      22      20      21      21      22      20      21      21      22      20
      21      21      22      20      21      21      22      20      21      21
      22      20      21      21      22      20      21      21      22      20
      21      21      22      20      21      21      22      20      21      21
      22      20      21      21      22      20      21      21      22      20
      21      21      22      20      21      21      22      20      21      21
      22      20      21      21      22      20      21      21      22      20
      21      21      22      20      21      21      22      20      21      21
      22      20      21      21      22      20      21      21      22      20
      21      21      22      20      21      21      22      20      21      21
      22      20      21      21      22      20      21      21      22      20
      21      21      22      20      21      21      22      20      21      21
      22      20      21      21      22      20      21      21      22      20
      21      21      22      20      21      21      22      20      21      21
      22      20      21      21      22      20      21      21      22      20
      21      21      22      20      21      21      22      20      21      21
      22      20      21      21      22      20      21      21      22      20
      21      21      22      20      21      21      22      20      21      21
      22      20      21      21      22      20      21      21      22      20
      21      21      22      20      21      21      22      20      21      21
      22      20      21      21      22      20      21      21      22      20
      21      21      22      20      21      21      22      20      21      21
      22      20      21      21      22      20      21      21      22      20
      21      21      22      20      21      21      22      20      21      21
      22      20      21      21      22      20      21      21      22      20
      21      21      22      20      21      21      22      20      21      21
      22      20      21      21      22      20      21      21      22      20
      21      21      22      20      21      21      22      20      21      21
      22      20      21      21      22      20      21      21      22      20
      21      21      22      20      21      21      22      20      21      21
      22      20      21      21      22      20      21      21      22      20
      21      21      22      20      21      21      22      20      21      21
      22      20      21      21      22      20      21      21      22      20
      21      21      22      20      21      21      22      20      21      21
      22      20      21      21      22      20      21      21      22      20
      21      21      22      20      21      21      22      20      21      21
      22      20      21      21      22      20      21      21      22      20
      21      21      22      20      21      21      22      20      21      21
      22      20      21      21      22      20      21      21      22      20
      21      21      22      20      21      21      22      20      21      21
      22      20      21      21      22      20      21      21      22      20
      21      21      22      20      21      21      22      20      21      21
      22      20      21      21      22      20      21      21      22      20
      21      21      22      20      21      21      22      20      21      21
      22      20      21      21      22      20      21      21      22      20
      21      21      22      20      21      21      22      20      21      21
      22      20      21      21      22      20      21      21      22      20
      21      21      22      20      21      21      22      20      21      21
      22      20      21      21      22      20      21      21      22      20
      21      21      22      20      21      21      22      20      21      21
      22      20      21      21      22      20      21      21      22      20
      21      21      22      20      21      21      22      20      21      21
      22      20      21      21      22      20      21      21      22      20
      21      21      22      20      21      21      22      20      21      21
      22      20      21      21      22      20      21      21      22      20
      21      21      22      20      21      21      22      20      21      21
      22      20      21      21      22      20      21      21      22      20
      21      21      22      20      21      21      22      20      21      21
      22      20      21      21      22      20      21      21      22      20
      21      21      22      20      21      21      22      20      21      21
      22      20      21      21      22      20      21      21      22      20
      21      21      22      20      21      21      22      20      21      21
      22      20      21      21      22      20      21      21      22      20
      21      21      22      20      21      21      22      20      21      21
      22      20      21      21      22      20      21      21      22      20
      21      21      22      20      21      21      22      20      21      21
      22      20      21      21      22      20      21      21      22      20
      21      21      22      20      21      21      22      20      21      21
      22      20      21      21      22      20      21      21      22      20
      21      21      22      20      21      21      22      20      21      21
      22      20      21      21      22      20      21      21      22      20
      21      21      22      20      21      21      22      20      21      21
      22      20      21      21      22      20      21      21      22      20
      21      21      22      20      21      21      22      20      21      21
      22      20      21      21      22      20      21      21      22      20
      21      21      22      20      21      21      22      20      21      21
      22      20      21      21      22      20      21      21      22      20
      21      21      22      20      21      21      22      20      21      21
      22      20      21      21      22      20      21      21      22      20
      21      21      22      20      21      21      22      20      21      21
      22      20      21      21      22      20      21      21      22      20
      21      21      22      20      21      21      22      20      21      21
      22      20      21      21      22      20      21      21      22      20
      21      21      22      20      21      21      22      20      21      21
      22      20      21      21      22      20      21      21      22      20
      21      21      22      20      21      21      22      20      21      21
      22      20      21      21      22      20      21      21      22      20
      21      21      22      20      21      21      22      20      21      21
      22      20      21      21      22      20      21      21      22      20
      21      21      22      20      21      21      22      20      21      21
      22      20      21      21      22      20      21      21      22      20
      21      21      22      20      21      21      22      20      21      21
      22      20      21      21      22      20      21      21      22      20
      21      21      22      20      21      21      22      20      21      21
      22      20      21      21      22      20      21      21      22      20
      21      21      22      20      21      21      22      20      21      21
      22      20      21      21      22      20      21      21      22      20
      21      21      22      20      21      21      22      20      21      21
      22      20      21      21      22      20      21      21      22      20
      21      21      22      20      21      21      22      20      21      21
      22      20      21      21      22      20      21      21      22      20
      21      21      22      20      21      21      22      20      21      21
      22      20      21      21      22      20      21      21      22      20
      21      21      22      20      21      21      22      20      21      21
      22      20      21      21      22      20      21      21      22      20
      21      21      22      20      21      21      22      20      21      21
      22      20      21      21      22      20      21      21      22      20
      21      21      22      20      21      21      22      20      21      21
      22      20      21      21      22      20      21      21      22      20
      21      21      22      20      21      21      22      20      21      21
      22      20      21      21      22      20      21      21      22      20
      21      21      22      20      21      21      22      20      21      21
      22      20      21      21      22      20      21      21      22      20
      21      21      22      20      21      21      22      20      21      21
      22      20      21      21      22      20      21      21      22      20
      21      21      22      20      21      21      22      20      21      21
      22      20      21      21      22      20      21      21      22      20
      21      21      22      20      21      21      22      20      21      21
      22      20      21      21      22      20      21      21      22      20
      21      21      22      20      21      21      22      20      21      21
      22      20      21      21      22      20      21      21      22      20
      21      21      22      20      21      21      22      20      21      21
      22      20      21      21      22      20      21      21      22      20
      21      21      22      20      21      21      22      20      21      21
      22      20      21      21      22      20      21      21      22      20
      21      21      22      20      21      21      22      20      21      21
      22      20      21      21      22      20      21      21      22      20
      21      21      22      20      21      21      22      20      21      21
      22      20      21      21      22      20      21      21      22      20
      21      21      22      20      21      21      22      20      21      21
      22      20      21      21      22      20      21      21      22      20
      21      21      22      20      21      21      22      20      21      21
      22      20      21      21      22      20      21      21      22      20
      21      21      22      20      21      21      22      20      21      21
      22      20      21      21      22      20      21      21      22      20
      21      21      22      20      21      21      22      20      21      21
      22      20      21      21      22      20      21      21      22      20
      21      21      22      20      21      21      22      20      21      21
      22      20      21      21      22      20      21      21      22      20
      21      21      22      20      21      21      22      20      21      21
      22      20      21      21      22      20      21      21      22      20
      21      21      22      20      21      21      22      20      21      21
      22      20      21      21      22      20      21      21      22      20
      21      21      22      20      21      21      22      20      21      21
      22      20      21      21      22      20      21      21      22      20
      21      21      22      20      21      21      22      20      21      21
      22      20      21      21      22      20      21      21      22      20
      21      21      22      20      21      21      22      20      21      21
      22      20      21      21      22      20      21      21      22      20
      21      21      22      20      21      21      22      20      21      21
      22      20      21      21      22      20      21      21      22      20
      21      21      22      20      21      21      22      20      21      21
      22      20      21      21      22      20      21      21      22      20
      21      21      22      20      21      21      22      20      21      21
      22      20      21      21      22      20      21      21      22      20
      21      21      22      20      21      21      22      20      21      21
      22      20      21      21      22      20      21      21      22      20
      21      21      22      20      21      21      22      20      21      21
      22      20      21      21      22      20      21      21      22      20
      21      21      22      20      21      21      22      20      21      21
      22      20      21      21      22      20      21      21      22      20
      21      21      22      20      21      21      22      20      21      21
      22      20      21      21      22      20      21      21      22      20
      21      21      22      20      21      21      22      20      21      21
      22      20      21      21      22      20      21      21      22      20
      21      21      22      20      21      21      22      20      21      21
      22      20      21      21      22      20      21      21      22      20
      21      21      22      20      21      21      22      20      21      21
      22      20      21      21      22      20      21      21      22      20
      21      21      22      20      21      21      22      20      21      21
      22      20      21      21      22      20      21      21      22      20
      21      21      22      20      21      21      22      20      21      21
      22      20      21      21      22      20      21      21      22      20
      21      21      22      20      21      21      22      20      21      21
      22      20      21      21      22      20      21      21      22      20
      21      21      22      20      21      21      22      20      21      21
      22      20      21      21      22      20      21      21      22      20
      21      21      22      20      21      21      22      20      21      21
      22      20      21      21      22      20      21      21      22      20
      21      21      22      20      21      21      22      20      21      21
      22      20      21      21      22      20      21      21      22      20
      21      21      22      20      21      21      22      20      21      21
      22      20      21      21      22      20      21      21      22      20
      21      21      22      20      21      21      22      20      21      21
      22      20      21      21      22      20      21      21      22      20
      21      21      22      20      21      21      22      20      21      21
      22      20      21      21      22      20      21      21      22      20
      21      21      22      20      21      21      22      20      21      21
      22      20      21      21      22      20      21      21      22      20
      21      21      22      20      21      21      22      20      21      21
      22      20      21      21      22      20      21      21      22      20
      21      21      22      20      21      21      22      20      21      21
      22      20      21      21      22      20      21      21      22      20
      21      21      22      20      21      21      22      20      21      21
      22      20      21      21      22      20      21      21      22      20
      21      21      22      20      21      21      22      20      21      21
      22      20      21      21      22      20      21      21      22      20
      21      21      22      20      21      21      22      20      21      21
      22      20      21      21      22      20      21      21      22      20
      21      21      22      20      21      21      22      20      21      21
      22      20      21      21      22      20      21      21      22      20
      21      21      22      20      21      21      22      20      21      21
      22      20      21      21      22      20      21      21      22      20
      21      21      22      20      21      21      22      20      21      21
      22      20      21      21      22      20      21      21      22      20
      21      21      22      20      21      21      22      20      21      21
      22      20      21      21      22      20      21      21      22      20
      21      21      22      20      21      21      22      20      21      21
      22      20      21      21      22      20      21      21      22      20
      21      21      22      20      21      21      22      20      21      21
      22      20      21      21      22      20      21      21      22      20
      21      21      22      20      21      21      22      20      21      21
      22      20      21      21      22      20      21      21      22      20
      21      21      22      20      21      21      22      20      21      21
      22      20      21      21      22      20      21      21      22      20
      21      21      22      20      21      21      22      20      21      21
      22      20      21      21      22      20      21      21      22      20
      21      21      22      20      21      21      22      20      21      21
      22      20      21      21      22      20      21      21      22      20
      21      21      22      20      21      21      22      20      21      21
      22      20      21      21      22      20      21      21      22      20
      21      21      22      20      21      21      22      20      21      21
      22      20      21      21      22      20      21      21      22      20
      21      21      22      20      21      21      22      20      21      21
      22      20      21      21      22      20      21      21      22      20
      21      21      22      20      21      21      22      20      21      21
      22      20      21      21      22      20      21      21      22      20
      21      21      22      20      21      21      22      20      21      21
      22      20      21      21      22      20      21      21      22      20
      21      21      22      20      21      21      22      20      21      21
      22      20      21      21      22      20      21      21      22      20
      21      21      22      20      21      21      22      20      21      21
      22      20      21      21      22      20      21      21      22      20
      21      21      22      20      21      21      22      20      21      21
      22      20      21      21      22      20      21      21      22      20
      21      21      22      20      21      21      22      20      21      21
      22      20      21      21      22      20      21      21      22      20
      21      21      22      20      21      21      22      20      21      21
      22      20      21      21      22      20      21      21      22      20
      21      21      22      20      21      21      22      20      21      21
      22      20      21      21      22      20      21      21      22      20
      21      21      22      20      21      21      22      20      21      21
      22      20      21      21      22      20      21      21      22      20
      21      21      22      20      21      21      22      20      21      21
      22      20      21      21      22      20      21      21      22      20
      21      21      22      20      21      21      22      20      21      21
      22      20      21      21      22      20      21      21      22      20
      21      21      22      20      21      21      22      20      21      21
      22      20      21      21      22      20      21      21      22      20
      21      21      22      20      21      21      22      20      21      21
      22      20      21      21      22      20      21      21      22      20
      21      21      22      20      21      21      22      20      21      21
      22      20      21      21      22      20      21      21      22      20
      21      21      22      20      21      21      22      20      21      21
      22      20      21      21      22      20      21      21      22      20
      21      21      22      20      21      21      22      20      21      21
      22      20      21      21      22      20      21      21      22      20
      21      21      22      20      21      21      22      20      21      21
      22      20      21      21      22      20      21      21      22      20
      21      21      22      20      21      21      22      20      21      21
      22      20      21      21      22      20      21      21      22      20
      21      21      22      20      21      21      22      20      21      21
      22      20      21      21      22      20      21      21      22      20
      21      21      22      20      21      21      22      20      21      21
      22      20      21      21      22      20      21      21      22      20
      21      21      22      20      21      21      22      20      21      21
      22      20      21      21      22      20      21      21      22      20
      21      21      22      20      21      21      22      20      21      21
      22      20      21      21      22      20      21      21      22      20
      21      21      22      20      21      21      22      20      21      21
      22      20      21      21      22      20      21      21      22      20
      21      21      22      20      21      21      22      20      21      21
      22      20      21      21      22      20      21      21      22      20
      21      21      22      20      21      21      22      20      21      21
      22      20      21      21      22      20      21      21      22      20
      21      21      22      20      21      21      22      20      21      21
      22      20      21      21      22      20      21      21      22      20
      21      21      22      20      21      21      22      20      21      21
      22      20      21      21      22      20      21      21      22      20
      21      21      22      20      21      21      22      20      21      21
      22      20      21      21      22      20      21      21      22      20
      21      21      22      20      21      21      22      20      21      21
      22      20      21      21      22      20      21      21      22      20
      21      21      22      20      21      21      22      20      21      21
      22      20      21      21      22      20      21      21      22      20
      21      21      22      20      21      21      22      20      21      21
      22      20      21      21      22      20      21      21      22      20
      21      21      22      20      21      21      22      20      21      21
      22      20      21      21      22      20      21      21      22      20
      21      21      22      20      21      21      22      20      21      21
      22      20      21      21      22      20      21      21      22      20
      21      21      22      20      21      21      22      20      21      21
      22      20      21      21      22      20      21      21      22      20
      21      21      22      20      21      21      22      20      21      21
      22      20      21      21      22      20      21      21      22      20
      21      21      22      20      21      21      22      20      21      21
      22      20      21      21      22      20      21      21      22      20
      21      21      22      20      21      21      22      20      21      21
      22      20      21      21      22      20      21      21      22      20
      21      21      22      20      21      21      22      20      21      21
      22      20      21      21      22      20      21      21      22      20
      21      21      22      20      21      21      22      20      21      21
      22      20      21      21      22      20      21      21      22      20
      21      21      22      20      21      21      22      20      21      21
      22      20      21      21      22      20      21      21      22      20
      21      21      22      20      21      21      22      20      21      21
      22      20      21      21      22      20      21      21      22      20
      21      21      22      20      21      21      22      20      21      21
      22      20      21      21      22      20      21      21      22      20
      21      21      22      20      21      21      22      20      21      21
      22      20      21      21      22      20      21      21      22      20
      21      21      22      20      21      21      22      20      21      21
      22      20      21      21      22      20      21      21      22      20
      21      21      22      20      21      21      22      20      21      21
      22      20      21      21      22      20      21      21      22      20
      21      21      22      20      21      21      22      20      21      21
      22      20      21      21      22      20      21      21      22      20
      21      21      22      20      21      21      22      20      21      21
      22      20      21      21      22      20      21      21      22      20
      21      21      22      20      21      21      22      20      21      21
      22      20      21      21      22      20      21      21      22      20
      21      21      22      20      21      21      22      20      21      21
      22      20      21      21      22      20      21      21      22      20
      21      21      22      20      21      21      22      20      21      21
      22      20      21      21      22      20      21      21      22      20
      21      21      22      20      21      21      22      20      21      21
      22      20      21      21      22      20      21      21      22      20
      21      21      22      20      21      21      22      20      21      21
      22      20      21      21      22      20      21      21      22      20
      21      21      22      20      21      21      22      20      21      21
      22      20      21      21      22      20      21      21      22      20
      21      21      22      20      21      21      22      20      21      21
      22      20      21      21      22      20      21      21      22      20
      21      21      22      20      21      21      22      20      21      21
      22      20      21      21      22      20      21      21      22      20
      21      21      22      20      21      21      22      20      21      21
      22      20      21      21      22      20      21      21      22      20
      21      21      22      20      21      21      22      20      21      21
      22      20      21      21      22      20      21      21      22      20
      21      21      22      20      21      21      22      20      21      21
      22      20      21      21      22      20      21      21      22      20
      21      21      22      20      21      21      22      20      21      21
      22      20      21      21      22      20      21      21      22      20
      21      21      22      20      21      21      22      20      21      21
      22      20      21      21      22      20      21      21      22      20
      21      21      22      20      21      21      22      20      21      21
      22      20      21      21      22      20      21      21      22      20
      21      21      22      20      21      21      22      20      21      21
      22      20      21      21      22      20      21      21      22      20
      21      21      22      20      21      21      22      20      21      21
      22      20      21      21      22      20      21      21      22      20
      21      21      22      20      21      21      22      20      21      21
      22      20      21      21      22      20      21      21      22      20
      21      21      22      20      21      21      22      20      21      21
      22      20      21      21      22      20      21      21      22      20
      21      21      22      20      21      21      22      20      21      21
      22      20      21      21      22      20      21      21      22      20
      21      21      22      20      21      21      22      20      21      21
      22      20      21      21      22      20      21      21      22      20
      21      21      22      20      21      21      22      20      21      21
      22      20      21      21      22      20      21      21      22      20
      21      21      22      20      21      21      22      20      21      21
      22      20      21      21      22      20      21      21      22      20
      21      21      22      20      21      21      22      20      21      21
      22      20      21      21      22      20      21      21      22      20
      21      21      22      20      21      21      22      20      21      21
      22      20      21      21      22      20      21      21      22      20
      21      21      22      20      21      21      22      20      21      21
      22      20      21      21      22      20      21      21      22      20
      21      21      22      20      21      21      22      20      21      21
      22      20      21      21      22      20      21      21      22      20
      21      21      22      20      21      21      22      20      21      21
      22      20      21      21      22      20      21      21      22      20
      21      21      22      20      21      21      22      20      21      21
      22      20      21      21      22      20      21      21      22      20
      21      21      22      20      21      21      22      20      21      21
      22      20      21      21      22      20      21      21      22      20
      21      21      22      20      21      21      22      20      21      21
      22      20      21      21      22      20      21      21      22      20
      21      21      22      20      21      21      22      20      21      21
      22      20      21      21      22      20      21      21      22      20
      21      21      22      20      21      21      22      20      21      21
      22      20      21      21      22      20      21      21      22      20
      21      21      22      20      21      21      22      20      21      21
      22      20      21      21      22      20      21      21      22      20
      21      21      22      20      21      21      22      20      21      21
      22      20      21      21      22      20      21      21      22      20
      21      21      22      20      21      21      22      20      21      21
      22      20      21      21      22      20      21      21      22      20
      21      21      22      20      21      21      22      20      21      21
      22      20      21      21      22      20      21      21      22      20
      21      21      22      20      21      21      22      20      21      21
      22      20      21      21      22      20      21      21      22      20
      21      21      22      20      21      21      22      20      21      21
      22      20      21      21      22      20      21      21      22      20
      21      21      22      20      21      21      22      20      21      21
      22      20      21      21      22      20      21      21      22      20
      21      21      22      20      21      21      22      20      21      21
      22      20      21      21      22      20      21      21      22      20
      21      21      22      20      21      21      22      20      21      21
      22      20      21      21      22      20      21      21      22      20
      21      21      22      20      21      21      22      20      21      21
      22      20      21      21      22      20      21      21      22      20
      21      21      22      20      21      21      22      20      21      21
      22      20      21      21      22      20      21      21      22      20
      21      21      22      20      21      21      22      20      21      21
      22      20      21      21      22      20      21      21      22      20
      21      21      22      20      21      21      22      20      21      21
      22      20      21      21      22      20      21      21      22      20
      21      21      22      20      21      21      22      20      21      21
      22      20      21      21      22      20      21      21      22      20
      21      21      22      20      21      21      22      20      21      21
      22      20      21      21      22      20      21      21      22      20
      21      21      22      20      21      21      22      20      21      21
      22      20      21      21      22      20      21      21      22      20
      21      21      22      20      21      21      22      20      21      21
      22      20      21      21      22      20      21      21      22      20
      21      21      22      20      21      21      22      20      21      21
      22      20      21      21      22      20      21      21      22      20
      21      21      22      20      21      21      22      20      21      21
      22      20      21      21      22      20      21      21      22      20
      21      21      22      20      21      21      22      20      21      21
      22      20      21      21      22      20      21      21      22      20
      21      21      22      20      21      21      22      20      21      21
      22      20      21      21      22      20      21      21      22      20
      21      21      22      20      21      21      22      20      21      21
      22      20      21      21      22      20      21      21      22      20
      21      21      22      20      21      21      22      20      21      21
      22      20      21      21      22      20      21      21      22      20
      21      21      22      20      21      21      22      20      21      21
      22      20      21      21      22      20      21      21      22      20
      21      21      22      20      21      21      22      20      21      21
      22      20      21      21      22      20      21      21      22      20
      21      21      22      20      21      21      22      20      21      21
      22      20      21      21      22      20      21      21      22      20
      21      21      22      20      21      21      22      20      21      21
      22      20      21      21      22      20      21      21      22      20
      21      21      22      20      21      21      22      20      21      21
      22      20      21      21      22      20      21      21      22      20
      21      21      22      20      21      21      22      20      21      21
      22      20      21      21      22      20      21      21      22      20
      21      21      22      20      21      21      22      20      21      21
      22      20      21      21      22      20      21      21      22      20
      21      21      22      20      21      21      22      20      21      21
      22      20      21      21      22      20      21      21      22      20
      21      21      22      20      21      21      22      20      21      21
      22      20      21      21      22      20      21      21      22      20
      21      21      22      20      21      21      22      20      21      21
      22      20      21      21      22      20      21      21      22      20
      21      21      22      20      21      21      22      20      21      21
      22      20      21      21      22      20      21      21      22      20
      21      21      22      20      21      21      22      20      21      21
      22      20      21      21      22      20      21      21      22      20
      21      21      22      20      21      21      22      20      21      21
      22      20      21      21      22      20      21      21      22      20
      21      21      22      20      21      21      22      20      21      21
      22      20      21      21      22      20      21      21      22      20
      21      21      22      20      21      21      22      20      21      21
      22      20      21      21      22      20      21      21      22      20
      21      21      22      20      21      21      22      20      21      21
      22      20      21      21      22      20      21      21      22      20
      21      21      22      20      21      21      22      20      21      21
      22      20      21      21      22      20      21      21      22      20
      21      21      22      20      21      21      22      20      21      21
      22      20      21      21      22      20      21      21      22      20
      21      21      22      20      21      21      22      20      21      21
      22      20      21      21      22      20      21      21      22      20
      21      21      22      20      21      21      22      20      21      21
      22      20      21      21      22      20      21      21      22      20
      21      21      22      20      21      21      22      20      21      21
      22      20      21      21      22      20      21      21      22      20
      21      21      22      20      21      21      22      20      21      21
      22      20      21      21      22      20      21      21      22      20
      21      21      22      20      21      21      22      20      21      21
      22      20      21      21      22      20      21      21      22      20
      21      21      22      20      21      21      22      20      21      21
      22      20      21      21      22      20      21      21      22      20
      21      21      22      20      21      21      22      20      21      21
      22      20      21      21      22      20      21      21      22      20
      21      21      22      20      21      21      22      20      21      21
      22      20      21      21      22      20      21      21      22      20
      21      21      22      20      21      21      22      20      21      21
      22      20      21      21      22      20      21      21      22      20
      21      21      22      20      21      21      22      20      21      21
      22      20      21      21      22      20      21      21      22      20
      21      21      22      20      21      21      22      20      21      21
      22      20      21      21      22      20      21      21      22      20
      21      21      22      20      21      21      22      20      21      21
      22      20      21      21      22      20      21      21      22      20
      21      21      22      20      21      21      22      20      21      21
      22      20      21      21      22      20      21      21      22      20
      21      21      22      20      21      21      22      20      21      21
      22      20      21      21      22      20      21      21      22      20
      21      21      22      20      21      21      22      20      21      21
      22      20      21      21      22      20      21      21      22      20
      21      21      22      20      21      21      22      20      21      21
      22      20      21      21      22      20      21      21      22      20
      21      21      22      20      21      21      22      20      21      21
      22      20      21      21      22      20      21      21      22      20
      21      21      22      20      21      21      22      20      21      21
      22      20      21      21      22      20      21      21      22      20
      21      21      22      20      21      21      22      20      21      21
      22      20      21      21      22      20      21      21      22      20
      21      21      22      20      21      21      22      20      21      21
      22      20      21      21      22      20      21      21      22      20
      21      21      22      20      21      21      22      20      21      21
      22      20      21      21      22      20      21      21      22      20
      21      21      22      20      21      21      22      20      21      21
      22      20      21      21      22      20      21      21      22      20
      21      21      22      20      21      21      22      20      21      21
      22      20      21      21      22      20      21      21      22      20
      21      21      22      20      21      21      22      20      21      21
      22      20      21      21      22      20      21      21      22      20
      21      21      22      20      21      21      22      20      21      21
      22      20      21      21      22      20      21      21      22      20
      21      21      22      20      21      21      22      20      21      21
      22      20      21      21      22      20      21      21      22      20
      21      21      22      20      21      21      22      20      21      21
      22      20      21      21      22      20      21      21      22      20
      21      21      22      20      21      21      22      20      21      21
      22      20      21      21      22      20      21      21      22      20
      21      21      22      20      21      21      22      20      21      21
      22      20      21      21      22      20      21      21      22      20
      21      21      22      20      21      21      22      20      21      21
      22      20      21      21      22      20      21      21      22      20
      21      21      22      20      21      21      22      20      21      21
      22      20      21      21      22      20      21      21      22      20
      21      21      22      20      21      21      22      20      21      21
      22      20      21      21      22      20      21      21      22      20
      21      21      22      20      21      21      22      20      21      21
      22      20      21      21      22      20      21      21      22      20
      21      21      22      20      21      21      22      20      21      21
      22      20      21      21      22      20      21      21      22      20
      21      21      22      20      21      21      22      20      21      21
      22      20      21      21      22      20      21      21      22      20
      21      21      22      20      21      21      22      20      21      21
      22      20      21      21      22      20      21      21      22      20
      21      21      22      20      21      21      22      20      21      21
      22      20      21      21      22      20      21      21      22      20
      21      21      22      20      21      21      22      20      21      21
      22      20      21      21      22      20      21      21      22      20
      21      21      22      20      21      21      22      20      21      21
      22      20      21      21      22      20      21      21      22      20
      21      21      22      20      21      21      22      20      21      21
      22      20      21      21      22      20      21      21      22      20
      21      21      22      20      21      21      22      20      21      21
      22      20      21      21      22      20      21      21      22      20
      21      21      22      20      21      21      22      20      21      21
      22      20      21      21      22      20      21      21      22      20
      21      21      22      20      21      21      22      20      21      21
      22      20      21      21      22      20      21      21      22      20
      21      21      22      20      21      21      22      20      21      21
      22      20      21      21      22      20      21      21      22      20
      21      21      22      20      21      21      22      20      21      21
      22      20      21      21      22      20      21      21      22      20
      21      21      22      20      21      21      22      20      21      21
      22      20      21      21      22      20      21      21      22      20
      21      21      22      20      21      21      22      20      21      21
      22      20      21      21      22      20      21      21      22      20
      21      21      22      20      21      21      22      20      21      21
      22      20      21      21      22      20      21      21      22      20
      21      21      22      20      21      21      22      20      21      21
      22      20      21      21      22      20      21      21      22      20
      21      21      22      20      21      21      22      20      21      21
      22      20      21      21      22      20      21      21      22      20
      21      21      22      20      21      21      22      20      21      21
      22      20      21      21      22      20      21      21      22      20
      21      21      22      20      21      21      22      20      21      21
      22      20      21      21      22      20      21      21      22      20
      21      21      22      20      21      21      22      20      21      21
      22      20      21      21      22      20      21      21      22      20
      21      21      22      20      21      21      22      20      21      21
      22      20      21      21      22      20      21      21      22      20
      21      21      22      20      21      21      22      20      21      21
      22      20      21      21      22      20      21      21      22      20
      21      21      22      20      21      21      22      20      21      21
      22      20      21      21      22      20      21      21      22      20
      21      21      22      20      21      21      22      20      21      21
      22      20      21      21      22      20      21      21      22      20
      21      21      22      20      21      21      22      20      21      21
      22      20      21      21      22      20      21      21      22      20
      21      21      22      20      21      21      22      20      21      21
      22      20      21      21      22      20      21      21      22      20
      21      21      22      20      21      21      22      20      21      21
      22      20      21      21      22      20      21      21      22      20
      21      21      22      20      21      21      22      20      21      21
      22      20      21      21      22      20      21      21      22      20
      21      21      22      20      21      21      22      20      21      21
      22      20      21      21      22      20      21      21      22      20
      21      21      22      20      21      21      22      20      21      21
      22      20      21      21      22      20      21      21      22      20
      21      21      22      20      21      21      22      20      21      21
      22      20      21      21      22      20      21      21      22      20
      21      21      22      20      21      21      22      20      21      21
      22      20      21      21      22      20      21      21      22      20
      21      21      22      20      21      21      22      20      21      21
      22      20      21      21      22      20      21      21      22      20
      21      21      22      20      21      21      22      20      21      21
      22      20      21      21      22      20      21      21      22      20
      21      21      22      20      21      21      22      20      21      21
      22      20      21      21      22      20      21      21      22      20
      21      21      22      20      21      21      22      20      21      21
      22      20      21      21      22      20      21      21      22      20
      21      21      22      20      21      21      22      20      21      21
      22      20      21      21      22      20      21      21      22      20
      21      21      22      20      21      21      22      20      21      21
      22      20      21      21      22      20      21      21      22      20
      21      21      22      20      21      21      22      20      21      21
      22      20      21      21      22      20      21      21      22      20
      21      21      22      20      21      21      22      20      21      21
      22      20      21      21      22      20      21      21      22      20
      21      21      22      20      21      21      22      20      21      21
      22      20      21      21      22      20      21      21      22      20
      21      21      22      20      21      21      22      20      21      21
      22      20      21      21      22      20      21      21      22      20
      21      21      22      20      21      21      22      20      21      21
      22      20      21      21      22      20      21      21      22      20
      21      21      22      20      21      21      22      20      21      21
      22      20      21      21      22      20      21      21      22      20
      21      21      22      20      21      21      22      20      21      21
      22      20      21      21      22      20      21      21      22      20
      21      21      22      20      21      21      22      20      21      21
      22      20      21      21      22      20      21      21      22      20
      21      21      22      20      21      21      22      20      21      21
      22      20      21      21      22      20      21      21      22      20
      21      21      22      20      21      21      22      20      21      21
      22      20      21      21      22      20      21      21      22      20
      21      21      22      20      21      21      22      20      21      21
      22      20      21      21      22      20      21      21      22      20
      21      21      22      20      21      21      22      20      21      21
      22      20      21      21      22      20      21      21      22      20
      21      21      22      20      21      21      22      20      21      21
      22      20      21      21      22      20      21      21      22      20
      21      21      22      20      21      21      22      20      21      21
      22      20      21      21      22      20      21      21      22      20
      21      21      22      20      21      21      22      20      21      21
      22      20      21      21      22      20      21      21      22      20
      21      21      22      20      21      21      22      20      21      21
      22      20      21      21      22      20      21      21      22      20
      21      21      22      20      21      21      22      20      21      21
      22      20      21      21      22      20      21      21      22      20
      21      21      22      20      21      21      22      20      21      21
      22      20      21      21      22      20      21      21      22      20
      21      21      22      20      21      21      22      20      21      21
      22      20      21      21      22      20      21      21      22      20
      21      21      22      20      21      21      22      20      21      21
      22      20      21      21      22      20      21      21      22      20
      21      21      22      20      21      21      22      20      21      21
      22      20      21      21      22      20      21      21      22      20
      21      21      22      20      21      21      22      20      21      21
      22      20      21      21      22      20      21      21      22      20
      21      21      22      20      21      21      22      20      21      21
      22      20      21      21      22      20      21      21      22      20
      21      21      22      20      21      21      22      20      21      21
      22      20      21      21      22      20      21      21      22      20
      21      21      22      20      21      21      22      20      21      21
      22      20      21      21      22      20      21      21      22      20
      21      21      22      20      21      21      22      20      21      21
      22      20      21      21      22      20      21      21      22      20
      21      21      22      20      21      21      22      20      21      21
      22      20      21      21      22      20      21      21      22      20
      21      21      22      20      21      21      22      20      21      21
      22      20      21      21      22      20      21      21      22      20
      21      21      22      20      21      21      22      20      21      21
      22      20      21      21      22      20      21      21      22      20
      21      21      22      20      21      21      22      20      21      21
      22      20      21      21      22      20      21      21      22      20
      21      21      22      20      21      21      22      20      21      21
      22      20      21      21      22      20      21      21      22      20
      21      21      22      20      21      21      22      20      21      21
      22      20      21      21      22      20      21      21      22      20
      21      21      22      20      21      21      22      20      21      21
      22      20      21      21      22      20      21      21      22      20
      21      21      22      20      21      21      22      20      21      21
      22      20      21      21      22      20      21      21      22      20
      21      21      22      20      21      21      22      20      21      21
      22      20      21      21      22      20      21      21      22      20
      21      21      22      20      21      21      22      20      21      21
      22      20      21      21      22      20      21      21      22      20
      21      21      22      20      21      21      22      20      21      21
      22      20      21      21      22      20      21      21      22      20
      21      21      22      20      21      21      22      20      21      21
      22      20      21      21      22      20      21      21      22      20
      21      21      22      20      21      21      22      20      21      21
      22      20      21      21      22      20      21      21      22      20
      21      21      22      20      21      21      22      20      21      21
      22      20      21      21      22      20      21      21      22      20
      21      21      22      20      21      21      22      20      21      21
      22      20      21      21      22      20      21      21      22      20
      21      21      22      20      21      21      22      20      21      21
      22      20      21      21      22      20      21      21      22      20
      21      21      22      20      21      21      22      20      21      21
      22      20      21      21      22      20      21      21      22      20
      21      21      22      20      21      21      22      20      21      21
      22      20      21      21      22      20      21      21      22      20
      21      21      22      20      21      21      22      20      21      21
      22      20      21      21      22      20      21      21      22      20
      21      21      22      20      21      21      22      20      21      21
      22      20      21      21      22      20      21      21      22      20
      21      21      22      20      21      21      22      20      21      21
      22      20      21      21      22      20      21      21      22      20
      21      21      22      20      21      21      22      20      21      21
      22      20      21      21      22      20      21      21      22      20
      21      21      22      20      21      21      22      20      21      21
      22      20      21      21      22      20      21      21      22      20
      21      21      22      20      21      21      22      20      21      21
      22      20      21      21      22      20      21      21      22      20
      21      21      22      20      21      21      22      20      21      21
      22      20      21      21      22      20      21      21      22      20
      21      21      22      20      21      21      22      20      21      21
      22      20      21      21      22      20      21      21      22      20
      21      21      22      20      21      21      22      20      21      21
      22      20      21      21      22      20      21      21      22      20
      21      21      22      20      21      21      22      20      21      21
      22      20      21      21      22      20      21      21      22      20
      21      21      22      20      21      21      22      20      21      21
      22      20      21      21      22      20      21      21      22      20
      21      21      22      20      21      21      22      20      21      21
      22      20      21      21      22      20      21      21      22      20
      21      21      22      20      21      21      22      20      21      21
      22      20      21      21      22      20      21      21      22      20
      21      21      22      20      21      21      22      20      21      21
      22      20      21      21      22      20      21      21      22      20
      21      21      22      20      21      21      22      20      21      21
      22      20      21      21      22      20      21      21      22      20
      21      21      22      20      21      21      22      20      21      21
      22      20      21      21      22      20      21      21      22      20
      21      21      22      20      21      21      22      20      21      21
      22      20      21      21      22      20      21      21      22      20
      21      21      22      20      21      21      22      20      21      21
      22      20      21      21      22      20      21      21      22      20
      21      21      22      20      21      21      22      20      21      21
      22      20      21      21      22      20      21      21      22      20
      21      21      22      20      21      21      22      20      21      21
      22      20      21      21      22      20      21      21      22      20
      21      21      22      20      21      21      22      20      21      21
      22      20      21      21      22      20      21      21      22      20
      21      21      22      20      21      21      22      20      21      21
      22      20      21      21      22      20      21      21      22      20
      21      21      22      20      21      21      22      20      21      21
      22      20      21      21      22      20      21      21      22      20
      21      21      22      20      21      21      22      20      21      21
      22      20      21      21      22      20      21      21      22      20
      21      21      22      20      21      21      22      20      21      21
      22      20      21      21      22      20      21      21      22      20
      21      21      22      20      21      21      22      20      21      21
      22      20      21      21      22      20      21      21      22      20
      21      21      22      20      21      21      22      20      21      21
      22      20      21      21      22      20      21      21      22      20
      21      21      22      20      21      21      22      20      21      21
      22      20      21      21      22      20      21      21      22      20
      21      21      22      20      21      21      22      20      21      21
      22      20      21      21      22      20      21      21      22      20
      21      21      22      20      21      21      22      20      21      21
      22      20      21      21      22      20      21      21      22      20
      21      21      22      20      21      21      22      20      21      21
      22      20      21      21      22      20      21      21      22      20
      21      21      22      20      21      21      22      20      21      21
      22      20      21      21      22      20      21      21      22      20
      21      21      22      20      21      21      22      20      21      21
      22      20      21      21      22      20      21      21      22      20
      21      21      22      20      21      21      22      20      21      21
      22      20      21      21      22      20      21      21      22      20
      21      21      22      20      21      21      22      20      21      21
      22      20      21      21      22      20      21      21      22      20
      21      21      22      20      21      21      22      20      21      21
      22      20      21      21      22      20      21      21      22      20
      21      21      22      20      21      21      22      20      21      21
      22      20      21      21      22      20      21      21      22      20
      21      21      22      20      21      21      22      20      21      21
      22      20      21      21      22      20      21      21      22      20
      21      21      22      20      21      21      22      20      21      21
      22      20      21      21      22      20      21      21      22      20
      21      21      22      20      21      21      22      20      21      21
      22      20      21      21      22      20      21      21      22      20
      21      21      22      20      21      21      22      20      21      21
      22      20      21      21      22      20      21      21      22      20
      21      21      22      20      21      21      22      20      21      21
      22      20      21      21      22      20      21      21      22      20
      21      21      22      20      21      21      22      20      21      21
      22      20      21      21      22      20      21      21      22      20
      21      21      22      20      21      21      22      20      21      21
      22      20      21      21      22      20      21      21      22      20
      21      21      22      20      21      21      22      20      21      21
      22      20      21      21      22      20      21      21      22      20
      21      21      22      20      21      21      22      20      21      21
      22      20      21      21      22      20      21      21      22      20
      21      21      22      20      21      21      22      20      21      21
      22      20      21      21      22      20      21      21      22      20
      21      21      22      20      21      21      22      20      21      21
      22      20      21      21      22      20      21      21      22      20
      21      21      22      20      21      21      22      20      21      21
      22      20      21      21      22      20      21      21      22      20
      21      21      22      20      21      21      22      20      21      21
      22      20      21      21      22      20      21      21      22      20
      21      21      22      20      21      21      22      20      21      21
      22      20      21      21      22      20      21      21      22      20
      21      21      22      20      21      21      22      20      21      21
      22      20      21      21      22      20      21      21      22      20
      21      21      22      20      21      21      22      20      21      21
      22      20      21      21      22      20      21      21      22      20
      21      21      22      20      21      21      22      20      21      21
      22      20      21      21      22      20      21      21      22      20
      21      21      22      20      21      21      22      20      21      21
      22      20      21      21      22      20      21      21      22      20
      21      21      22      20      21      21      22      20      21      21
      22      20      21      21      22      20      21      21      22      20
      21      21      22      20      21      21      22      20      21      21
      22      20      21      21      22      20      21      21      22      20
      21      21      22      20      21      21      22      20      21      21
      22      20      21      21      22      20      21      21      22      20
      21      21      22      20      21      21      22      20      21      21
      22      20      21      21      22      20      21      21      22      20
      21      21      22      20      21      21      22      20      21      21
      22      20      21      21      22      20      21      21      22      20
      21      21      22      20      21      21      22      20      21      21
      22      20      21      21      22      20      21      21      22      20
      21      21      22      20      21      21      22      20      21      21
      22      20      21      21      22      20      21      21      22      20
      21      21      22      20      21      21      22      20      21      21
      22      20      21      21      22      20      21      21      22      20
      21      21      22      20      21      21      22      20      21      21
      22      20      21      21      22      20      21      21      22      20
      21      21      22      20      21      21      22      20      21      21
      22      20      21      21      22      20      21      21      22      20
      21      21      22      20      21      21      22      20      21      21
      22      20      21      21      22      20      21      21      22      20
      21      21      22      20      21      21      22      20      21      21
      22      20      21      21      22      20      21      21      22      20
      21      21      22      20      21      21      22      20      21      21
      22      20      21      21      22      20      21      21      22      20
      21      21      22      20      21      21      22      20      21      21
      22      20      21      21      22      20      21      21      22      20
      21      21      22      20      21      21      22      20      21      21
      22      20      21      21      22      20      21      21      22      20
      21      21      22      20      21      21      22      20      21      21
      22      20      21      21      22      20      21      21      22      20
      21      21      22      20      21      21      22      20      21      21
      22      20      21      21      22      20      21      21      22      20
      21      21      22      20      21      21      22      20      21      21
      22      20      21      21      22      20      21      21      22      20
      21      21      22      20      21      21      22      20      21      21
      22      20      21      21      22      20      21      21      22      20
      21      21      22      20      21      21      22      20      21      21
      22      20      21      21      22      20      21      21      22      20
      21      21      22      20      21      21      22      20      21      21
      22      20      21      21      22      20      21      21      22      20
      21      21      22      20      21      21      22      20      21      21
      22      20      21      21      22      20      21      21      22      20
      21      21      22      20      21      21      22      20      21      21
      22      20      21      21      22      20      21      21      22      20
      21      21      22      20      21      21      22      20      21      21
      22      20      21      21      22      20      21      21      22      20
      21      21      22      20      21      21      22      20      21      21
      22      20      21      21      22      20      21      21      22      20
      21      21      22      20      21      21      22      20      21      21
      22      20      21      21      22      20      21      21      22      20
      21      21      22      20      21      21      22      20      21      21
      22      20      21      21      22      20      21      21      22      20
      21      21      22      20      21      21      22      20      21      21
      22      20      21      21      22      20      21      21      22      20
      21      21      22      20      21      21      22      20      21      21
      22      20      21      21      22      20      21      21      22      20
      21      21      22      20      21      21      22      20      21      21
      22      20      21      21      22      20      21      21      22      20
      21      21      22      20      21      21      22      20      21      21
      22      20      21      21      22      20      21      21      22      20
      21      21      22      20      21      21      22      20      21      21
      22      20      21      21      22      20      21      21      22      20
      21      21      22      20      21      21      22      20      21      21
      22      20      21      21      22      20      21      21      22      20
      21      21      22      20      21      21      22      20      21      21
      22      20      21      21      22      20      21      21      22      20
      21      21      22      20      21      21      22      20      21      21
      22      20      21      21      22      20      21      21      22      20
      21      21      22      20      21      21      22      20      21      21
      22      20      21      21      22      20      21      21      22      20
      21      21      22      20      21      21      22      20      21      21
      22      20      21      21      22      20      21      21      22      20
      21      21      22      20      21      21      22      20      21      21
      22      20      21      21      22      20      21      21      22      20
      21      21      22      20      21      21      22      20      21      21
      22      20      21      21      22      20      21      21      22      20
      21      21      22      20      21      21      22      20      21      21
      22      20      21      21      22      20      21      21      22      20
      21      21      22      20      21      21      22      20      21      21
      22      20      21      21      22      20      21      21      22      20
      21      21      22      20      21      21      22      20      21      21
      22      20      21      21      22      20      21      21      22      20
      21      21      22      20      21      21      22      20      21      21
      22      20      21      21      22      20      21      21      22      20
      21      21      22      20      21      21      22      20      21      21
      22      20      21      21      22      20      21      21      22      20
      21      21      22      20      21      21      22      20      21      21
      22      20      21      21      22      20      21      21      22      20
      21      21      22      20      21      21      22      20      21      21
      22      20      21      21      22      20      21      21      22      20
      21      21      22      20      21      21      22      20      21      21
      22      20      21      21      22      20      21      21      22      20
      21      21      22      20      21      21      22      20      21      21
      22      20      21      21      22      20      21      21      22      20
      21      21      22      20      21      21      22      20      21      21
      22      20      21      21      22      20      21      21      22      20
      21      21      22      20      21      21      22      20      21      21
      22      20      21      21      22      20      21      21      22      20
      21      21      22      20      21      21      22      20      21      21
      22      20      21      21      22      20      21      21      22      20
      21      21      22      20      21      21      22      20      21      21
      22      20      21      21      22      20      21      21      22      20
      21      21      22      20      21      21      22      20      21      21
      22      20      21      21      22      20      21      21      22      20
      21      21      22      20      21      21      22      20      21      21
      22      20      21      21      22      20      21      21      22      20
      21      21      22      20      21      21      22      20      21      21
      22      20      21      21      22      20      21      21      22      20
      21      21      22      20      21      21      22      20      21      21
      22      20      21      21      22      20      21      21      22      20
      21      21      22      20      21      21      22      20      21      21
      22      20      21      21      22      20      21      21      22      20
      21      21      22      20      21      21      22      20      21      21
      22      20      21      21      22      20      21      21      22      20
      21      21      22      20      21      21      22      20      21      21
      22      20      21      21      22      20      21      21      22      20
      21      21      22      20      21      21      22      20      21      21
      22      20      21      21      22      20      21      21      22      20
      21      21      22      20      21      21      22      20      21      21
      22      20      21      21      22      20      21      21      22      20
      21      21      22      20      21      21      22      20      21      21
      22      20      21      21      22      20      21      21      22      20
      21      21      22      20      21      21      22      20      21      21
      22      20      21      21      22      20      21      21      22      20
      21      21      22      20      21      21      22      20      21      21
      22      20      21      21      22      20      21      21      22      20
      21      21      22      20      21      21      22      20      21      21
      22      20      21      21      22      20      21      21      22      20
      21      21      22      20      21      21      22      20      21      21
      22      20      21      21      22      20      21      21      22      20
      21      21      22      20      21      21      22      20      21      21
      22      20      21      21      22      20      21      21      22      20
      21      21      22      20      21      21      22      20      21      21
      22      20      21      21      22      20      21      21      22      20
      21      21      22      20      21      21      22      20      21      21
      22      20      21      21      22      20      21      21      22      20
      21      21      22      20      21      21      22      20      21      21
      22      20      21      21      22      20      21      21      22      20
      21      21      22      20      21      21      22      20      21      21
      22      20      21      21      22      20      21      21      22      20
      21      21      22      20      21      21      22      20      21      21
      22      20      21      21      22      20      21      21      22      20
      21      21      22      20      21      21      22      20      21      21
      22      20      21      21      22      20      21      21      22      20
      21      21      22      20      21      21      22      20      21      21
      22      20      21      21      22      20      21      21      22      20
      21      21      22      20      21      21      22      20      21      21
      22      20      21      21      22      20      21      21      22      20
      21      21      22      20      21      21      22      20      21      21
      22      20      21      21      22      20      21      21      22      20
      21      21      22      20      21      21      22      20      21      21
      22      20      21      21      22      20      21      21      22      20
      21      21      22      20      21      21      22      20      21      21
      22      20      21      21      22      20      21      21      22      20
      21      21      22      20      21      21      22      20      21      21
      22      20      21      21      22      20      21      21      22      20
      21      21      22      20      21      21      22      20      21      21
      22      20      21      21      22      20      21      21      22      20
      21      21      22      20      21      21      22      20      21      21
      22      20      21      21      22      20      21      21      22      20
      21      21      22      20      21      21      22      20      21      21
      22      20      21      21      22      20      21      21      22      20
      21      21      22      20      21      21      22      20      21      21
      22      20      21      21      22      20      21      21      22      20
      21      21      22      20      21      21      22      20      21      21
      22      20      21      21      22      20      21      21      22      20
      21      21      22      20      21      21      22      20      21      21
      22      20      21      21      22      20      21      21      22      20
      21      21      22      20      21      21      22      20      21      21
      22      20      21      21      22      20      21      21      22      20
      21      21      22      20      21      21      22      20      21      21
      22      20      21      21      22      20      21      21      22      20
      21      21      22      20      21      21      22      20      21      21
      22      20      21      21      22      20      21      21      22      20
      21      21      22      20      21      21      22      20      21      21
      22      20      21      21      22      20      21      21      22      20
      21      21      22      20      21      21      22      20      21      21
      22      20      21      21      22      20      21      21      22      20
      21      21      22      20      21      21      22      20      21      21
      22      20      21      21      22      20      21      21      22      20
      21      21      22      20      21      21      22      20      21      21
      22      20      21      21      22      20      21      21      22      20
      21      21      22      20      21      21      22      20      21      21
      22      20      21      21      22      20      21      21      22      20
      21      21      22      20      21      21      22      20      21      21
      22      20      21      21      22      20      21      21      22      20
      21      21      22      20      21      21      22      20      21      21
      22      20      21      21      22      20      21      21      22      20
      21      21      22      20      21      21      22      20      21      21
      22      20      21      21      22      20      21      21      22      20
      21      21      22      20      21      21      22      20      21      21
      22      20      21      21      22      20      21      21      22      20
      21      21      22      20      21      21      22      20      21      21
      22      20      21      21      22      20      21      21      22      20
      21      21      22      20      21      21      22      20      21      21
      22      20      21      21      22      20      21      21      22      20
      21      21      22      20      21      21      22      20      21      21
      22      20      21      21      22      20      21      21      22      20
      21      21      22      20      21      21      22      20      21      21
      22      20      21      21      22      20      21      21      22      20
      21      21      22      20      21      21      22      20      21      21
      22      20      21      21      22      20      21      21      22      20
      21      21      22      20      21      21      22      20      21      21
      22      20      21      21      22      20      21      21      22      20
      21      21      22      20      21      21      22      20      21      21
      22      20      21      21      22      20      21      21      22      20
      21      21      22      20      21      21      22      20      21      21
      22      20      21      21      22      20      21      21      22      20
      21      21      22      20      21      21      22      20      21      21
      22      20      21      21      22      20      21      21      22      20
      21      21      22      20      21      21      22      20      21      21
      22      20      21      21      22      20      21      21      22      20
      21      21      22      20      21      21      22      20      21      21
      22      20      21      21      22      20      21      21      22      20
      21      21      22      20      21      21      22      20      21      21
      22      20      21      21      22      20      21      21      22      20
      21      21      22      20      21      21      22      20      21      21
      22      20      21      21      22      20      21      21      22      20
      21      21      22      20      21      21      22      20      21      21
      22      20      21      21      22      20      21      21      22      20
      21      21      22      20      21      21      22      20      21      21
      22      20      21      21      22      20      21      21      22      20
      21      21      22      20      21      21      22      20      21      21
      22      20      21      21      22      20      21      21      22      20
      21      21      22      20      21      21      22      20      21      21
      22      20      21      21      22      20      21      21      22      20
      21      21      22      20      21      21      22      20      21      21
      22      20      21      21      22      20      21      21      22      20
      21      21      22      20      21      21      22      20      21      21
      22      20      21      21      22      20      21      21      22      20
      21      21      22      20      21      21      22      20      21      21
      22      20      21      21      22      20      21      21      22      20
      21      21      22      20      21      21      22      20      21      21
      22      20      21      21      22      20      21      21      22      20
      21      21      22      20      21      21      22      20      21      21
      22      20      21      21      22      20      21      21      22      20
      21      21      22      20      21      21      22      20      21      21
      22      20      21      21      22      20      21      21      22      20
      21      21      22      20      21      21      22      20      21      21
      22      20      21      21      22      20      21      21      22      20
      21      21      22      20      21      21      22      20      21      21
      22      20      21      21      22      20      21      21      22      20
      21      21      22      20      21      21      22      20      21      21
      22      20      21      21      22      20      21      21      22      20
      21      21      22      20      21      21      22      20      21      21
      22      20      21      21      22      20      21      21      22      20
      21      21      22      20      21      21      22      20      21      21
      22      20      21      21      22      20      21      21      22      20
      21      21      22      20      21      21      22      20      21      21
      22      20      21      21      22      20      21      21      22      20
      21      21      22      20      21      21      22      20      21      21
      22      20      21      21      22      20      21      21      22      20
      21      21      22      20      21      21      22      20      21      21
      22      20      21      21      22      20      21      21      22      20
      21      21      22      20      21      21      22      20      21      21
      22      20      21      21      22      20      21      21      22      20
      21      21      22      20      21      21      22      20      21      21
      22      20      21      21      22      20      21      21      22      20
      21      21      22      20      21      21      22      20      21      21
      22      20      21      21      22      20      21      21      22      20
      21      21      22      20      21      21      22      20      21      21
      22      20      21      21      22      20      21      21      22      20
      21      21      22      20      21      21      22      20      21      21
      22      20      21      21      22      20      21      21      22      20
      21      21      22      20      21      21      22      20      21      21
      22      20      21      21      22      20      21      21      22      20
      21      21      22      20      21      21      22      20      21      21
      22      20      21      21      22      20      21      21      22      20
      21      21      22      20      21      21      22      20      21      21
      22      20      21      21      22      20      21      21      22      20
      21      21      22      20      21      21      22      20      21      21
      22      20      21      21      22      20      21      21      22      20
      21      21      22      20      21      21      22      20      21      21
      22      20      21      21      22      20      21      21      22      20
      21      21      22      20      21      21      22      20      21      21
      22      20      21      21      22      20      21      21      22      20
      21      21      22      20      21      21      22      20      21      21
      22      20      21      21      22      20      21      21      22      20
      21      21      22      20      21      21      22      20      21      21
      22      20      21      21      22      20      21      21      22      20
      21      21      22      20      21      21      22      20      21      21
      22      20      21      21      22      20      21      21      22      20
      21      21      22      20      21      21      22      20      21      21
      22      20      21      21      22      20      21      21      22      20
      21      21      22      20      21      21      22      20      21      21
      22      20      21      21      22      20      21      21      22      20
      21      21      22      20      21      21      22      20      21      21
      22      20      21      21      22      20      21      21      22      20
      21      21      22      20      21      21      22      20      21      21
      22      20      21      21      22      20      21      21      22      20
      21      21      22      20      21      21      22      20      21      21
      22      20      21      21      22      20      21      21      22      20
      21      21      22      20      21      21      22      20      21      21
      22      20      21      21      22      20      21      21      22      20
      21      21      22      20      21      21      22      20      21      21
      22      20      21      21      22      20      21      21      22      20
      21      21      22      20      21      21      22      20      21      21
      22      20      21      21      22      20      21      21      22      20
      21      21      22      20      21      21      22      20      21      21
      22      20      21      21      22      20      21      21      22      20
      21      21      22      20      21      21      22      20      21      21
      22      20      21      21      22      20      21      21      22      20
      21      21      22      20      21      21      22      20      21      21
      22      20      21      21      22      20      21      21      22      20
      21      21      22      20      21      21      22      20      21      21
      22      20      21      21      22      20      21      21      22      20
      21      21      22      20      21      21      22      20      21      21
      22      20      21      21      22      20      21      21      22      20
      21      21      22      20      21      21      22      20      21      21
      22      20      21      21      22      20      21      21      22      20
      21      21      22      20      21      21      22      20      21      21
      22      20      21      21      22      20      21      21      22      20
      21      21      22      20      21      21      22      20      21      21
      22      20      21      21      22      20      21      21      22      20
      21      21      22      20      21      21      22      20      21      21
      22      20      21      21      22      20      21      21      22      20
      21      21      22      20      21      21      22      20      21      21
      22      20      21      21      22      20      21      21      22      20
      21      21      22      20      21      21      22      20      21      21
      22      20      21      21      22      20      21      21      22      20
      21      21      22      20      21      21      22      20      21      21
      22      20      21      21      22      20      21      21      22      20
      21      21      22      20      21      21      22      20      21      21
      22      20      21      21      22      20      21      21      22      20
      21      21      22      20      21      21      22      20      21      21
      22      20      21      21      22      20      21      21      22      20
      21      21      22      20      21      21      22      20      21      21
      22      20      21      21      22      20      21      21      22      20
      21      21      22      20      21      21      22      20      21      21
      22      20      21      21      22      20      21      21      22      20
      21      21      22      20      21      21      22      20      21      21
      22      20      21      21      22      20      21      21      22      20
      21      21      22      20      21      21      22      20      21      21
      22      20      21      21      22      20      21      21      22      20
      21      21      22      20      21      21      22      20      21      21
      22      20      21      21      22      20      21      21      22      20
      21      21      22      20      21      21      22      20      21      21
      22      20      21      21      22      20      21      21      22      20
      21      21      22      20      21      21      22      20      21      21
      22      20      21      21      22      20      21      21      22      20
      21      21      22      20      21      21      22      20      21      21
      22      20      21      21      22      20      21      21      22      20
      21      21      22      20      21      21      22      20      21      21
      22      20      21      21      22      20      21      21      22      20
      21      21      22      20      21      21      22      20      21      21
      22      20      21      21      22      20      21      21      22      20
      21      21      22      20      21      21      22      20      21      21
      22      20      21      21      22      20      21      21      22      20
      21      21      22      20      21      21      22      20      21      21
      22      20      21      21      22      20      21      21      22      20
      21      21      22      20      21      21      22      20      21      21
      22      20      21      21      22      20      21      21      22      20
      21      21      22      20      21      21      22      20      21      21
      22      20      21      21      22      20      21      21      22      20
      21      21      22      20      21      21      22      20      21      21
      22      20      21      21      22      20      21      21      22      20
      21      21      22      20      21      21      22      20      21      21
      22      20      21      21      22      20      21      21      22      20
      21      21      22      20      21      21      22      20      21      21
      22      20      21      21      22      20      21      21      22      20
      21      21      22      20      21      21      22      20      21      21
      22      20      21      21      22      20      21      21      22      20
      21      21      22      20      21      21      22      20      21      21
      22      20      21      21      22      20      21      21      22      20
      21      21      22      20      21      21      22      20      21      21
      22      20      21      21      22      20      21      21      22      20
      21      21      22      20      21      21      22      20      21      21
      22      20      21      21      22      20      21      21      22      20
      21      21      22      20      21      21      22      20      21      21
      22      20      21      21      22      20      21      21      22      20
      21      21      22      20      21      21      22      20      21      21
      22      20      21      21      22      20      21      21      22      20
      21      21      22      20      21      21      22      20      21      21
      22      20      21      21      22      20      21      21      22      20
      21      21      22      20      21      21      22      20      21      21
      22      20      21      21      22      20      21      21      22      20
      21      21      22      20      21      21      22      20      21      21
      22      20      21      21      22      20      21      21      22      20
      21      21      22      20      21      21      22      20      21      21
      22      20      21      21      22      20      21      21      22      20
      21      21      22      20      21      21      22      20      21      21
      22      20      21      21      22      20      21      21      22      20
      21      21      22      20      21      21      22      20      21      21
      22      20      21      21      22      20      21      21      22      20
      21      21      22      20      21      21      22      20      21      21
      22      20      21      21      22      20      21      21      22      20
      21      21      22      20      21      21      22      20      21      21
      22      20      21      21      22      20      21      21      22      20
      21      21      22      20      21      21      22      20      21      21
      22      20      21      21      22      20      21      21      22      20
      21      21      22      20      21      21      22      20      21      21
      22      20      21      21      22      20      21      21      22      20
      21      21      22      20      21      21      22      20      21      21
      22      20      21      21      22      20      21      21      22      20
      21      21      22      20      21      21      22      20      21      21
      22      20      21      21      22      20      21      21      22      20
      21      21      22      20      21      21      22      20      21      21
      22      20      21      21      22      20      21      21      22      20
      21      21      22      20      21      21      22      20      21      21
      22      20      21      21      22      20      21      21      22      20
      21      21      22      20      21      21      22      20      21      21
      22      20      21      21      22      20      21      21      22      20
      21      21      22      20      21      21      22      20      21      21
      22      20      21      21      22      20      21      21      22      20
      21      21      22      20      21      21      22      20      21      21
      22      20      21      21      22      20      21      21      22      20
      21      21      22      20      21      21      22      20      21      21
      22      20      21      21      22      20      21      21      22      20
      21      21      22      20      21      21      22      20      21      21
      22      20      21      21      22      20      21      21      22      20
      21      21      22      20      21      21      22      20      21      21
      22      20      21      21      22      20      21      21      22      20
      21      21      22      20      21      21      22      20      21      21
      22      20      21      21      22      20      21      21      22      20
      21      21      22      20      21      21      22      20      21      21
      22      20      21      21      22      20      21      21      22      20
      21      21      22      20      21      21      22      20      21      21
      22      20      21      21      22      20      21      21      22      20
      21      21      22      20      21      21      22      20      21      21
      22      20      21      21      22      20      21      21      22      20
      21      21      22      20      21      21      22      20      21      21
      22      20      21      21      22      20      21      21      22      20
      21      21      22      20      21      21      22      20      21      21
      22      20      21      21      22      20      21      21      22      20
      21      21      22      20      21      21      22      20      21      21
      22      20      21      21      22      20      21      21      22      20
      21      21      22      20      21      21      22      20      21      21
      22      20      21      21      22      20      21      21      22      20
      21      21      22      20      21      21      22      20      21      21
      22      20      21      21      22      20      21      21      22      20
      21      21      22      20      21      21      22      20      21      21
      22      20      21      21      22      20      21      21      22      20
      21      21      22      20      21      21      22      20      21      21
      22      20      21      21      22      20      21      21      22      20
      21      21      22      20      21      21      22      20      21      21
      22      20      21      21      22      20      21      21      22      20
      21      21      22      20      21      21      22      20      21      21
      22      20      21      21      22      20      21      21      22      20
      21      21      22      20      21      21      22      20      21      21
      22      20      21      21      22      20      21      21      22      20
      21      21      22      20      21      21      22      20      21      21
      22      20      21      21      22      20      21      21      22      20
      21      21      22      20      21      21      22      20      21      21
      22      20      21      21      22      20      21      21      22      20
      21      21      22      20      21      21      22      20      21      21
      22      20      21      21      22      20      21      21      22      20
      21      21      22      20      21      21      22      20      21      21
      22      20      21      21      22      20      21      21      22      20
      21      21      22      20      21      21      22      20      21      21
      22      20      21      21      22      20      21      21      22      20
      21      21      22      20      21      21      22      20      21      21
      22      20      21      21      22      20      21      21      22      20
      21      21      22      20      21      21      22      20      21      21
      22      20      21      21      22      20      21      21      22      20
      21      21      22      20      21      21      22      20      21      21
      22      20      21      21      22      20      21      21      22      20
      21      21      22      20      21      21      22      20      21      21
      22      20      21      21      22      20      21      21      22      20
      21      21      22      20      21      21      22      20      21      21
      22      20      21      21      22      20      21      21      22      20
      21      21      22      20      21      21      22      20      21      21
      22      20      21      21      22      20      21      21      22      20
      21      21      22      20      21      21      22      20      21      21
      22      20      21      21      22      20      21      21      22      20
      21      21      22      20      21      21      22      20      21      21
      22      20      21      21      22      20      21      21      22      20
      21      21      22      20      21      21      22      20      21      21
      22      20      21      21      22      20      21      21      22      20
      21      21      22      20      21      21      22      20      21      21
      22      20      21      21      22      20      21      21      22      20
      21      21      22      20      21      21      22      20      21      21
      22      20      21      21      22      20      21      21      22      20
      21      21      22      20      21      21      22      20      21      21
      22      20      21      21      22      20      21      21      22      20
      21      21      22      20      21      21      22      20      21      21
      22      20      21      21      22      20      21      21      22      20
      21      21      22      20      21      21      22      20      21      21
      22      20      21      21      22      20      21      21      22      20
      21      21      22      20      21      21      22      20      21      21
      22      20      21      21      22      20      21      21      22      20
      21      21      22      20      21      21      22      20      21      21
      22      20      21      21      22      20      21      21      22      20
      21      21      22      20      21      21      22      20      21      21
      22      20      21      21      22      20      21      21      22      20
      21      21      22      20      21      21      22      20      21      21
      22      20      21      21      22      20      21      21      22      20
      21      21      22      20      21      21      22      20      21      21
      22      20      21      21      22      20      21      21      22      20
      21      21      22      20      21      21      22      20      21      21
      22      20      21      21      22      20      21      21      22      20
      21      21      22      20      21      21      22      20      21      21
      22      20      21      21      22      20      21      21      22      20
      21      21      22      20      21      21      22      20      21      21
      22      20      21      21      22      20      21      21      22      20
      21      21      22      20      21      21      22      20      21      21
      22      20      21      21      22      20      21      21      22      20
      21      21      22      20      21      21      22      20      21      21
      22      20      21      21      22      20      21      21      22      20
      21      21      22      20      21      21      22      20      21      21
      22      20      21      21      22      20      21      21      22      20
      21      21      22      20      21      21      22      20      21      21
      22      20      21      21      22      20      21      21      22      20
      21      21      22      20      21      21      22      20      21      21
      22      20      21      21      22      20      21      21      22      20
      21      21      22      20      21      21      22      20      21      21
      22      20      21      21      22      20      21      21      22      20
      21      21      22      20      21      21      22      20      21      21
      22      20      21      21      22      20      21      21      22      20
      21      21      22      20      21      21      22      20      21      21
      22      20      21      21      22      20      21      21      22      20
      21      21      22      20      21      21      22      20      21      21
      22      20      21      21      22      20      21      21      22      20
      21      21      22      20      21      21      22      20      21      21
      22      20      21      21      22      20      21      21      22      20
      21      21      22      20      21      21      22      20      21      21
      22      20      21      21      22      20      21      21      22      20
      21      21      22      20      21      21      22      20      21      21
      22      20      21      21      22      20      21      21      22      20
      21      21      22      20      21      21      22      20      21      21
      22      20      21      21      22      20      21      21      22      20
      21      21      22      20      21      21      22      20      21      21
      22      20      21      21      22      20      21      21      22      20
      21      21      22      20      21      21      22      20      21      21
      22      20      21      21      22      20      21      21      22      20
      21      21      22      20      21      21      22      20      21      21
      22      20      21      21      22      20      21      21      22      20
      21      21      22      20      21      21      22      20      21      21
      22      20      21      21      22      20      21      21      22      20
      21      21      22      20      21      21      22      20      21      21
      22      20      21      21      22      20      21      21      22      20
      21      21      22      20      21      21      22      20      21      21
      22      20      21      21      22      20      21      21      22      20
      21      21      22      20      21      21      22      20      21      21
      22      20      21      21      22      20      21      21      22      20
      21      21      22      20      21      21      22      20      21      21
      22      20      21      21      22      20      21      21      22      20
      21      21      22      20      21      21      22      20      21      21
      22      20      21      21      22      20      21      21      22      20
      21      21      22      20      21      21      22      20      21      21
      22      20      21      21      22      20      21      21      22      20
      21      21      22      20      21      21      22      20      21      21
      22      20      21      21      22      20      21      21      22      20
      21      21      22      20      21      21      22      20      21      21
      22      20      21      21      22      20      21      21      22      20
      21      21      22      20      21      21      22      20      21      21
      22      20      21      21      22      20      21      21      22      20
      21      21      22      20      21      21      22      20      21      21
      22      20      21      21      22      20      21      21      22      20
      21      21      22      20      21      21      22      20      21      21
      22      20      21      21      22      20      21      21      22      20
      21      21      22      20      21      21      22      20      21      21
      22      20      21      21      22      20      21      21      22      20
      21      21      22      20      21      21      22      20      21      21
      22      20      21      21      22      20      21      21      22      20
      21      21      22      20      21      21      22      20      21      21
      22      20      21      21      22      20      21      21      22      20
      21      21      22      20      21      21      22      20      21      21
      22      20      21      21      22      20      21      21      22      20
      21      21      22      20      21      21      22      20      21      21
      22      20      21      21      22      20      21      21      22      20
      21      21      22      20      21      21      22      20      21      21
      22      20      21      21      22      20      21      21      22      20
      21      21      22      20      21      21      22      20      21      21
      22      20      21      21      22      20      21      21      22      20
      21      21      22      20      21      21      22      20      21      21
      22      20      21      21      22      20      21      21      22      20
      21      21      22      20      21      21      22      20      21      21
      22      20      21      21      22      20      21      21      22      20
      21      21      22      20      21      21      22      20      21      21
      22      20      21      21      22      20      21      21      22      20
      21      21      22      20      21      21      22      20      21      21
      22      20      21      21      22      20      21      21      22      20
      21      21      22      20      21      21      22      20      21      21
      22      20      21      21      22      20      21      21      22      20
      21      21      22      20      21      21      22      20      21      21
      22      20      21      21      22      20      21      21      22      20
      21      21      22      20      21      21      22      20      21      21
      22      20      21      21      22      20      21      21      22      20
      21      21      22      20      21      21      22      20      21      21
      22      20      21      21      22      20      21      21      22      20
      21      21      22      20      21      21      22      20      21      21
      22      20      21      21      22      20      21      21      22      20
      21      21      22      20      21      21      22      20      21      21
      22      20      21      21      22      20      21      21      22      20
      21      21      22      20      21      21      22      20      21      21
      22      20      21      21      22      20      21      21      22      20
      21      21      22      20      21      21      22      20      21      21
      22      20      21      21      22      20      21      21      22      20
      21      21      22      20      21      21      22      20      21      21
      22      20      21      21      22      20      21      21      22      20
      21      21      22      20      21      21      22      20      21      21
      22      20      21      21      22      20      21      21      22      20
      21      21      22      20      21      21      22      20      21      21
      22      20      21      21      22      20      21      21      22      20
      21      21      22      20      21      21      22      20      21      21
      22      20      21      21      22      20      21      21      22      20
      21      21      22      20      21      21      22      20      21      21
      22      20      21      21      22      20      21      21      22      20
      21      21      22      20      21      21      22      20      21      21
      22      20      21      21      22      20      21      21      22      20
      21      21      22      20      21      21      22      20      21      21
      22      20      21      21      22      20      21      21      22      20
      21      21      22      20      21      21      22      20      21      21
      22      20      21      21      22      20      21      21      22      20
      21      21      22      20      21      21      22      20      21      21
      22      20      21      21      22      20      21      21      22      20
      21      21      22      20      21      21      22      20      21      21
      22      20      21      21      22      20      21      21      22      20
      21      21      22      20      21      21      22      20      21      21
      22      20      21      21      22      20      21      21      22      20
      21      21      22      20      21      21      22      20      21      21
      22      20      21      21      22      20      21      21      22      20
      21      21      22      20      21      21      22      20      21      21
      22      20      21      21      22      20      21      21      22      20
      21      21      22      20      21      21      22      20      21      21
      22      20      21      21      22      20      21      21      22      20
      21      21      22      20      21      21      22      20      21      21
      22      20      21      21      22      20      21      21      22      20
      21      21      22      20      21      21      22      20      21      21
      22      20      21      21      22      20      21      21      22      20
      21      21      22      20      21      21      22      20      21      21
      22      20      21      21      22      20      21      21      22      20
      21      21      22      20      21      21      22      20      21      21
      22      20      21      21      22      20      21      21      22      20
      21      21      22      20      21      21      22      20      21      21
      22      20      21      21      22      20      21      21      22      20
      21      21      22      20      21      21      22      20      21      21
      22      20      21      21      22      20      21      21      22      20
      21      21      22      20      21      21      22      20      21      21
      22      20      21      21      22      20      21      21      22      20
      21      21      22      20      21      21      22      20      21      21
      22      20      21      21      22      20      21      21      22      20
      21      21      22      20      21      21      22      20      21      21
      22      20      21      21      22      20      21      21      22      20
      21      21      22      20      21      21      22      20      21      21
      22      20      21      21      22      20      21      21      22      20
      21      21      22      20      21      21      22      20      21      21
      22      20      21      21      22      20      21      21      22      20
      21      21      22      20      21      21      22      20      21      21
      22      20      21      21      22      20      21      21      22      20
      21      21      22      20      21      21      22      20      21      21
      22      20      21      21      22      20      21      21      22      20
      21      21      22      20      21      21      22      20      21      21
      22      20      21      21      22      20      21      21      22      20
      21      21      22      20      21      21      22      20      21      21
      22      20      21      21      22      20      21      21      22      20
      21      21      22      20      21      21      22      20      21      21
      22      20      21      21      22      20      21      21      22      20
      21      21      22      20      21      21      22      20      21      21
      22      20      21      21      22      20      21      21      22      20
      21      21      22      20      21      21      22      20      21      21
      22      20      21      21      22      20      21      21      22      20
      21      21      22      20      21      21      22      20      21      21
      22      20      21      21      22      20      21      21      22      20
      21      21      22      20      21      21      22      20      21      21
      22      20      21      21      22      20      21      21      22      20
      21      21      22      20      21      21      22      20      21      21
      22      20      21      21      22      20      21      21      22      20
      21      21      22      20      21      21      22      20      21      21
      22      20      21      21      22      20      21      21      22      20
      21      21      22      20      21      21      22      20      21      21
      22      20      21      21      22      20      21      21      22      20
      21      21      22      20      21      21      22      20      21      21
      22      20      21      21      22      20      21      21      22      20
      21      21      22      20      21      21      22      20      21      21
      22      20      21      21      22      20      21      21      22      20
      21      21      22      20      21      21      22      20      21      21
      22      20      21      21      22      20      21      21      22      20
      21      21      22      20      21      21      22      20      21      21
      22      20      21      21      22      20      21      21      22      20
      21      21      22      20      21      21      22      20      21      21
      22      20      21      21      22      20      21      21      22      20
      21      21      22      20      21      21      22      20      21      21
      22      20      21      21      22      20      21      21      22      20
      21      21      22      20      21      21      22      20      21      21
      22      20      21      21      22      20      21      21      22      20
      21      21      22      20      21      21      22      20      21      21
      22      20      21      21      22      20      21      21      22      20
      21      21      22      20      21      21      22      20      21      21
      22      20      21      21      22      20      21      21      22      20
      21      21      22      20      21      21      22      20      21      21
      22      20      21      21      22      20      21      21      22      20
      21      21      22      20      21      21      22      20      21      21
      22      20      21      21      22      20      21      21      22      20
      21      21      22      20      21      21      22      20      21      21
      22      20      21      21      22      20      21      21      22      20
      21      21      22      20      21      21      22      20      21      21
      22      20      21      21      22      20      21      21      22      20
      21      21      22      20      21      21      22      20      21      21
      22      20      21      21      22      20      21      21      22      20
      21      21      22      20      21      21      22      20      21      21
      22      20      21      21      22      20      21      21      22      20
      21      21      22      20      21      21      22      20      21      21
      22      20      21      21      22      20      21      21      22      20
      21      21      22      20      21      21      22      20      21      21
      22      20      21      21      22      20      21      21      22      20
      21      21      22      20      21      21      22      20      21      21
      22      20      21      21      22      20      21      21      22      20
      21      21      22      20      21      21      22      20      21      21
      22      20      21      21      22      20      21      21      22      20
      21      21      22      20      21      21      22      20      21      21
      22      20      21      21      22      20      21      21      22      20
      21      21      22      20      21      21      22      20      21      21
      22      20      21      21      22      20      21      21      22      20
      21      21      22      20      21      21      22      20      21      21
      22      20      21      21      22      20      21      21      22      20
      21      21      22      20      21      21      22      20      21      21
      22      20      21      21      22      20      21      21      22      20
      21      21      22      20      21      21      22      20      21      21
      22      20      21      21      22      20      21      21      22      20
      21      21      22      20      21      21      22      20      21      21
      22      20      21      21      22      20      21      21      22      20
      21      21      22      20      21      21      22      20      21      21
      22      20      21      21      22      20      21      21      22      20
      21      21      22      20      21      21      22      20      21      21
      22      20      21      21      22      20      21      21      22      20
      21      21      22      20      21      21      22      20      21      21
      22      20      21      21      22      20      21      21      22      20
      21      21      22      20      21      21      22      20      21      21
      22      20      21      21      22      20      21      21      22      20
      21      21      22      20      21      21      22      20      21      21
      22      20      21      21      22      20      21      21      22      20
      21      21      22      20      21      21      22      20      21      21
      22      20      21      21      22      20      21      21      22      20
      21      21      22      20      21      21      22      20      21      21
      22      20      21      21      22      20      21      21      22      20
      21      21      22      20      21      21      22      20      21      21
      22      20      21      21      22      20      21      21      22      20
      21      21      22      20      21      21      22      20      21      21
      22      20      21      21      22      20      21      21      22      20
      21      21      22      20      21      21      22      20      21      21
      22      20      21      21      22      20      21      21      22      20
      21      21      22      20      21      21      22      20      21      21
      22      20      21      21      22      20      21      21      22      20
      21      21      22      20      21      21      22      20      21      21
      22      20      21      21      22      20      21      21      22      20
      21      21      22      20      21      21      22      20      21      21
      22      20      21      21      22      20      21      21      22      20
      21      21      22      20      21      21      22      20      21      21
      22      20      21      21      22      20      21      21      22      20
      21      21      22      20      21      21      22      20      21      21
      22      20      21      21      22      20      21      21      22      20
      21      21      22      20      21      21      22      20      21      21
      22      20      21      21      22      20      21      21      22      20
      21      21      22      20      21      21      22      20      21      21
      22      20      21      21      22      20      21      21      22      20
      21      21      22      20      21      21      22      20      21      21
      22      20      21      21      22      20      21      21      22      20
      21      21      22      20      21      21      22      20      21      21
      22      20      21      21      22      20      21      21      22      20
      21      21      22      20      21      21      22      20      21      21
      22      20      21      21      22      20      21      21      22      20
      21      21      22      20      21      21      22      20      21      21
      22      20      21      21      22      20      21      21      22      20
      21      21      22      20      21      21      22      20      21      21
      22      20      21      21      22      20      21      21      22      20
      21      21      22      20      21      21      22      20      21      21
      22      20      21      21      22      20      21      21      22      20
      21      21      22      20      21      21      22      20      21      21
      22      20      21      21      22      20      21      21      22      20
      21      21      22      20      21      21      22      20      21      21
      22      20      21      21      22      20      21      21      22      20
      21      21      22      20      21      21      22      20      21      21
      22      20      21      21      22      20      21      21      22      20
      21      21      22      20      21      21      22      20      21      21
      22      20      21      21      22      20      21      21      22      20
      21      21      22      20      21      21      22      20      21      21
      22      20      21      21      22      20      21      21      22      20
      21      21      22      20      21      21      22      20      21      21
      22      20      21      21      22      20      21      21      22      20
      21      21      22      20      21      21      22      20      21      21
      22      20      21      21      22      20      21      21      22      20
      21      21      22      20      21      21      22      20      21      21
      22      20      21      21      22      20      21      21      22      20
      21      21      22      20      21      21      22      20      21      21
      22      20      21      21      22      20      21      21      22      20
      21      21      22      20      21      21      22      20      21      21
      22      20      21      21      22      20      21      21      22      20
      21      21      22      20      21      21      22      20      21      21
      22      20      21      21      22      20      21      21      22      20
      21      21      22      20      21      21      22      20      21      21
      22      20      21      21      22      20      21      21      22      20
      21      21      22      20      21      21      22      20      21      21
      22      20      21      21      22      20      21      21      22      20
      21      21      22      20      21      21      22      20      21      21
      22      20      21      21      22      20      21      21      22      20
      21      21      22      20      21      21      22      20      21      21
      22      20      21      21      22      20      21      21      22      20
      21      21      22      20      21      21      22      20      21      21
      22      20      21      21      22      20      21      21      22      20
      21      21      22      20      21      21      22      20      21      21
      22      20      21      21      22      20      21      21      22      20
      21      21      22      20      21      21      22      20      21      21
      22      20      21      21      22      20      21      21      22      20
      21      21      22      20      21      21      22      20      21      21
      22      20      21      21      22      20      21      21      22      20
      21      21      22      20      21      21      22      20      21      21
      22      20      21      21      22      20      21      21      22      20
      21      21      22      20      21      21      22      20      21      21
      22      20      21      21      22      20      21      21      22      20
      21      21      22      20      21      21      22      20      21      21
      22      20      21      21      22      20      21      21      22      20
      21      21      22      20      21      21      22      20      21      21
      22      20      21      21      22      20      21      21      22      20
      21      21      22      20      21      21      22      20      21      21
      22      20      21      21      22      20      21      21      22      20
      21      21      22      20      21      21      22      20      21      21
      22      20      21      21      22      20      21      21      22      20
      21      21      22      20      21      21      22      20      21      21
      22      20      21      21      22      20      21      21      22      20
      21      21      22      20      21      21      22      20      21      21
      22      20      21      21      22      20      21      21      22      20
      21      21      22      20      21      21      22      20      21      21
      22      20      21      21      22      20      21      21      22      20
      21      21      22      20      21      21      22      20      21      21
      22      20      21      21      22      20      21      21      22      20
      21      21      22      20      21      21      22      20      21      21
      22      20      21      21      22      20      21      21      22      20
      21      21      22      20      21      21      22      20      21      21
      22      20      21      21      22      20      21      21      22      20
      21      21      22      20      21      21      22      20      21      21
      22      20      21      21      22      20      21      21      22      20
      21      21      22      20      21      21      22      20      21      21
      22      20      21      21      22      20      21      21      22      20
      21      21      22      20      21      21      22      20      21      21
      22      20      21      21      22      20      21      21      22      20
      21      21      22      20      21      21      22      20      21      21
      22      20      21      21      22      20      21      21      22      20
      21      21      22      20      21      21      22      20      21      21
      22      20      21      21      22      20      21      21      22      20
      21      21      22      20      21      21      22      20      21      21
      22      20      21      21      22      20      21      21      22      20
      21      21      22      20      21      21      22      20      21      21
      22      20      21      21      22      20      21      21      22      20
      21      21      22      20      21      21      22      20      21      21
      22      20      21      21      22      20      21      21      22      20
      21      21      22      20      21      21      22      20      21      21
      22      20      21      21      22      20      21      21      22      20
      21      21      22      20      21      21      22      20      21      21
      22      20      21      21      22      20      21      21      22      20
      21      21      22      20      21      21      22      20      21      21
      22      20      21      21      22      20      21      21      22      20
      21      21      22      20      21      21      22      20      21      21
      22      20      21      21      22      20      21      21      22      20
      21      21      22      20      21      21      22      20      21      21
      22      20      21      21      22      20      21      21      22      20
      21      21      22      20      21      21      22      20      21      21
      22      20      21      21      22      20      21      21      22      20
      21      21      22      20      21      21      22      20      21      21
      22      20      21      21      22      20      21      21      22      20
      21      21      22      20      21      21      22      20      21      21
      22      20      21      21      22      20      21      21      22      20
      21      21      22      20      21      21      22      20      21      21
      22      20      21      21      22      20      21      21      22      20
      21      21      22      20      21      21      22      20      21      21
      22      20      21      21      22      20      21      21      22      20
      21      21      22      20      21      21      22      20      21      21
      22      20      21      21      22      20      21      21      22      20
      21      21      22      20      21      21      22      20      21      21
      22      20      21      21      22      20      21      21      22      20
      21      21      22      20      21      21      22      20      21      21
      22      20      21      21      22      20      21      21      22      20
      21      21      22      20      21      21      22      20      21      21
      22      20      21      21      22      20      21      21      22      20
      21      21      22      20      21      21      22      20      21      21
      22      20      21      21      22      20      21      21      22      20
      21      21      22      20      21      21      22      20      21      21
      22      20      21      21      22      20      21      21      22      20
      21      21      22      20      21      21      22      20      21      21
      22      20      21      21      22      20      21      21      22      20
      21      21      22      20      21      21      22      20      21      21
      22      20      21      21      22      20      21      21      22      20
      21      21      22      20      21      21      22      20      21      21
      22      20      21      21      22      20      21      21      22      20
      21      21      22      20      21      21      22      20      21      21
      22      20      21      21      22      20      21      21      22      20
      21      21      22      20      21      21      22      20      21      21
      22      20      21      21      22      20      21      21      22      20
      21      21      22      20      21      21      22      20      21      21
      22      20      21      21      22      20      21      21      22      20
      21      21      22      20      21      21      22      20      21      21
      22      20      21      21      22      20      21      21      22      20
      21      21      22      20      21      21      22      20      21      21
      22      20      21      21      22      20      21      21      22      20
      21      21      22      20      21      21      22      20      21      21
      22      20      21      21      22      20      21      21      22      20
      21      21      22      20      21      21      22      20      21      21
      22      20      21      21      22      20      21      21      22      20
      21      21      22      20      21      21      22      20      21      21
      22      20      21      21      22      20      21      21      22      20
      21      21      22      20      21      21      22      20      21      21
      22      20      21      21      22      20      21      21      22      20
      21      21      22      20      21      21      22      20      21      21
      22      20      21      21      22      20      21      21      22      20
      21      21      22      20      21      21      22      20      21      21
      22      20      21      21      22      20      21      21      22      20
      21      21      22      20      21      21      22      20      21      21
      22      20      21      21      22      20      21      21      22      20
      21      21      22      20      21      21      22      20      21      21
      22      20      21      21      22      20      21      21      22      20
      21      21      22      20      21      21      22      20      21      21
      22      20      21      21      22      20      21      21      22      20
      21      21      22      20      21      21      22      20      21      21
      22      20      21      21      22      20      21      21      22      20
      21      21      22      20      21      21      22      20      21      21
      22      20      21      21      22      20      21      21      22      20
      21      21      22      20      21      21      22      20      21      21
      22      20      21      21      22      20      21      21      22      20
      21      21      22      20      21      21      22      20      21      21
      22      20      21      21      22      20      21      21      22      20
      21      21      22      20      21      21      22      20      21      21
      22      20      21      21      22      20      21      21      22      20
      21      21      22      20      21      21      22      20      21      21
      22      20      21      21      22      20      21      21      22      20
      21      21      22      20      21      21      22      20      21      21
      22      20      21      21      22      20      21      21      22      20
      21      21      22      20      21      21      22      20      21      21
      22      20      21      21      22      20      21      21      22      20
      21      21      22      20      21      21      22      20      21      21
      22      20      21      21      22      20      21      21      22      20
      21      21      22      20      21      21      22      20      21      21
      22      20      21      21      22      20      21      21      22      20
      21      21      22      20      21      21      22      20      21      21
      22      20      21      21      22      20      21      21      22      20
      21      21      22      20      21      21      22      20      21      21
      22      20      21      21      22      20      21      21      22      20
      21      21      22      20      21      21      22      20      21      21
      22      20      21      21      22      20      21      21      22      20
      21      21      22      20      21      21      22      20      21      21
      22      20      21      21      22      20      21      21      22      20
      21      21      22      20      21      21      22      20      21      21
      22      20      21      21      22      20      21      21      22      20
      21      21      22      20      21      21      22      20      21      21
      22      20      21      21      22      20      21      21      22      20
      21      21      22      20      21      21      22      20      21      21
      22      20      21      21      22      20      21      21      22      20
      21      21      22      20      21      21      22      20      21      21
      22      20      21      21      22      20      21      21      22      20
      21      21      22      20      21      21      22      20      21      21
      22      20      21      21      22      20      21      21      22      20
      21      21      22      20      21      21      22      20      21      21
      22      20      21      21      22      20      21      21      22      20
      21      21      22      20      21      21      22      20      21      21
      22      20      21      21      22      20      21      21      22      20
      21      21      22      20      21      21      22      20      21      21
      22      20      21      21      22      20      21      21      22      20
      21      21      22      20      21      21      22      20      21      21
      22      20      21      21      22      20      21      21      22      20
      21      21      22      20      21      21      22      20      21      21
      22      20      21      21      22      20      21      21      22      20
      21      21      22      20      21      21      22      20      21      21
      22      20      21      21      22      20      21      21      22      20
      21      21      22      20      21      21      22      20      21      21
      22      20      21      21      22      20      21      21      22      20
      21      21      22      20      21      21      22      20      21      21
      22      20      21      21      22      20      21      21      22      20
      21      21      22      20      21      21      22      20      21      21
      22      20      21      21      22      20      21      21      22      20
      21      21      22      20      21      21      22      20      21      21
      22      20      21      21      22      20      21      21      22      20
      21      21      22      20      21      21      22      20      21      21
      22      20      21      21      22      20      21      21      22      20
      21      21      22      20      21      21      22      20      21      21
      22      20      21      21      22      20      21      21      22      20
      21      21      22      20      21      21      22      20      21      21
      22      20      21      21      22      20      21      21      22      20
      21      21      22      20      21      21      22      20      21      21
      22      20      21      21      22      20      21      21      22      20
      21      21      22      20      21      21      22      20      21      21
      22      20      21      21      22      20      21      21      22      20
      21      21      22      20      21      21      22      20      21      21
      22      20      21      21      22      20      21      21      22      20
      21      21      22      20      21      21      22      20      21      21
      22      20      21      21      22      20      21      21      22      20
      21      21      22      20      21      21      22      20      21      21
      22      20      21      21      22      20      21      21      22      20
      21      21      22      20      21      21      22      20      21      21
      22      20      21      21      22      20      21      21      22      20
      21      21      22      20      21      21      22      20      21      21
      22      20      21      21      22      20      21      21      22      20
      21      21      22      20      21      21      22      20      21      21
      22      20      21      21      22      20      21      21      22      20
      21      21      22      20      21      21      22      20      21      21
      22      20      21      21      22      20      21      21      22      20
      21      21      22      20      21      21      22      20      21      21
      22      20      21      21      22      20      21      21      22      20
      21      21      22      20      21      21      22      20      21      21
      22      20      21      21      22      20      21      21      22      20
      21      21      22      20      21      21      22      20      21      21
      22      20      21      21      22      20      21      21      22      20
      21      21      22      20      21      21      22      20      21      21
      22      20      21      21      22      20      21      21      22      20
      21      21      22      20      21      21      22      20      21      21
      22      20      21      21      22      20      21      21      22      20
      21      21      22      20      21      21      22      20      21      21
      22      20      21      21      22      20      21      21      22      20
      21      21      22      20      21      21      22      20      21      21
      22      20      21      21      22      20      21      21      22      20
      21      21      22      20      21      21      22      20      21      21
      22      20      21      21      22      20      21      21      22      20
      21      21      22      20      21      21      22      20      21      21
      22      20      21      21      22      20      21      21      22      20
      21      21      22      20      21      21      22      20      21      21
      22      20      21      21      22      20      21      21      22      20
      21      21      22      20      21      21      22      20      21      21
      22      20      21      21      22      20      21      21      22      20
      21      21      22      20      21      21      22      20      21      21
      22      20      21      21      22      20      21      21      22      20
      21      21      22      20      21      21      22      20      21      21
      22      20      21      21      22      20      21      21      22      20
      21      21      22      20      21      21      22      20      21      21
      22      20      21      21      22      20      21      21      22      20
      21      21      22      20      21      21      22      20      21      21
      22      20      21      21      22      20      21      21      22      20
      21      21      22      20      21      21      22      20      21      21
      22      20      21      21      22      20      21      21      22      20
      21      21      22      20      21      21      22      20      21      21
      22      20      21      21      22      20      21      21      22      20
      21      21      22      20      21      21      22      20      21      21
      22      20      21      21      22      20      21      21      22      20
      21      21      22      20      21      21      22      20      21      21
      22      20      21      21      22      20      21      21      22      20
      21      21      22      20      21      21      22      20      21      21
      22      20      21      21      22      20      21      21      22      20
      21      21      22      20      21      21      22      20      21      21
      22      20      21      21      22      20      21      21      22      20
      21      21      22      20      21      21      22      20      21      21
      22      20      21      21      22      20      21      21      22      20
      21      21      22      20      21      21      22      20      21      21
      22      20      21      21      22      20      21      21      22      20
      21      21      22      20      21      21      22      20      21      21
      22      20      21      21      22      20      21      21      22      20
      21      21      22      20      21      21      22      20      21      21
      22      20      21      21      22      20      21      21      22      20
      21      21      22      20      21      21      22      20      21      21
      22      20      21      21      22      20      21      21      22      20
      21      21      22      20      21      21      22      20      21      21
      22      20      21      21      22      20      21      21      22      20
      21      21      22      20      21      21      22      20      21      21
      22      20      21      21      22      20      21      21      22      20
      21      21      22      20      21      21      22      20      21      21
      22      20      21      21      22      20      21      21      22      20
      21      21      22      20      21      21      22      20      21      21
      22      20      21      21      22      20      21      21      22      20
      21      21      22      20      21      21      22      20      21      21
      22      20      21      21      22      20      21      21      22      20
      21      21      22      20      21      21      22      20      21      21
      22      20      21      21      22      20      21      21      22      20
      21      21      22      20      21      21      22      20      21      21
      22      20      21      21      22      20      21      21      22      20
      21      21      22      20      21      21      22      20      21      21
      22      20      21      21      22      20      21      21      22      20
      21      21      22      20      21      21      22      20      21      21
      22      20      21      21      22      20      21      21      22      20
      21      21      22      20      21      21      22      20      21      21
      22      20      21      21      22      20      21      21      22      20
      21      21      22      20      21      21      22      20      21      21
      22      20      21      21      22      20      21      21      22      20
      21      21      22      20      21      21      22      20      21      21
      22      20      21      21      22      20      21      21      22      20
      21      21      22      20      21      21      22      20      21      21
      22      20      21      21      22      20      21      21      22      20
      21      21      22      20      21      21      22      20      21      21
      22      20      21      21      22      20      21      21      22      20
      21      21      22      20      21      21      22      20      21      21
      22      20      21      21      22      20      21      21      22      20
      21      21      22      20      21      21      22      20      21      21
      22      20      21      21      22      20      21      21      22      20
      21      21      22      20      21      21      22      20      21      21
      22      20      21      21      22      20      21      21      22      20
      21      21      22      20      21      21      22      20      21      21
      22      20      21      21      22      20      21      21      22      20
      21      21      22      20      21      21      22      20      21      21
      22      20      21      21      22      20      21      21      22      20
      21      21      22      20      21      21      22      20      21      21
      22      20      21      21      22      20      21      21      22      20
      21      21      22      20      21      21      22      20      21      21
      22      20      21      21      22      20      21      21      22      20
      21      21      22      20      21      21      22      20      21      21
      22      20      21      21      22      20      21      21      22      20
      21      21      22      20      21      21      22      20      21      21
      22      20      21      21      22      20      21      21      22      20
      21      21      22      20      21      21      22      20      21      21
      22      20      21      21      22      20      21      21      22      20
      21      21      22      20      21      21      22      20      21      21
      22      20      21      21      22      20      21      21      22      20
      21      21      22      20      21      21      22      20      21      21
      22      20      21      21      22      20      21      21      22      20
      21      21      22      20      21      21      22      20      21      21
      22      20      21      21      22      20      21      21      22      20
      21      21      22      20      21      21      22      20      21      21
      22      20      21      21      22      20      21      21      22      20
      21      21      22      20      21      21      22      20      21      21
      22      20      21      21      22      20      21      21      22      20
      21      21      22      20      21      21      22      20      21      21
      22      20      21      21      22      20      21      21      22      20
      21      21      22      20      21      21      22      20      21      21
      22      20      21      21      22      20      21      21      22      20
      21      21      22      20      21      21      22      20      21      21
      22      20      21      21      22      20      21      21      22      20
      21      21      22      20      21      21      22      20      21      21
      22      20      21      21      22      20      21      21      22      20
      21      21      22      20      21      21      22      20      21      21
      22      20      21      21      22      20      21      21      22      20
      21      21      22      20      21      21      22      20      21      21
      22      20      21      21      22      20      21      21      22      20
      21      21      22      20      21      21      22      20      21      21
      22      20      21      21      22      20      21      21      22      20
      21      21      22      20      21      21      22      20      21      21
      22      20      21      21      22      20      21      21      22      20
      21      21      22      20      21      21      22      20      21      21
      22      20      21      21      22      20      21      21      22      20
      21      21      22      20      21      21      22      20      21      21
      22      20      21      21      22      20      21      21      22      20
      21      21      22      20      21      21      22      20      21      21
      22      20      21      21      22      20      21      21      22      20
      21      21      22      20      21      21      22      20      21      21
      22      20      21      21      22      20      21      21      22      20
      21      21      22      20      21      21      22      20      21      21
      22      20      21      21      22      20      21      21      22      20
      21      21      22      20      21      21      22      20      21      21
      22      20      21      21      22      20      21      21      22      20
      21      21      22      20      21      21      22      20      21      21
      22      20      21      21      22      20      21      21      22      20
      21      21      22      20      21      21      22      20      21      21
      22      20      21      21      22      20      21      21      22      20
      21      21      22      20      21      21      22      20      21      21
      22      20      21      21      22      20      21      21      22      20
      21      21      22      20      21      21      22      20      21      21
      22      20      21      21      22      20      21      21      22      20
      21      21      22      20      21      21      22      20      21      21
      22      20      21      21      22      20      21      21      22      20
      21      21      22      20      21      21      22      20      21      21
      22      20      21      21      22      20      21      21      22      20
      21      21      22      20      21      21      22      20      21      21
      22      20      21      21      22      20      21      21      22      20
      21      21      22      20      21      21      22      20      21      21
      22      20      21      21      22      20      21      21      22      20
      21      21      22      20      21      21      22      20      21      21
      22      20      21      21      22      20      21      21      22      20
      21      21      22      20      21      21      22      20      21      21
      22      20      21      21      22      20      21      21      22      20
      21      21      22      20      21      21      22      20      21      21
      22      20      21      21      22      20      21      21      22      20
      21      21      22      20      21      21      22      20      21      21
      22      20      21      21      22      20      21      21      22      20
      21      21      22      20      21      21      22      20      21      21
      22      20      21      21      22      20      21      21      22      20
      21      21      22      20      21      21      22      20      21      21
      22      20      21      21      22      20      21      21      22      20
      21      21      22      20      21      21      22      20      21      21
      22      20      21      21      22      20      21      21      22      20
      21      21      22      20      21      21      22      20      21      21
      22      20      21      21      22      20      21      21      22      20
      21      21      22      20      21      21      22      20      21      21
      22      20      21      21      22      20      21      21      22      20
      21      21      22      20      21      21      22      20      21      21
      22      20      21      21      22      20      21      21      22      20
      21      21      22      20      21      21      22      20      21      21
      22      20      21      21      22      20      21      21      22      20
      21      21      22      20      21      21      22      20      21      21
      22      20      21      21      22      20      21      21      22      20
      21      21      22      20      21      21      22      20      21      21
      22      20      21      21      22      20      21      21      22      20
      21      21      22      20      21      21      22      20      21      21
      22      20      21      21      22      20      21      21      22      20
      21      21      22      20      21      21      22      20      21      21
      22      20      21      21      22      20      21      21      22      20
      21      21      22      20      21      21      22      20      21      21
      22      20      21      21      22      20      21      21      22      20
      21      21      22      20      21      21      22      20      21      21
      22      20      21      21      22      20      21      21      22      20
      21      21      22      20      21      21      22      20      21      21
      22      20      21      21      22      20      21      21      22      20
      21      21      22      20      21      21      22      20      21      21
      22      20      21      21      22      20      21      21      22      20
      21      21      22      20      21      21      22      20      21      21
      22      20      21      21      22      20      21      21      22      20
      21      21      22      20      21      21      22      20      21      21
      22      20      21      21      22      20      21      21      22      20
      21      21      22      20      21      21      22      20      21      21
      22      20      21      21      22      20      21      21      22      20
      21      21      22      20      21      21      22      20      21      21
      22      20      21      21      22      20      21      21      22      20
      21      21      22      20      21      21      22      20      21      21
      22      20      21      21      22      20      21      21      22      20
      21      21      22      20      21      21      22      20      21      21
      22      20      21      21      22      20      21      21      22      20
      21      21      22      20      21      21      22      20      21      21
      22      20      21      21      22      20      21      21      22      20
      21      21      22      20      21      21      22      20      21      21
      22      20      21      21      22      20      21      21      22      20
      21      21      22      20      21      21      22      20      21      21
      22      20      21      21      22      20      21      21      22      20
      21      21      22      20      21      21      22      20      21      21
      22      20      21      21      22      20      21      21      22      20
      21      21      22      20      21      21      22      20      21      21
      22      20      21      21      22      20      21      21      22      20
      21      21      22      20      21      21      22      20      21      21
      22      20      21      21      22      20      21      21      22      20
      21      21      22      20      21      21      22      20      21      21
      22      20      21      21      22      20      21      21      22      20
      21      21      22      20      21      21      22      20      21      21
      22      20      21      21      22      20      21      21      22      20
      21      21      22      20      21      21      22      20      21      21
      22      20      21      21      22      20      21      21      22      20
      21      21      22      20      21      21      22      20      21      21
      22      20      21      21      22      20      21      21      22      20
      21      21      22      20      21      21      22      20      21      21
      22      20      21      21      22      20      21      21      22      20
      21      21      22      20      21      21      22      20      21      21
      22      20      21      21      22      20      21      21      22      20
      21      21      22      20      21      21      22      20      21      21
      22      20      21      21      22      20      21      21      22      20
      21      21      22      20      21      21      22      20      21      21
      22      20      21      21      22      20      21      21      22      20
      21      21      22      20      21      21      22      20      21      21
      22      20      21      21      22      20      21      21      22      20
      21      21      22      20      21      21      22      20      21      21
      22      20      21      21      22      20      21      21      22      20
      21      21      22      20      21      21      22      20      21      21
      22      20      21      21      22      20      21      21      22      20
      21      21      22      20      21      21      22      20      21      21
      22      20      21      21      22      20      21      21      22      20
      21      21      22      20      21      21      22      20      21      21
      22      20      21      21      22      20      21      21      22      20
      21      21      22      20      21      21      22      20      21      21
      22      20      21      21      22      20      21      21      22      20
      21      21      22      20      21      21      22      20      21      21
      22      20      21      21      22      20      21      21      22      20
      21      21      22      20      21      21      22      20      21      21
      22      20      21      21      22      20      21      21      22      20
      21      21      22      20      21      21      22      20      21      21
      22      20      21      21      22      20      21      21      22      20
      21      21      22      20      21      21      22      20      21      21
      22      20      21      21      22      20      21      21      22      20
      21      21      22      20      21      21      22      20      21      21
      22      20      21      21      22      20      21      21      22      20
      21      21      22      20      21      21      22      20      21      21
      22      20      21      21      22      20      21      21      22      20
      21      21      22      20      21      21      22      20      21      21
      22      20      21      21      22      20      21      21      22      20
      21      21      22      20      21      21      22      20      21      21
      22      20      21      21      22      20      21      21      22      20
      21      21      22      20      21      21      22      20      21      21
      22      20      21      21      22      20      21      21      22      20
      21      21      22      20      21      21      22      20      21      21
      22      20      21      21      22      20      21      21      22      20
      21      21      22      20      21      21      22      20      21      21
      22      20      21      21      22      20      21      21      22      20
      21      21      22      20      21      21      22      20      21      21
      22      20      21      21      22      20      21      21      22      20
      21      21      22      20      21      21      22      20      21      21
      22      20      21      21      22      20      21      21      22      20
      21      21      22      20      21      21      22      20      21      21
      22      20      21      21      22      20      21      21      22      20
      21      21      22      20      21      21      22      20      21      21
      22      20      21      21      22      20      21      21      22      20
      21      21      22      20      21      21      22      20      21      21
      22      20      21      21      22      20      21      21      22      20
      21      21      22      20      21      21      22      20      21      21
      22      20      21      21      22      20      21      21      22      20
      21      21      22      20      21      21      22      20      21      21
      22      20      21      21      22      20      21      21      22      20
      21      21      22      20      21      21      22      20      21      21
      22      20      21      21      22      20      21      21      22      20
      21      21      22      20      21      21      22      20      21      21
      22      20      21      21      22      20      21      21      22      20
      21      21      22      20      21      21      22      20      21      21
      22      20      21      21      22      20      21      21      22      20
      21      21      22      20      21      21      22      20      21      21
      22      20      21      21      22      20      21      21      22      20
      21      21      22      20      21      21      22      20      21      21
      22      20      21      21      22      20      21      21      22      20
      21      21      22      20      21      21      22      20      21      21
      22      20      21      21      22      20      21      21      22      20
      21      21      22      20      21      21      22      20      21      21
      22      20      21      21      22      20      21      21      22      20
      21      21      22      20      21      21      22      20      21      21
      22      20      21      21      22      20      21      21      22      20
      21      21      22      20      21      21      22      20      21      21
      22      20      21      21      22      20      21      21      22      20
      21      21      22      20      21      21      22      20      21      21
      22      20      21      21      22      20      21      21      22      20
      21      21      22      20      21      21      22      20      21      21
      22      20      21      21      22      20      21      21      22      20
      21      21      22      20      21      21      22      20      21      21
      22      20      21      21      22      20      21      21      22      20
      21      21      22      20      21      21      22      20      21      21
      22      20      21      21      22      20      21      21      22      20
      21      21      22      20      21      21      22      20      21      21
      22      20      21      21      22      20      21      21      22      20
      21      21      22      20      21      21      22      20      21      21
      22      20      21      21      22      20      21      21      22      20
      21      21      22      20      21      21      22      20      21      21
      22      20      21      21      22      20      21      21      22      20
      21      21      22      20      21      21      22      20      21      21
      22      20      21      21      22      20      21      21      22      20
      21      21      22      20      21      21      22      20      21      21
      22      20      21      21      22      20      21      21      22      20
      21      21      22      20      21      21      22      20      21      21
      22      20      21      21      22      20      21      21      22      20
      21      21      22      20      21      21      22      20      21      21
      22      20      21      21      22      20      21      21      22      20
      21      21      22      20      21      21      22      20      21      21
      22      20      21      21      22      20      21      21      22      20
      21      21      22      20      21      21      22      20      21      21
      22      20      21      21      22      20      21      21      22      20
      21      21      22      20      21      21      22      20      21      21
      22      20      21      21      22      20      21      21      22      20
      21      21      22      20      21      21      22      20      21      21
      22      20      21      21      22      20      21      21      22      20
      21      21      22      20      21      21      22      20      21      21
      22      20      21      21      22      20      21      21      22      20
      21      21      22      20      21      21      22      20      21      21
      22      20      21      21      22      20      21      21      22      20
      21      21      22      20      21      21      22      20      21      21
      22      20      21      21      22      20      21      21      22      20
      21      21      22      20      21      21      22      20      21      21
      22      20      21      21      22      20      21      21      22      20
      21      21      22      20      21      21      22      20      21      21
      22      20      21      21      22      20      21      21      22      20
      21      21      22      20      21      21      22      20      21      21
      22      20      21      21      22      20      21      21      22      20
      21      21      22      20      21      21      22      20      21      21
      22      20      21      21      22      20      21      21      22      20
      21      21      22      20      21      21      22      20      21      21
      22      20      21      21      22      20      21      21      22      20
      21      21      22      20      21      21      22      20      21      21
      22      20      21      21      22      20      21      21      22      20
      21      21      22      20      21      21      22      20      21      21
      22      20      21      21      22      20      21      21      22      20
      21      21      22      20      21      21      22      20      21      21
      22      20      21      21      22      20      21      21      22      20
      21      21      22      20      21      21      22      20      21      21
      22      20      21      21      22      20      21      21      22      20
      21      21      22      20      21      21      22      20      21      21
      22      20      21      21      22      20      21      21      22      20
      21      21      22      20      21      21      22      20      21      21
      22      20      21      21      22      20      21      21      22      20
      21      21      22      20      21      21      22      20      21      21
      22      20      21      21      22      20      21      21      22      20
      21      21      22      20      21      21      22      20      21      21
      22      20      21      21      22      20      21      21      22      20
      21      21      22      20      21      21      22      20      21      21
      22      20      21      21      22      20      21      21      22      20
      21      21      22      20      21      21      22      20      21      21
      22      20      21      21      22      20      21      21      22      20
      21      21      22      20      21      21      22      20      21      21
      22      20      21      21      22      20      21      21      22      20
      21      21      22      20      21      21      22      20      21      21
      22      20      21      21      22      20      21      21      22      20
      21      21      22      20      21      21      22      20      21      21
      22      20      21      21      22      20      21      21      22      20
      21      21      22      20      21      21      22      20      21      21
      22      20      21      21      22      20      21      21      22      20
      21      21      22      20      21      21      22      20      21      21
      22      20      21      21      22      20      21      21      22      20
      21      21      22      20      21      21      22      20      21      21
      22      20      21      21      22      20      21      21      22      20
      21      21      22      20      21      21      22      20      21      21
      22      20      21      21      22      20      21      21      22      20
      21      21      22      20      21      21      22      20      21      21
      22      20      21      21      22      20      21      21      22      20
      21      21      22      20      21      21      22      20      21      21
      22      20      21      21      22      20      21      21      22      20
      21      21      22      20      21      21      22      20      21      21
      22      20      21      21      22      20      21      21      22      20
      21      21      22      20      21      21      22      20      21      21
      22      20      21      21      22      20      21      21      22      20
      21      21      22      20      21      21      22      20      21      21
      22      20      21      21      22      20      21      21      22      20
      21      21      22      20      21      21      22      20      21      21
      22      20      21      21      22      20      21      21      22      20
      21      21      22      20      21      21      22      20      21      21
      22      20      21      21      22      20      21      21      22      20
      21      21      22      20      21      21      22      20      21      21
      22      20      21      21      22      20      21      21      22      20
      21      21      22      20      21      21      22      20      21      21
      22      20      21      21      22      20      21      21      22      20
      21      21      22      20      21      21      22      20      21      21
      22      20      21      21      22      20      21      21      22      20
      21      21      22      20      21      21      22      20      21      21
      22      20      21      21      22      20      21      21      22      20
      21      21      22      20      21      21      22      20      21      21
      22      20      21      21      22      20      21      21      22      20
      21      21      22      20      21      21      22      20      21      21
      22      20      21      21      22      20      21      21      22      20
      21      21      22      20      21      21      22      20      21      21
      22      20      21      21      22      20      21      21      22      20
      21      21      22      20      21      21      22      20      21      21
      22      20      21      21      22      20      21      21      22      20
      21      21      22      20      21      21      22      20      21      21
      22      20      21      21      22      20      21      21      22      20
      21      21      22      20      21      21      22      20      21      21
      22      20      21      21      22      20      21      21      22      20
      21      21      22      20      21      21      22      20      21      21
      22      20      21      21      22      20      21      21      22      20
      21      21      22      20      21      21      22      20      21      21
      22      20      21      21      22      20      21      21      22      20
      21      21      22      20      21      21      22      20      21      21
      22      20      21      21      22      20      21      21      22      20
      21      21      22      20      21      21      22      20      21      21
      22      20      21      21      22      20      21      21      22      20
      21      21      22      20      21      21      22      20      21      21
      22      20      21      21      22      20      21      21      22      20
      21      21      22      20      21      21      22      20      21      21
      22      20      21      21      22      20      21      21      22      20
      21      21      22      20      21      21      22      20      21      21
      22      20      21      21      22      20      21      21      22      20
      21      21      22      20      21      21      22      20      21      21
      22      20      21      21      22      20      21      21      22      20
      21      21      22      20      21      21      22      20      21      21
      22      20      21      21      22      20      21      21      22      20
      21      21      22      20      21      21      22      20      21      21
      22      20      21      21      22      20      21      21      22      20
      21      21      22      20      21      21      22      20      21      21
      22      20      21      21      22      20      21      21      22      20
      21      21      22      20      21      21      22      20      21      21
      22      20      21      21      22      20      21      21      22      20
      21      21      22      20      21      21      22      20      21      21
      22      20      21      21      22      20      21      21      22      20
      21      21      22      20      21      21      22      20      21      21
      22      20      21      21      22      20      21      21      22      20
      21      21      22      20      21      21      22      20      21      21
      22      20      21      21      22      20      21      21      22      20
      21      21      22      20      21      21      22      20      21      21
      22      20      21      21      22      20      21      21      22      20
      21      21      22      20      21      21      22      20      21      21
      22      20      21      21      22      20      21      21      22      20
      21      21      22      20      21      21      22      20      21      21
      22      20      21      21      22      20      21      21      22      20
      21      21      22      20      21      21      22      20      21      21
      22      20      21      21      22      20      21      21      22      20
      21      21      22      20      21      21      22      20      21      21
      22      20      21      21      22      20      21      21      22      20
      21      21      22      20      21      21      22      20      21      21
      22      20      21      21      22      20      21      21      22      20
      21      21      22      20      21      21      22      20      21      21
      22      20      21      21      22      20      21      21      22      20
      21      21      22      20      21      21      22      20      21      21
      22      20      21      21      22      20      21      21      22      20
      21      21      22      20      21      21      22      20      21      21
      22      20      21      21      22      20      21      21      22      20
      21      21      22      20      21      21      22      20      21      21
      22      20      21      21      22      20      21      21      22      20
      21      21      22      20      21      21      22      20      21      21
      22      20      21      21      22      20      21      21      22      20
      21      21      22      20      21      21      22      20      21      21
      22      20      21      21      22      20      21      21      22      20
      21      21      22      20      21      21      22      20      21      21
      22      20      21      21      22      20      21      21      22      20
      21      21      22      20      21      21      22      20      21      21
      22      20      21      21      22      20      21      21      22      20
      21      21      22      20      21      21      22      20      21      21
      22      20      21      21      22      20      21      21      22      20
      21      21      22      20      21      21      22      20      21      21
      22      20      21      21      22      20      21      21      22      20
      21      21      22      20      21      21      22      20      21      21
      22      20      21      21      22      20      21      21      22      20
      21      21      22      20      21      21      22      20      21      21
      22      20      21      21      22      20      21      21      22      20
      21      21      22      20      21      21      22      20      21      21
      22      20      21      21      22      20      21      21      22      20
      21      21      22      20      21      21      22      20      21      21
      22      20      21      21      22      20      21      21      22      20
      21      21      22      20      21      21      22      20      21      21
      22      20      21      21      22      20      21      21      22      20
      21      21      22      20      21      21      22      20      21      21
      22      20      21      21      22      20      21      21      22      20
      21      21      22      20      21      21      22      20      21      21
      22      20      21      21      22      20      21      21      22      20
      21      21      22      20      21      21      22      20      21      21
      22      20      21      21      22      20      21      21      22      20
      21      21      22      20      21      21      22      20      21      21
      22      20      21      21      22      20      21      21      22      20
      21      21      22      20      21      21      22      20      21      21
      22      20      21      21      22      20      21      21      22      20
      21      21      22      20      21      21      22      20      21      21
      22      20      21      21      22      20      21      21      22      20
      21      21      22      20      21      21      22      20      21      21
      22      20      21      21      22      20      21      21      22      20
      21      21      22      20      21      21      22      20      21      21
      22      20      21      21      22      20      21      21      22      20
      21      21      22      20      21      21      22      20      21      21
      22      20      21      21      22      20      21      21      22      20
      21      21      22      20      21      21      22      20      21      21
      22      20      21      21      22      20      21      21      22      20
      21      21      22      20      21      21      22      20      21      21
      22      20      21      21      22      20      21      21      22      20
      21      21      22      20      21      21      22      20      21      21
      22      20      21      21      22      20      21      21      22      20
      21      21      22      20      21      21      22      20      21      21
      22      20      21      21      22      20      21      21      22      20
      21      21      22      20      21      21      22      20      21      21
      22      20      21      21      22      20      21      21      22      20
      21      21      22      20      21      21      22      20      21      21
      22      20      21      21      22      20      21      21      22      20
      21      21      22      20      21      21      22      20      21      21
      22      20      21      21      22      20      21      21      22      20
      21      21      22      20      21      21      22      20      21      21
      22      20      21      21      22      20      21      21      22      20
      21      21      22      20      21      21      22      20      21      21
      22      20      21      21      22      20      21      21      22      20
      21      21      22      20      21      21      22      20      21      21
      22      20      21      21      22      20      21      21      22      20
      21      21      22      20      21      21      22      20      21      21
      22      20      21      21      22      20      21      21      22      20
      21      21      22      20      21      21      22      20      21      21
      22      20      21      21      22      20      21      21      22      20
      21      21      22      20      21      21      22      20      21      21
      22      20      21      21      22      20      21      21      22      20
      21      21      22      20      21      21      22      20      21      21
      22      20      21      21      22      20      21      21      22      20
      21      21      22      20      21      21      22      20      21      21
      22      20      21      21      22      20      21      21      22      20
      21      21      22      20      21      21      22      20      21      21
      22      20      21      21      22      20      21      21      22      20
      21      21      22      20      21      21      22      20      21      21
      22      20      21      21      22      20      21      21      22      20
      21      21      22      20      21      21      22      20      21      21
      22      20      21      21      22      20      21      21      22      20
      21      21      22      20      21      21      22      20      21      21
      22      20      21      21      22      20      21      21      22      20
      21      21      22      20      21      21      22      20      21      21
      22      20      21      21      22      20      21      21      22      20
      21      21      22      20      21      21      22      20      21      21
      22      20      21      21      22      20      21      21      22      20
      21      21      22      20      21      21      22      20      21      21
      22      20      21      21      22      20      21      21      22      20
      21      21      22      20      21      21      22      20      21      21
      22      20      21      21      22      20      21      21      22      20
      21      21      22      20      21      21      22      20      21      21
      22      20      21      21      22      20      21      21      22      20
      21      21      22      20      21      21      22      20      21      21
      22      20      21      21      22      20      21      21      22      20
      21      21      22      20      21      21      22      20      21      21
      22      20      21      21      22      20      21      21      22      20
      21      21      22      20      21      21      22      20      21      21
      22      20      21      21      22      20      21      21      22      20
      21      21      22      20      21      21      22      20      21      21
      22      20      21      21      22      20      21      21      22      20
      21      21      22      20      21      21      22      20      21      21
      22      20      21      21      22      20      21      21      22      20
      21      21      22      20      21      21      22      20      21      21
      22      20      21      21      22      20      21      21      22      20
      21      21      22      20      21      21      22      20      21      21
      22      20      21      21      22      20      21      21      22      20
      21      21      22      20      21      21      22      20      21      21
      22      20      21      21      22      20      21      21      22      20
      21      21      22      20      21      21      22      20      21      21
      22      20      21      21      22      20      21      21      22      20
      21      21      22      20      21      21      22      20      21      21
      22      20      21      21      22      20      21      21      22      20
      21      21      22      20      21      21      22      20      21      21
      22      20      21      21      22      20      21      21      22      20
      21      21      22      20      21      21      22      20      21      21
      22      20      21      21      22      20      21      21      22      20
      21      21      22      20      21      21      22      20      21      21
      22      20      21      21      22      20      21      21      22      20
      21      21      22      20      21      21      22      20      21      21
      22      20      21      21      22      20      21      21      22      20
      21      21      22      20      21      21      22      20      21      21
      22      20      21      21      22      20      21      21      22      20
      21      21      22      20      21      21      22      20      21      21
      22      20      21      21      22      20      21      21      22      20
      21      21      22      20      21      21      22      20      21      21
      22      20      21      21      22      20      21      21      22      20
      21      21      22      20      21      21      22      20      21      21
      22      20      21      21      22      20      21      21      22      20
      21      21      22      20      21      21      22      20      21      21
      22      20      21      21      22      20      21      21      22      20
      21      21      22      20      21      21      22      20      21      21
      22      20      21      21      22      20      21      21      22      20
      21      21      22      20      21      21      22      20      21      21
      22      20      21      21      22      20      21      21      22      20
      21      21      22      20      21      21      22      20      21      21
      22      20      21      21      22      20      21      21      22      20
      21      21      22      20      21      21      22      20      21      21
      22      20      21      21      22      20      21      21      22      20
      21      21      22      20      21      21      22      20      21      21
      22      20      21      21      22      20      21      21      22      20
      21      21      22      20      21      21      22      20      21      21
      22      20      21      21      22      20      21      21      22      20
      21      21      22      20      21      21      22      20      21      21
      22      20      21      21      22      20      21      21      22      20
      21      21      22      20      21      21      22      20      21      21
      22      20      21      21      22      20      21      21      22      20
      21      21      22      20      21      21      22      20      21      21
      22      20      21      21      22      20      21      21      22      20
      21      21      22      20      21      21      22      20      21      21
      22      20      21      21      22      20      21      21      22      20
      21      21      22      20      21      21      22      20      21      21
      22      20      21      21      22      20      21      21      22      20
      21      21      22      20      21      21      22      20      21      21
      22      20      21      21      22      20      21      21      22      20
      21      21      22      20      21      21      22      20      21      21
      22      20      21      21      22      20      21      21      22      20
      21      21      22      20      21      21      22      20      21      21
      22      20      21      21      22      20      21      21      22      20
      21      21      22      20      21      21      22      20      21      21
      22      20      21      21      22      20      21      21      22      20
      21      21      22      20      21      21      22      20      21      21
      22      20      21      21      22      20      21      21      22      20
      21      21      22      20      21      21      22      20      21      21
      22      20      21      21      22      20      21      21      22      20
      21      21      22      20      21      21      22      20      21      21
      22      20      21      21      22      20      21      21      22      20
      21      21      22      20      21      21      22      20      21      21
      22      20      21      21      22      20      21      21      22      20
      21      21      22      20      21      21      22      20      21      21
      22      20      21      21      22      20      21      21      22      20
      21      21      22      20      21      21      22      20      21      21
      22      20      21      21      22      20      21      21      22      20
      21      21      22      20      21      21      22      20      21      21
      22      20      21      21      22      20      21      21      22      20
      21      21      22      20      21      21      22      20      21      21
      22      20      21      21      22      20      21      21      22      20
      21      21      22      20      21      21      22      20      21      21
      22      20      21      21      22      20      21      21      22      20
      21      21      22      20      21      21      22      20      21      21
      22      20      21      21      22      20      21      21      22      20
      21      21      22      20      21      21      22      20      21      21
      22      20      21      21      22      20      21      21      22      20
      21      21      22      20      21      21      22      20      21      21
      22      20      21      21      22      20      21      21      22      20
      21      21      22      20      21      21      22      20      21      21
      22      20      21      21      22      20      21      21      22      20
      21      21      22      20      21      21      22      20      21      21
      22      20      21      21      22      20      21      21      22      20
      21      21      22      20      21      21      22      20      21      21
      22      20      21      21      22      20      21      21      22      20
      21      21      22      20      21      21      22      20      21      21
      22      20      21      21      22      20      21      21      22      20
      21      21      22      20      21      21      22      20      21      21
      22      20      21      21      22      20      21      21      22      20
      21      21      22      20      21      21      22      20      21      21
      22      20      21      21      22      20      21      21      22      20
      21      21      22      20      21      21      22      20      21      21
      22      20      21      21      22      20      21      21      22      20
      21      21      22      20      21      21      22      20      21      21
      22      20      21      21      22      20      21      21      22      20
      21      21      22      20      21      21      22      20      21      21
      22      20      21      21      22      20      21      21      22      20
      21      21      22      20      21      21      22      20      21      21
      22      20      21      21      22      20      21      21      22      20
      21      21      22      20      21      21      22      20      21      21
      22      20      21      21      22      20      21      21      22      20
      21      21      22      20      21      21      22      20      21      21
      22      20      21      21      22      20      21      21      22      20
      21      21      22      20      21      21      22      20      21      21
      22      20      21      21      22      20      21      21      22      20
      21      21      22      20      21      21      22      20      21      21
      22      20      21      21      22      20      21      21      22      20
      21      21      22      20      21      21      22      20      21      21
      22      20      21      21      22      20      21      21      22      20
      21      21      22      20      21      21      22      20      21      21
      22      20      21      21      22      20      21      21      22      20
      21      21      22      20      21      21      22      20      21      21
      22      20      21      21      22      20      21      21      22      20
      21      21      22      20      21      21      22      20      21      21
      22      20      21      21      22      20      21      21      22      20
      21      21      22      20      21      21      22      20      21      21
      22      20      21      21      22      20      21      21      22      20
      21      21      22      20      21      21      22      20      21      21
      22      20      21      21      22      20      21      21      22      20
      21      21      22      20      21      21      22      20      21      21
      22      20      21      21      22      20      21      21      22      20
      21      21      22      20      21      21      22      20      21      21
      22      20      21      21      22      20      21      21      22      20
      21      21      22      20      21      21      22      20      21      21
      22      20      21      21      22      20      21      21      22      20
      21      21      22      20      21      21      22      20      21      21
      22      20      21      21      22      20      21      21      22      20
      21      21      22      20      21      21      22      20      21      21
      22      20      21      21      22      20      21      21      22      20
      21      21      22      20      21      21      22      20      21      21
      22      20      21      21      22      20      21      21      22      20
      21      21      22      20      21      21      22      20      21      21
      22      20      21      21      22      20      21      21      22      20
      21      21      22      20      21      21      22      20      21      21
      22      20      21      21      22      20      21      21      22      20
      21      21      22      20      21      21      22      20      21      21
      22      20      21      21      22      20      21      21      22      20
      21      21      22      20      21      21      22      20      21      21
      22      20      21      21      22      20      21      21      22      20
      21      21      22      20      21      21      22      20      21      21
      22      20      21      21      22      20      21      21      22      20
      21      21      22      20      21      21      22      20      21      21
      22      20      21      21      22      20      21      21      22      20
      21      21      22      20      21      21      22      20      21      21
      22      20      21      21      22      20      21      21      22      20
      21      21      22      20      21      21      22      20      21      21
      22      20      21      21      22      20      21      21      22      20
      21      21      22      20      21      21      22      20      21      21
      22      20      21      21      22      20      21      21      22      20
      21      21      22      20      21      21      22      20      21      21
      22      20      21      21      22      20      21      21      22      20
      21      21      22      20      21      21      22      20      21      21
      22      20      21      21      22      20      21      21      22      20
      21      21      22      20      21      21      22      20      21      21
      22      20      21      21      22      20      21      21      22      20
      21      21      22      20      21      21      22      20      21      21
      22      20      21      21      22      20      21      21      22      20
      21      21      22      20      21      21      22      20      21      21
      22      20      21      21      22      20      21      21      22      20
      21      21      22      20      21      21      22      20      21      21
      22      20      21      21      22      20      21      21      22      20
      21      21      22      20      21      21      22      20      21      21
      22      20      21      21      22      20      21      21      22      20
      21      21      22      20      21      21      22      20      21      21
      22      20      21      21      22      20      21      21      22      20
      21      21      22      20      21      21      22      20      21      21
      22      20      21      21      22      20      21      21      22      20
      21      21      22      20      21      21      22      20      21      21
      22      20      21      21      22      20      21      21      22      20
      21      21      22      20      21      21      22      20      21      21
      22      20      21      21      22      20      21      21      22      20
      21      21      22      20      21      21      22      20      21      21
      22      20      21      21      22      20      21      21      22      20
      21      21      22      20      21      21      22      20      21      21
      22      20      21      21      22      20      21      21      22      20
      21      21      22      20      21      21      22      20      21      21
      22      20      21      21      22      20      21      21      22      20
      21      21      22      20      21      21      22      20      21      21
      22      20      21      21      22      20      21      21      22      20
      21      21      22      20      21      21      22      20      21      21
      22      20      21      21      22      20      21      21      22      20
      21      21      22      20      21      21      22      20      21      21
      22      20      21      21      22      20      21      21      22      20
      21      21      22      20      21      21      22      20      21      21
      22      20      21      21      22      20      21      21      22      20
      21      21      22      20      21      21      22      20      21      21
      22      20      21      21      22      20      21      21      22      20
      21      21      22      20      21      21      22      20      21      21
      22      20      21      21      22      20      21      21      22      20
      21      21      22      20      21      21      22      20      21      21
      22      20      21      21      22      20      21      21      22      20
      21      21      22      20      21      21      22      20      21      21
      22      20      21      21      22      20      21      21      22      20
      21      21      22      20      21      21      22      20      21      21
      22      20      21      21      22      20      21      21      22      20
      21      21      22      20      21      21      22      20      21      21
      22      20      21      21      22      20      21      21      22      20
      21      21      22      20      21      21      22      20      21      21
      22      20      21      21      22      20      21      21      22      20
      21      21      22      20      21      21      22      20      21      21
      22      20      21      21      22      20      21      21      22      20
      21      21      22      20      21      21      22      20      21      21
      22      20      21      21      22      20      21      21      22      20
      21      21      22      20      21      21      22      20      21      21
      22      20      21      21      22      20      21      21      22      20
      21      21      22      20      21      21      22      20      21      21
      22      20      21      21      22      20      21      21      22      20
      21      21      22      20      21      21      22      20      21      21
      22      20      21      21      22      20      21      21      22      20
      21      21      22      20      21      21      22      20      21      21
      22      20      21      21      22      20      21      21      22      20
      21      21      22      20      21      21      22      20      21      21
      22      20      21      21      22      20      21      21      22      20
      21      21      22      20      21      21      22      20      21      21
      22      20      21      21      22      20      21      21      22      20
      21      21      22      20      21      21      22      20      21      21
      22      20      21      21      22      20      21      21      22      20
      21      21      22      20      21      21      22      20      21      21
      22      20      21      21      22      20      21      21      22      20
      21      21      22      20      21      21      22      20      21      21
      22      20      21      21      22      20      21      21      22      20
      21      21      22      20      21      21      22      20      21      21
      22      20      21      21      22      20      21      21      22      20
      21      21      22      20      21      21      22      20      21      21
      22      20      21      21      22      20      21      21      22      20
      21      21      22      20      21      21      22      20      21      21
      22      20      21      21      22      20      21      21      22      20
      21      21      22      20      21      21      22      20      21      21
      22      20      21      21      22      20      21      21      22      20
      21      21      22      20      21      21      22      20      21      21
      22      20      21      21      22      20      21      21      22      20
      21      21      22      20      21      21      22      20      21      21
      22      20      21      21      22      20      21      21      22      20
      21      21      22      20      21      21      22      20      21      21
      22      20      21      21      22      20      21      21      22      20
      21      21      22      20      21      21      22      20      21      21
      22      20      21      21      22      20      21      21      22      20
      21      21      22      20      21      21      22      20      21      21
      22      20      21      21      22      20      21      21      22      20
      21      21      22      20      21      21      22      20      21      21
      22      20      21      21      22      20      21      21      22      20
      21      21      22      20      21      21      22      20      21      21
      22      20      21      21      22      20      21      21      22      20
      21      21      22      20      21      21      22      20      21      21
      22      20      21      21      22      20      21      21      22      20
      21      21      22      20      21      21      22      20      21      21
      22      20      21      21      22      20      21      21      22      20
      21      21      22      20      21      21      22      20      21      21
      22      20      21      21      22      20      21      21      22      20
      21      21      22      20      21      21      22      20      21      21
      22      20      21      21      22      20      21      21      22      20
      21      21      22      20      21      21      22      20      21      21
      22      20      21      21      22      20      21      21      22      20
      21      21      22      20      21      21      22      20      21      21
      22      20      21      21      22      20      21      21      22      20
      21      21      22      20      21      21      22      20      21      21
      22      20      21      21      22      20      21      21      22      20
      21      21      22      20      21      21      22      20      21      21
      22      20      21      21      22      20      21      21      22      20
      21      21      22      20      21      21      22      20      21      21
      22      20      21      21      22      20      21      21      22      20
      21      21      22      20      21      21      22      20      21      21
      22      20      21      21      22      20      21      21      22      20
      21      21      22      20      21      21      22      20      21      21
      22      20      21      21      22      20      21      21      22      20
      21      21      22      20      21      21      22      20      21      21
      22      20      21      21      22      20      21      21      22      20
      21      21      22      20      21      21      22      20      21      21
      22      20      21      21      22      20      21      21      22      20
      21      21      22      20      21      21      22      20      21      21
      22      20      21      21      22      20      21      21      22      20
      21      21      22      20      21      21      22      20      21      21
      22      20      21      21      22      20      21      21      22      20
      21      21      22      20      21      21      22      20      21      21
      22      20      21      21      22      20      21      21      22      20
      21      21      22      20      21      21      22      20      21      21
      22      20      21      21      22      20      21      21      22      20
      21      21      22      20      21      21      22      20      21      21
      22      20      21      21      22      20      21      21      22      20
      21      21      22      20      21      21      22      20      21      21
      22      20      21      21      22      20      21      21      22      20
      21      21      22      20      21      21      22      20      21      21
      22      20      21      21      22      20      21      21      22      20
      21      21      22      20      21      21      22      20      21      21
      22      20      21      21      22      20      21      21      22      20
      21      21      22      20      21      21      22      20      21      21
      22      20      21      21      22      20      21      21      22      20
      21      21      22      20      21      21      22      20      21      21
      22      20      21      21      22      20      21      21      22      20
      21      21      22      20      21      21      22      20      21      21
      22      20      21      21      22      20      21      21      22      20
      21      21      22      20      21      21      22      20      21      21
      22      20      21      21      22      20      21      21      22      20
      21      21      22      20      21      21      22      20      21      21
      22      20      21      21      22      20      21      21      22      20
      21      21      22      20      21      21      22      20      21      21
      22      20      21      21      22      20      21      21      22      20
      21      21      22      20      21      21      22      20      21      21
      22      20      21      21      22      20      21      21      22      20
      21      21      22      20      21      21      22      20      21      21
      22      20      21      21      22      20      21      21      22      20
      21      21      22      20      21      21      22      20      21      21
      22      20      21      21      22      20      21      21      22      20
      21      21      22      20      21      21      22      20      21      21
      22      20      21      21      22      20      21      21      22      20
      21      21      22      20      21      21      22      20      21      21
      22      20      21      21      22      20      21      21      22      20
      21      21      22      20      21      21      22      20      21      21
      22      20      21      21      22      20      21      21      22      20
      21      21      22      20      21      21      22      20      21      21
      22      20      21      21      22      20      21      21      22      20
      21      21      22      20      21      21      22      20      21      21
      22      20      21      21      22      20      21      21      22      20
      21      21      22      20      21      21      22      20      21      21
      22      20      21      21      22      20      21      21      22      20
      21      21      22      20      21      21      22      20      21      21
      22      20      21      21      22      20      21      21      22      20
      21      21      22      20      21      21      22      20      21      21
      22      20      21      21      22      20      21      21      22      20
      21      21      22      20      21      21      22      20      21      21
      22      20      21      21      22      20      21      21      22      20
      21      21      22      20      21      21      22      20      21      21
      22      20      21      21      22      20      21      21      22      20
      21      21      22      20      21      21      22      20      21      21
      22      20      21      21      22      20      21      21      22      20
      21      21      22      20      21      21      22      20      21      21
      22      20      21      21      22      20      21      21      22      20
      21      21      22      20      21      21      22      20      21      21
      22      20      21      21      22      20      21      21      22      20
      21      21      22      20      21      21      22      20      21      21
      22      20      21      21      22      20      21      21      22      20
      21      21      22      20      21      21      22      20      21      21
      22      20      21      21      22      20      21      21      22      20
      21      21      22      20      21      21      22      20      21      21
      22      20      21      21      22      20      21      21      22      20
      21      21      22      20      21      21      22      20      21      21
      22      20      21      21      22      20      21      21      22      20
      21      21      22      20      21      21      22      20      21      21
      22      20      21      21      22      20      21      21      22      20
      21      21      22      20      21      21      22      20      21      21
      22      20      21      21      22      20      21      21      22      20
      21      21      22      20      21      21      22      20      21      21
      22      20      21      21      22      20      21      21      22      20
      21      21      22      20      21      21      22      20      21      21
      22      20      21      21      22      20      21      21      22      20
      21      21      22      20      21      21      22      20      21      21
      22      20      21      21      22      20      21      21      22      20
      21      21      22      20      21      21      22      20      21      21
      22      20      21      21      22      20      21      21      22      20
      21      21      22      20      21      21      22      20      21      21
      22      20      21      21      22      20      21      21      22      20
      21      21      22      20      21      21      22      20      21      21
      22      20      21      21      22      20      21      21      22      20
      21      21      22      20      21      21      22      20      21      21
      22      20      21      21      22      20      21      21      22      20
      21      21      22      20      21      21      22      20      21      21
      22      20      21      21      22      20      21      21      22      20
      21      21      22      20      21      21      22      20      21      21
      22      20      21      21      22      20      21      21      22      20
      21      21      22      20      21      21      22      20      21      21
      22      20      21      21      22      20      21      21      22      20
      21      21      22      20      21      21      22      20      21      21
      22      20      21      21      22      20      21      21      22      20
      21      21      22      20      21      21      22      20      21      21
      22      20      21      21      22      20      21      21      22      20
      21      21      22      20      21      21      22      20      21      21
      22      20      21      21      22      20      21      21      22      20
      21      21      22      20      21      21      22      20      21      21
      22      20      21      21      22      20      21      21      22      20
      21      21      22      20      21      21      22      20      21      21
      22      20      21      21      22      20      21      21      22      20
      21      21      22      20      21      21      22      20      21      21
      22      20      21      21      22      20      21      21      22      20
      21      21      22      20      21      21      22      20      21      21
      22      20      21      21      22      20      21      21      22      20
      21      21      22      20      21      21      22      20      21      21
      22      20      21      21      22      20      21      21      22      20
      21      21      22      20      21      21      22      20      21      21
      22      20      21      21      22      20      21      21      22      20
      21      21      22      20      21      21      22      20      21      21
      22      20      21      21      22      20      21      21      22      20
      21      21      22      20      21      21      22      20      21      21
      22      20      21      21      22      20      21      21      22      20
      21      21      22      20      21      21      22      20      21      21
      22      20      21      21      22      20      21      21      22      20
      21      21      22      20      21      21      22      20      21      21
      22      20      21      21      22      20      21      21      22      20
      21      21      22      20      21      21      22      20      21      21
      22      20      21      21      22      20      21      21      22      20
      21      21      22      20      21      21      22      20      21      21
      22      20      21      21      22      20      21      21      22      20
      21      21      22      20      21      21      22      20      21      21
      22      20      21      21      22      20      21      21      22      20
      21      21      22      20      21      21      22      20      21      21
      22      20      21      21      22      20      21      21      22      20
      21      21      22      20      21      21      22      20      21      21
      22      20      21      21      22      20      21      21      22      20
      21      21      22      20      21      21      22      20      21      21
      22      20      21      21      22      20      21      21      22      20
      21      21      22      20      21      21      22      20      21      21
      22      20      21      21      22      20      21      21      22      20
      21      21      22      20      21      21      22      20      21      21
      22      20      21      21      22      20      21      21      22      20
      21      21      22      20      21      21      22      20      21      21
      22      20      21      21      22      20      21      21      22      20
      21      21      22      20      21      21      22      20      21      21
      22      20      21      21      22      20      21      21      22      20
      21      21      22      20      21      21      22      20      21      21
      22      20      21      21      22      20      21      21      22      20
      21      21      22      20      21      21      22      20      21      21
      22      20      21      21      22      20      21      21      22      20
      21      21      22      20      21      21      22      20      21      21
      22      20      21      21      22      20      21      21      22      20
      21      21      22      20      21      21      22      20      21      21
      22      20      21      21      22      20      21      21      22      20
      21      21      22      20      21      21      22      20      21      21
      22      20      21      21      22      20      21      21      22      20
      21      21      22      20      21      21      22      20      21      21
      22      20      21      21      22      20      21      21      22      20
      21      21      22      20      21      21      22      20      21      21
      22      20      21      21      22      20      21      21      22      20
      21      21      22      20      21      21      22      20      21      21
      22      20      21      21      22      20      21      21      22      20
      21      21      22      20      21      21      22      20      21      21
      22      20      21      21      22      20      21      21      22      20
      21      21      22      20      21      21      22      20      21      21
      22      20      21      21      22      20      21      21      22      20
      21      21      22      20      21      21      22      20      21      21
      22      20      21      21      22      20      21      21      22      20
      21      21      22      20      21      21      22      20      21      21
      22      20      21      21      22      20      21      21      22      20
      21      21      22      20      21      21      22      20      21      21
      22      20      21      21      22      20      21      21      22      20
      21      21      22      20      21      21      22      20      21      21
      22      20      21      21      22      20      21      21      22      20
      21      21      22      20      21      21      22      20      21      21
      22      20      21      21      22      20      21      21      22      20
      21      21      22      20      21      21      22      20      21      21
      22      20      21      21      22      20      21      21      22      20
      21      21      22      20      21      21      22      20      21      21
      22      20      21      21      22      20      21      21      22      20
      21      21      22      20      21      21      22      20      21      21
      22      20      21      21      22      20      21      21      22      20
      21      21      22      20      21      21      22      20      21      21
      22      20      21      21      22      20      21      21      22      20
      21      21      22      20      21      21      22      20      21      21
      22      20      21      21      22      20      21      21      22      20
      21      21      22      20      21      21      22      20      21      21
      22      20      21      21      22      20      21      21      22      20
      21      21      22      20      21      21      22      20      21      21
      22      20      21      21      22      20      21      21      22      20
      21      21      22      20      21      21      22      20      21      21
      22      20      21      21      22      20      21      21      22      20
      21      21      22      20      21      21      22      20      21      21
      22      20      21      21      22      20      21      21      22      20
      21      21      22      20      21      21      22      20      21      21
      22      20      21      21      22      20      21      21      22      20
      21      21      22      20      21      21      22      20      21      21
      22      20      21      21      22      20      21      21      22      20
      21      21      22      20      21      21      22      20      21      21
      22      20      21      21      22      20      21      21      22      20
      21      21      22      20      21      21      22      20      21      21
      22      20      21      21      22      20      21      21      22      20
      21      21      22      20      21      21      22      20      21      21
      22      20      21      21      22      20      21      21      22      20
      21      21      22      20      21      21      22      20      21      21
      22      20      21      21      22      20      21      21      22      20
      21      21      22      20      21      21      22      20      21      21
      22      20      21      21      22      20      21      21      22      20
      21      21      22      20      21      21      22      20      21      21
      22      20      21      21      22      20      21      21      22      20
      21      21      22      20      21      21      22      20      21      21
      22      20      21      21      22      20      21      21      22      20
      21      21      22      20      21      21      22      20      21      21
      22      20      21      21      22      20      21      21      22      20
      21      21      22      20      21      21      22      20      21      21
      22      20      21      21      22      20      21      21      22      20
      21      21      22      20      21      21      22      20      21      21
      22      20      21      21      22      20      21      21      22      20
      21      21      22      20      21      21      22      20      21      21
      22      20      21      21      22      20      21      21      22      20
      21      21      22      20      21      21      22      20      21      21
      22      20      21      21      22      20      21      21      22      20
      21      21      22      20      21      21      22      20      21      21
      22      20      21      21      22      20      21      21      22      20
      21      21      22      20      21      21      22      20      21      21
      22      20      21      21      22      20      21      21      22      20
      21      21      22      20      21      21      22      20      21      21
      22      20      21      21      22      20      21      21      22      20
      21      21      22      20      21      21      22      20      21      21
      22      20      21      21      22      20      21      21      22      20
      21      21      22      20      21      21      22      20      21      21
      22      20      21      21      22      20      21      21      22      20
      21      21      22      20      21      21      22      20      21      21
      22      20      21      21      22      20      21      21      22      20
      21      21      22      20      21      21      22      20      21      21
      22      20      21      21      22      20      21      21      22      20
      21      21      22      20      21      21      22      20      21      21
      22      20      21      21      22      20      21      21      22      20
      21      21      22      20      21      21      22      20      21      21
      22      20      21      21      22      20      21      21      22      20
      21      21      22      20      21      21      22      20      21      21
      22      20      21      21      22      20      21      21      22      20
      21      21      22      20      21      21      22      20      21      21
      22      20      21      21      22      20      21      21      22      20
      21      21      22      20      21      21      22      20      21      21
      22      20      21      21      22      20      21      21      22      20
      21      21      22      20      21      21      22      20      21      21
      22      20      21      21      22      20      21      21      22      20
      21      21      22      20      21      21      22      20      21      21
      22      20      21      21      22      20      21      21      22      20
      21      21      22      20      21      21      22      20      21      21
      22      20      21      21      22      20      21      21      22      20
      21      21      22      20      21      21      22      20      21      21
      22      20      21      21      22      20      21      21      22      20
      21      21      22      20      21      21      22      20      21      21
      22      20      21      21      22      20      21      21      22      20
      21      21      22      20      21      21      22      20      21      21
      22      20      21      21      22      20      21      21      22      20
      21      21      22      20      21      21      22      20      21      21
      22      20      21      21      22      20      21      21      22      20
      21      21      22      20      21      21      22      20      21      21
      22      20      21      21      22      20      21      21      22      20
      21      21      22      20      21      21      22      20      21      21
      22      20      21      21      22      20      21      21      22      20
      21      21      22      20      21      21      22      20      21      21
      22      20      21      21      22      20      21      21      22      20
      21      21      22      20      21      21      22      20      21      21
      22      20      21      21      22      20      21      21      22      20
      21      21      22      20      21      21      22      20      21      21
      22      20      21      21      22      20      21      21      22      20
      21      21      22      20      21      21      22      20      21      21
      22      20      21      21      22      20      21      21      22      20
      21      21      22      20      21      21      22      20      21      21
      22      20      21      21      22      20      21      21      22      20
      21      21      22      20      21      21      22      20      21      21
      22      20      21      21      22      20      21      21      22      20
      21      21      22      20      21      21      22      20      21      21
      22      20      21      21      22      20      21      21      22      20
      21      21      22      20      21      21      22      20      21      21
      22      20      21      21      22      20      21      21      22      20
      21      21      22      20      21      21      22      20      21      21
      22      20      21      21      22      20      21      21      22      20
      21      21      22      20      21      21      22      20      21      21
      22      20      21      21      22      20      21      21      22      20
      21      21      22      20      21      21      22      20      21      21
      22      20      21      21      22      20      21      21      22      20
      21      21      22      20      21      21      22      20      21      21
      22      20      21      21      22      20      21      21      22      20
      21      21      22      20      21      21      22      20      21      21
      22      20      21      21      22      20      21      21      22      20
      21      21      22      20      21      21      22      20      21      21
      22      20      21      21      22      20      21      21      22      20
      21      21      22      20      21      21      22      20      21      21
      22      20      21      21      22      20      21      21      22      20
      21      21      22      20      21      21      22      20      21      21
      22      20      21      21      22      20      21      21      22      20
      21      21      22      20      21      21      22      20      21      21
      22      20      21      21      22      20      21      21      22      20
      21      21      22      20      21      21      22      20      21      21
      22      20      21      21      22      20      21      21      22      20
      21      21      22      20      21      21      22      20      21      21
      22      20      21      21      22      20      21      21      22      20
      21      21      22      20      21      21      22      20      21      21
      22      20      21      21      22      20      21      21      22      20
      21      21      22      20      21      21      22      20      21      21
      22      20      21      21      22      20      21      21      22      20
      21      21      22      20      21      21      22      20      21      21
      22      20      21      21      22      20      21      21      22      20
      21      21      22      20      21      21      22      20      21      21
      22      20      21      21      22      20      21      21      22      20
      21      21      22      20      21      21      22      20      21      21
      22      20      21      21      22      20      21      21      22      20
      21      21      22      20      21      21      22      20      21      21
      22      20      21      21      22      20      21      21      22      20
      21      21      22      20      21      21      22      20      21      21
      22      20      21      21      22      20      21      21      22      20
      21      21      22      20      21      21      22      20      21      21
      22      20      21      21      22      20      21      21      22      20
      21      21      22      20      21      21      22      20      21      21
      22      20      21      21      22      20      21      21      22      20
      21      21      22      20      21      21      22      20      21      21
      22      20      21      21      22      20      21      21      22      20
      21      21      22      20      21      21      22      20      21      21
      22      20      21      21      22      20      21      21      22      20
      21      21      22      20      21      21      22      20      21      21
      22      20      21      21      22      20      21      21      22      20
      21      21      22      20      21      21      22      20      21      21
      22      20      21      21      22      20      21      21      22      20
      21      21      22      20      21      21      22      20      21      21
      22      20      21      21      22      20      21      21      22      20
      21      21      22      20      21      21      22      20      21      21
      22      20      21      21      22      20      21      21      22      20
      21      21      22      20      21      21      22      20      21      21
      22      20      21      21      22      20      21      21      22      20
      21      21      22      20      21      21      22      20      21      21
      22      20      21      21      22      20      21      21      22      20
      21      21      22      20      21      21      22      20      21      21
      22      20      21      21      22      20      21      21      22      20
      21      21      22      20      21      21      22      20      21      21
      22      20      21      21      22      20      21      21      22      20
      21      21      22      20      21      21      22      20      21      21
      22      20      21      21      22      20      21      21      22      20
      21      21      22      20      21      21      22      20      21      21
      22      20      21      21      22      20      21      21      22      20
      21      21      22      20      21      21      22      20      21      21
      22      20      21      21      22      20      21      21      22      20
      21      21      22      20      21      21      22      20      21      21
      22      20      21      21      22      20      21      21      22      20
      21      21      22      20      21      21      22      20      21      21
      22      20      21      21      22      20      21      21      22      20
      21      21      22      20      21      21      22      20      21      21
      22      20      21      21      22      20      21      21      22      20
      21      21      22      20      21      21      22      20      21      21
      22      20      21      21      22      20      21      21      22      20
      21      21      22      20      21      21      22      20      21      21
      22      20      21      21      22      20      21      21      22      20
      21      21      22      20      21      21      22      20      21      21
      22      20      21      21      22      20      21      21      22      20
      21      21      22      20      21      21      22      20      21      21
      22      20      21      21      22      20      21      21      22      20
      21      21      22      20      21      21      22      20      21      21
      22      20      21      21      22      20      21      21      22      20
      21      21      22      20      21      21      22      20      21      21
      22      20      21      21      22      20      21      21      22      20
      21      21      22      20      21      21      22      20      21      21
      22      20      21      21      22      20      21      21      22      20
      21      21      22      20      21      21      22      20      21      21
      22      20      21      21      22      20      21      21      22      20
      21      21      22      20      21      21      22      20      21      21
      22      20      21      21      22      20      21      21      22      20
      21      21      22      20      21      21      22      20      21      21
      22      20      21      21      22      20      21      21      22      20
      21      21      22      20      21      21      22      20      21      21
      22      20      21      21      22      20      21      21      22      20
      21      21      22      20      21      21      22      20      21      21
      22      20      21      21      22      20      21      21      22      20
      21      21      22      20      21      21      22      20      21      21
      22      20      21      21      22      20      21      21      22      20
      21      21      22      20      21      21      22      20      21      21
      22      20      21      21      22      20      21      21      22      20
      21      21      22      20      21      21      22      20      21      21
      22      20      21      21      22      20      21      21      22      20
      21      21      22      20      21      21      22      20      21      21
      22      20      21      21      22      20      21      21      22      20
      21      21      22      20      21      21      22      20      21      21
      22      20      21      21      22      20      21      21      22      20
      21      21      22      20      21      21      22      20      21      21
      22      20      21      21      22      20      21      21      22      20
      21      21      22      20      21      21      22      20      21      21
      22      20      21      21      22      20      21      21      22      20
      21      21      22      20      21      21      22      20      21      21
      22      20      21      21      22      20      21      21      22      20
      21      21      22      20      21      21      22      20      21      21
      22      20      21      21      22      20      21      21      22      20
      21      21      22      20      21      21      22      20      21      21
      22      20      21      21      22      20      21      21      22      20
      21      21      22      20      21      21      22      20      21      21
      22      20      21      21      22      20      21      21      22      20
      21      21      22      20      21      21      22      20      21      21
      22      20      21      21      22      20      21      21      22      20
      21      21      22      20      21      21      22      20      21      21
      22      20      21      21      22      20      21      21      22      20
      21      21      22      20      21      21      22      20      21      21
      22      20      21      21      22      20      21      21      22      20
      21      21      22      20      21      21      22      20      21      21
      22      20      21      21      22      20      21      21      22      20
      21      21      22      20      21      21      22      20      21      21
      22      20      21      21      22      20      21      21      22      20
      21      21      22      20      21      21      22      20      21      21
      22      20      21      21      22      20      21      21      22      20
      21      21      22      20      21      21      22      20      21      21
      22      20      21      21      22      20      21      21      22      20
      21      21      22      20      21      21      22      20      21      21
      22      20      21      21      22      20      21      21      22      20
      21      21      22      20      21      21      22      20      21      21
      22      20      21      21      22      20      21      21      22      20
      21      21      22      20      21      21      22      20      21      21
      22      20      21      21      22      20      21      21      22      20
      21      21      22      20      21      21      22      20      21      21
      22      20      21      21      22      20      21      21      22      20
      21      21      22      20      21      21      22      20      21      21
      22      20      21      21      22      20      21      21      22      20
      21      21      22      20      21      21      22      20      21      21
      22      20      21      21      22      20      21      21      22      20
      21      21      22      20      21      21      22      20      21      21
      22      20      21      21      22      20      21      21      22      20
      21      21      22      20      21      21      22      20      21      21
      22      20      21      21      22      20      21      21      22      20
      21      21      22      20      21      21      22      20      21      21
      22      20      21      21      22      20      21      21      22      20
      21      21      22      20      21      21      22      20      21      21
      22      20      21      21      22      20      21      21      22      20
      21      21      22      20      21      21      22      20      21      21
      22      20      21      21      22      20      21      21      22      20
      21      21      22      20      21      21      22      20      21      21
      22      20      21      21      22      20      21      21      22      20
      21      21      22      20      21      21      22      20      21      21
      22      20      21      21      22      20      21      21      22      20
      21      21      22      20      21      21      22      20      21      21
      22      20      21      21      22      20      21      21      22      20
      21      21      22      20      21      21      22      20      21      21
      22      20      21      21      22      20      21      21      22      20
      21      21      22      20      21      21      22      20      21      21
      22      20      21      21      22      20      21      21      22      20
      21      21      22      20      21      21      22      20      21      21
      22      20      21      21      22      20      21      21      22      20
      21      21      22      20      21      21      22      20      21      21
      22      20      21      21      22      20      21      21      22      20
      21      21      22      20      21      21      22      20      21      21
      22      20      21      21      22      20      21      21      22      20
      21      21      22      20      21      21      22      20      21      21
      22      20      21      21      22      20      21      21      22      20
      21      21      22      20      21      21      22      20      21      21
      22      20      21      21      22      20      21      21      22      20
      21      21      22      20      21      21      22      20      21      21
      22      20      21      21      22      20      21      21      22      20
      21      21      22      20      21      21      22      20      21      21
      22      20      21      21      22      20      21      21      22      20
      21      21      22      20      21      21      22      20      21      21
      22      20      21      21      22      20      21      21      22      20
      21      21      22      20      21      21      22      20      21      21
      22      20      21      21      22      20      21      21      22      20
      21      21      22      20      21      21      22      20      21      21
      22      20      21      21      22      20      21      21      22      20
      21      21      22      20      21      21      22      20      21      21
      22      20      21      21      22      20      21      21      22      20
      21      21      22      20      21      21      22      20      21      21
      22      20      21      21      22      20      21      21      22      20
      21      21      22      20      21      21      22      20      21      21
      22      20      21      21      22      20      21      21      22      20
      21      21      22      20      21      21      22      20      21      21
      22      20      21      21      22      20      21      21      22      20
      21      21      22      20      21      21      22      20      21      21
      22      20      21      21      22      20      21      21      22      20
      21      21      22      20      21      21      22      20      21      21
      22      20      21      21      22      20      21      21      22      20
      21      21      22      20      21      21      22      20      21      21
      22      20      21      21      22      20      21      21      22      20
      21      21      22      20      21      21      22      20      21      21
      22      20      21      21      22      20      21      21      22      20
      21      21      22      20      21      21      22      20      21      21
      22      20      21      21      22      20      21      21      22      20
      21      21      22      20      21      21      22      20      21      21
      22      20      21      21      22      20      21      21      22      20
      21      21      22      20      21      21      22      20      21      21
      22      20      21      21      22      20      21      21      22      20
      21      21      22      20      21      21      22      20      21      21
      22      20      21      21      22      20      21      21      22      20
      21      21      22      20      21      21      22      20      21      21
      22      20      21      21      22      20      21      21      22      20
      21      21      22      20      21      21      22      20      21      21
      22      20      21      21      22      20      21      21      22      20
      21      21      22      20      21      21      22      20      21      21
      22      20      21      21      22      20      21      21      22      20
      21      21      22      20      21      21      22      20      21      21
      22      20      21      21      22      20      21      21      22      20
      21      21      22      20      21      21      22      20      21      21
      22      20      21      21      22      20      21      21      22      20
      21      21      22      20      21      21      22      20      21      21
      22      20      21      21      22      20      21      21      22      20
      21      21      22      20      21      21      22      20      21      21
      22      20      21      21      22      20      21      21      22      20
      21      21      22      20      21      21      22      20      21      21
      22      20      21      21      22      20      21      21      22      20
      21      21      22      20      21      21      22      20      21      21
      22      20      21      21      22      20      21      21      22      20
      21      21      22      20      21      21      22      20      21      21
      22      20      21      21      22      20      21      21      22      20
      21      21      22      20      21      21      22      20      21      21
      22      20      21      21      22      20      21      21      22      20
      21      21      22      20      21      21      22      20      21      21
      22      20      21      21      22      20      21      21      22      20
      21      21      22      20      21      21      22      20      21      21
      22      20      21      21      22      20      21      21      22      20
      21      21      22      20      21      21      22      20      21      21
      22      20      21      21      22      20      21      21      22      20
      21      21      22      20      21      21      22      20      21      21
      22      20      21      21      22      20      21      21      22      20
      21      21      22      20      21      21      22      20      21      21
      22      20      21      21      22      20      21      21      22      20
      21      21      22      20      21      21      22      20      21      21
      22      20      21      21      22      20      21      21      22      20
      21      21      22      20      21      21      22      20      21      21
      22      20      21      21      22      20      21      21      22      20
      21      21      22      20      21      21      22      20      21      21
      22      20      21      21      22      20      21      21      22      20
      21      21      22      20      21      21      22      20      21      21
      22      20      21      21      22      20      21      21      22      20
      21      21      22      20      21      21      22      20      21      21
      22      20      21      21      22      20      21      21      22      20
      21      21      22      20      21      21      22      20      21      21
      22      20      21      21      22      20      21      21      22      20
      21      21      22      20      21      21      22      20      21      21
      22      20      21      21      22      20      21      21      22      20
      21      21      22      20      21      21      22      20      21      21
      22      20      21      21      22      20      21      21      22      20
      21      21      22      20      21      21      22      20      21      21
      22      20      21      21      22      20      21      21      22      20
      21      21      22      20      21      21      22      20      21      21
      22      20      21      21      22      20      21      21      22      20
      21      21      22      20      21      21      22      20      21      21
      22      20      21      21      22      20      21      21      22      20
      21      21      22      20      21      21      22      20      21      21
      22      20      21      21      22      20      21      21      22      20
      21      21      22      20      21      21      22      20      21      21
      22      20      21      21      22      20      21      21      22      20
      21      21      22      20      21      21      22      20      21      21
      22      20      21      21      22      20      21      21      22      20
      21      21      22      20      21      21      22      20      21      21
      22      20      21      21      22      20      21      21      22      20
      21      21      22      20      21      21      22      20      21      21
      22      20      21      21      22      20      21      21      22      20
      21      21      22      20      21      21      22      20      21      21
      22      20      21      21      22      20      21      21      22      20
      21      21      22      20      21      21      22      20      21      21
      22      20      21      21      22      20      21      21      22      20
      21      21      22      20      21      21      22      20      21      21
      22      20      21      21      22      20      21      21      22      20
      21      21      22      20      21      21      22      20      21      21
      22      20      21      21      22      20      21      21      22      20
      21      21      22      20      21      21      22      20      21      21
      22      20      21      21      22      20      21      21      22      20
      21      21      22      20      21      21      22      20      21      21
      22      20      21      21      22      20      21      21      22      20
      21      21      22      20      21      21      22      20      21      21
      22      20      21      21      22      20      21      21      22      20
      21      21      22      20      21      21      22      20      21      21
      22      20      21      21      22      20      21      21      22      20
      21      21      22      20      21      21      22      20      21      21
      22      20      21      21      22      20      21      21      22      20
      21      21      22      20      21      21      22      20      21      21
      22      20      21      21      22      20      21      21      22      20
      21      21      22      20      21      21      22      20      21      21
      22      20      21      21      22      20      21      21      22      20
      21      21      22      20      21      21      22      20      21      21
      22      20      21      21      22      20      21      21      22      20
      21      21      22      20      21      21      22      20      21      21
      22      20      21      21      22      20      21      21      22      20
      21      21      22      20      21      21      22      20      21      21
      22      20      21      21      22      20      21      21      22      20
      21      21      22      20      21      21      22      20      21      21
      22      20      21      21      22      20      21      21      22      20
      21      21      22      20      21      21      22      20      21      21
      22      20      21      21      22      20      21      21      22      20
      21      21      22      20      21      21      22      20      21      21
      22      20      21      21      22      20      21      21      22      20
      21      21      22      20      21      21      22      20      21      21
      22      20      21      21      22      20      21      21      22      20
      21      21      22      20      21      21      22      20      21      21
      22      20      21      21      22      20      21      21      22      20
      21      21      22      20      21      21      22      20      21      21
      22      20      21      21      22      20      21      21      22      20
      21      21      22      20      21      21      22      20      21      21
      22      20      21      21      22      20      21      21      22      20
      21      21      22      20      21      21      22      20      21      21
      22      20      21      21      22      20      21      21      22      20
      21      21      22      20      21      21      22      20      21      21
      22      20      21      21      22      20      21      21      22      20
      21      21      22      20      21      21      22      20      21      21
      22      20      21      21      22      20      21      21      22      20
      21      21      22      20      21      21      22      20      21      21
      22      20      21      21      22      20      21      21      22      20
      21      21      22      20      21      21      22      20      21      21
      22      20      21      21      22      20      21      21      22      20
      21      21      22      20      21      21      22      20      21      21
      22      20      21      21      22      20      21      21      22      20
      21      21      22      20      21      21      22      20      21      21
      22      20      21      21      22      20      21      21      22      20
      21      21      22      20      21      21      22      20      21      21
      22      20      21      21      22      20      21      21      22      20
      21      21      22      20      21      21      22      20      21      21
      22
%FLAG NUMBER_EXCLUDED_ATOMS                                                     
%FORMAT(10I8)                                                                   
       6       7       4       3       7       3      10       4      12       7
      12       5       4      11       7       4       7       3       8       7
       4       6       3       4       3       2       1       1       7       3
      10       4      16       7      12       9       8       3       2       1
       4       2       1       1       7       3      10       4      14       7
      10       7       6       3       2       1       2       1       7       3
      10       4      12       7      12       5       4       8       6       4
       4       2       2       1       1       7       3      10       4      13
       7      12       6       5       9       5       4       7       4       3
       8       3       6       5       2       1       2       1       1       7
       3      18       7      16      10      15      11      11      11      11
      11       7       2       1       1       3       2       3       2       2
       1       1       3       5       4       1      10       4      10       7
       6       3       2       1       7       3       7       4       7       4
       3       7       3      10       4      13       7      15       6       5
      10       8       7       3       2       1       3       2       1       1
       7       3      18       7      15      10      11       5       7       2
       1       1       3       2       1       1       1      10       4      11
       7       7       4       3       2       1       7       3      10       4
      13       7      12       6       5       9       5       4       7       4
       3       8       3       6       5       2       1       2       1       1
       7       3      10       4      11       7       7       4       3       2
       1       7       3       7       4       7       4       3       7       3
       7       4       7       4       3       7       3      10       4      16
       7      12       9       8       3       2       1       4       2       1
       1       7       3      10       4      16       7      12       9       8
       3       2       1       4       2       1       1       7       3      10
       4      13       7      12       6       5      10       5       4       9
       5       4       6       5       4       3       2       1       1       7
       3      10       4      12       7      10       5       4       5       3
       2       1       1       7       3      10       4      12       7      10
       5       4       5       3       2       1       1       7       3      10
       4      12       7      12       5       4      10       8       4       6
       3       5       3       3       2       1       1       7       3      10
       4      16       7      12       9       8       3       2       1       4
       2       1       1      10       3      14      11       6       5       8
       5       4       7       4       3       6       3       7       3      10
       4      14       7      10       7       6       3       2       1       2
       1       7       3      10       4      12       7       8       5       4
       3       1       1       7       3      10       4      16       7      12
       9       8       3       2       1       4       2       1       1       7
       3       7       4       7       4       3      10       3      14      11
       6       5       8       5       4       7       4       3       6       3
       7       3      10       4      12       7      12       5       4      10
       8       4       6       3       5       3       3       2       1       1
       7       3      10       4      10       7       6       3       2       1
       7       3      10       4      12       7      12       5       4      10
       8       4       6       3       5       3       3       2       1       1
       4       3       2       1       1       1       1       1       1       1
       1       1       1       1       1       1       1       1       1       1
       1       1       1       1       1       1       1       1       1       1
       1       1       1       1       1       1       1       1       1       1
       1       1       1       1       1       1       1       3       2       1
       1       3       2       1       1       3       2       1       1       3
       2       1       1       3       2       1       1       3       2       1
       1       3       2       1       1       3       2       1       1       3
       2       1       1       3       2       1       1       3       2       1
       1       3       2       1       1       3       2       1       1       3
       2       1       1       3       2       1       1       3       2       1
       1       3       2       1       1       3       2       1       1       3
       2       1       1       3       2       1       1       3       2       1
       1       3       2       1       1       3       2       1       1       3
       2       1       1       3       2       1       1       3       2       1
       1       3       2       1       1       3       2       1       1       3
       2       1       1       3       2       1       1       3       2       1
       1       3       2       1       1       3       2       1       1       3
       2       1       1       3       2       1       1       3       2       1
       1       3       2       1       1       3       2       1       1       3
       2       1       1       3       2       1       1       3       2       1
       1       3       2       1       1       3       2       1       1       3
       2       1       1       3       2       1       1       3       2       1
       1       3       2       1       1       3       2       1       1       3
       2       1       1       3       2       1       1       3       2       1
       1       3       2       1       1       3       2       1       1       3
       2       1       1       3       2       1       1       3       2       1
       1       3       2       1       1       3       2       1       1       3
       2       1       1       3       2       1       1       3       2       1
       1       3       2       1       1       3       2       1       1       3
       2       1       1       3       2       1       1       3       2       1
       1       3       2       1       1       3       2       1       1       3
       2       1       1       3       2       1       1       3       2       1
       1       3       2       1       1       3       2       1       1       3
       2       1       1       3       2       1       1       3       2       1
       1       3       2       1       1       3       2       1       1       3
       2       1       1       3       2       1       1       3       2       1
       1       3       2       1       1       3       2       1       1       3
       2       1       1       3       2       1       1       3       2       1
       1       3       2       1       1       3       2       1       1       3
       2       1       1       3       2       1       1       3       2       1
       1       3       2       1       1       3       2       1       1       3
       2       1       1       3       2       1       1       3       2       1
       1       3       2       1       1       3       2       1       1       3
       2       1       1       3       2       1       1       3       2       1
       1       3       2       1       1       3       2       1       1       3
       2       1       1       3       2       1       1       3       2       1
       1       3       2       1       1       3       2       1       1       3
       2       1       1       3       2       1       1       3       2       1
       1       3       2       1       1       3       2       1       1       3
       2       1       1       3       2       1       1       3       2       1
       1       3       2       1       1       3       2       1       1       3
       2       1       1       3       2       1       1       3       2       1
       1       3       2       1       1       3       2       1       1       3
       2       1       1       3       2       1       1       3       2       1
       1       3       2       1       1       3       2       1       1       3
       2       1       1       3       2       1       1       3       2       1
       1       3       2       1       1       3       2       1       1       3
       2       1       1       3       2       1       1       3       2       1
       1       3       2       1       1       3       2       1       1       3
       2       1       1       3       2       1       1       3       2       1
       1       3       2       1       1       3       2       1       1       3
       2       1       1       3       2       1       1       3       2       1
       1       3       2       1       1       3       2       1       1       3
       2       1       1       3       2       1       1       3       2       1
       1       3       2       1       1       3       2       1       1       3
       2       1       1       3       2       1       1       3       2       1
       1       3       2       1       1       3       2       1       1       3
       2       1       1       3       2       1       1       3       2       1
       1       3       2       1       1       3       2       1       1       3
       2       1       1       3       2       1       1       3       2       1
       1       3       2       1       1       3       2       1       1       3
       2       1       1       3       2       1       1       3       2       1
       1       3       2       1       1       3       2       1       1       3
       2       1       1       3       2       1       1       3       2       1
       1       3       2       1       1       3       2       1       1       3
       2       1       1       3       2       1       1       3       2       1
       1       3       2       1       1       3       2       1       1       3
       2       1       1       3       2       1       1       3       2       1
       1       3       2       1       1       3       2       1       1       3
       2       1       1       3       2       1       1       3       2       1
       1       3       2       1       1       3       2       1       1       3
       2       1       1       3       2       1       1       3       2       1
       1       3       2       1       1       3       2       1       1       3
       2       1       1       3       2       1       1       3       2       1
       1       3       2       1       1       3       2       1       1       3
       2       1       1       3       2       1       1       3       2       1
       1       3       2       1       1       3       2       1       1       3
       2       1       1       3       2       1       1       3       2       1
       1       3       2       1       1       3       2       1       1       3
       2       1       1       3       2       1       1       3       2       1
       1       3       2       1       1       3       2       1       1       3
       2       1       1       3       2       1       1       3       2       1
       1       3       2       1       1       3       2       1       1       3
       2       1       1       3       2       1       1       3       2       1
       1       3       2       1       1       3       2       1       1       3
       2       1       1       3       2       1       1       3       2       1
       1       3       2       1       1       3       2       1       1       3
       2       1       1       3       2       1       1       3       2       1
       1       3       2       1       1       3       2       1       1       3
       2       1       1       3       2       1       1       3       2       1
       1       3       2       1       1       3       2       1       1       3
       2       1       1       3       2       1       1       3       2       1
       1       3       2       1       1       3       2       1       1       3
       2       1       1       3       2       1       1       3       2       1
       1       3       2       1       1       3       2       1       1       3
       2       1       1       3       2       1       1       3       2       1
       1       3       2       1       1       3       2       1       1       3
       2       1       1       3       2       1       1       3       2       1
       1       3       2       1       1       3       2       1       1       3
       2       1       1       3       2       1       1       3       2       1
       1       3       2       1       1       3       2       1       1       3
       2       1       1       3       2       1       1       3       2       1
       1       3       2       1       1       3       2       1       1       3
       2       1       1       3       2       1       1       3       2       1
       1       3       2       1       1       3       2       1       1       3
       2       1       1       3       2       1       1       3       2       1
       1       3       2       1       1       3       2       1       1       3
       2       1       1       3       2       1       1       3       2       1
       1       3       2       1       1       3       2       1       1       3
       2       1       1       3       2       1       1       3       2       1
       1       3       2       1       1       3       2       1       1       3
       2       1       1       3       2       1       1       3       2       1
       1       3       2       1       1       3       2       1       1       3
       2       1       1       3       2       1       1       3       2       1
       1       3       2       1       1       3       2       1       1       3
       2       1       1       3       2       1       1       3       2       1
       1       3       2       1       1       3       2       1       1       3
       2       1       1       3       2       1       1       3       2       1
       1       3       2       1       1       3       2       1       1       3
       2       1       1       3       2       1       1       3       2       1
       1       3       2       1       1       3       2       1       1       3
       2       1       1       3       2       1       1       3       2       1
       1       3       2       1       1       3       2       1       1       3
       2       1       1       3       2       1       1       3       2       1
       1       3       2       1       1       3       2       1       1       3
       2       1       1       3       2       1       1       3       2       1
       1       3       2       1       1       3       2       1       1       3
       2       1       1       3       2       1       1       3       2       1
       1       3       2       1       1       3       2       1       1       3
       2       1       1       3       2       1       1       3       2       1
       1       3       2       1       1       3       2       1       1       3
       2       1       1       3       2       1       1       3       2       1
       1       3       2       1       1       3       2       1       1       3
       2       1       1       3       2       1       1       3       2       1
       1       3       2       1       1       3       2       1       1       3
       2       1       1       3       2       1       1       3       2       1
       1       3       2       1       1       3       2       1       1       3
       2       1       1       3       2       1       1       3       2       1
       1       3       2       1       1       3       2       1       1       3
       2       1       1       3       2       1       1       3       2       1
       1       3       2       1       1       3       2       1       1       3
       2       1       1       3       2       1       1       3       2       1
       1       3       2       1       1       3       2       1       1       3
       2       1       1       3       2       1       1       3       2       1
       1       3       2       1       1       3       2       1       1       3
       2       1       1       3       2       1       1       3       2       1
       1       3       2       1       1       3       2       1       1       3
       2       1       1       3       2       1       1       3       2       1
       1       3       2       1       1       3       2       1       1       3
       2       1       1       3       2       1       1       3       2       1
       1       3       2       1       1       3       2       1       1       3
       2       1       1       3       2       1       1       3       2       1
       1       3       2       1       1       3       2       1       1       3
       2       1       1       3       2       1       1       3       2       1
       1       3       2       1       1       3       2       1       1       3
       2       1       1       3       2       1       1       3       2       1
       1       3       2       1       1       3       2       1       1       3
       2       1       1       3       2       1       1       3       2       1
       1       3       2       1       1       3       2       1       1       3
       2       1       1       3       2       1       1       3       2       1
       1       3       2       1       1       3       2       1       1       3
       2       1       1       3       2       1       1       3       2       1
       1       3       2       1       1       3       2       1       1       3
       2       1       1       3       2       1       1       3       2       1
       1       3       2       1       1       3       2       1       1       3
       2       1       1       3       2       1       1       3       2       1
       1       3       2       1       1       3       2       1       1       3
       2       1       1       3       2       1       1       3       2       1
       1       3       2       1       1       3       2       1       1       3
       2       1       1       3       2       1       1       3       2       1
       1       3       2       1       1       3       2       1       1       3
       2       1       1       3       2       1       1       3       2       1
       1       3       2       1       1       3       2       1       1       3
       2       1       1       3       2       1       1       3       2       1
       1       3       2       1       1       3       2       1       1       3
       2       1       1       3       2       1       1       3       2       1
       1       3       2       1       1       3       2       1       1       3
       2       1       1       3       2       1       1       3       2       1
       1       3       2       1       1       3       2       1       1       3
       2       1       1       3       2       1       1       3       2       1
       1       3       2       1       1       3       2       1       1       3
       2       1       1       3       2       1       1       3       2       1
       1       3       2       1       1       3       2       1       1       3
       2       1       1       3       2       1       1       3       2       1
       1       3       2       1       1       3       2       1       1       3
       2       1       1       3       2       1       1       3       2       1
       1       3       2       1       1       3       2       1       1       3
       2       1       1       3       2       1       1       3       2       1
       1       3       2       1       1       3       2       1       1       3
       2       1       1       3       2       1       1       3       2       1
       1       3       2       1       1       3       2       1       1       3
       2       1       1       3       2       1       1       3       2       1
       1       3       2       1       1       3       2       1       1       3
       2       1       1       3       2       1       1       3       2       1
       1       3       2       1       1       3       2       1       1       3
       2       1       1       3       2       1       1       3       2       1
       1       3       2       1       1       3       2       1       1       3
       2       1       1       3       2       1       1       3       2       1
       1       3       2       1       1       3       2       1       1       3
       2       1       1       3       2       1       1       3       2       1
       1       3       2       1       1       3       2       1       1       3
       2       1       1       3       2       1       1       3       2       1
       1       3       2       1       1       3       2       1       1       3
       2       1       1       3       2       1       1       3       2       1
       1       3       2       1       1       3       2       1       1       3
       2       1       1       3       2       1       1       3       2       1
       1       3       2       1       1       3       2       1       1       3
       2       1       1       3       2       1       1       3       2       1
       1       3       2       1       1       3       2       1       1       3
       2       1       1       3       2       1       1       3       2       1
       1       3       2       1       1       3       2       1       1       3
       2       1       1       3       2       1       1       3       2       1
       1       3       2       1       1       3       2       1       1       3
       2       1       1       3       2       1       1       3       2       1
       1       3       2       1       1       3       2       1       1       3
       2       1       1       3       2       1       1       3       2       1
       1       3       2       1       1       3       2       1       1       3
       2       1       1       3       2       1       1       3       2       1
       1       3       2       1       1       3       2       1       1       3
       2       1       1       3       2       1       1       3       2       1
       1       3       2       1       1       3       2       1       1       3
       2       1       1       3       2       1       1       3       2       1
       1       3       2       1       1       3       2       1       1       3
       2       1       1       3       2       1       1       3       2       1
       1       3       2       1       1       3       2       1       1       3
       2       1       1       3       2       1       1       3       2       1
       1       3       2       1       1       3       2       1       1       3
       2       1       1       3       2       1       1       3       2       1
       1       3       2       1       1       3       2       1       1       3
       2       1       1       3       2       1       1       3       2       1
       1       3       2       1       1       3       2       1       1       3
       2       1       1       3       2       1       1       3       2       1
       1       3       2       1       1       3       2       1       1       3
       2       1       1       3       2       1       1       3       2       1
       1       3       2       1       1       3       2       1       1       3
       2       1       1       3       2       1       1       3       2       1
       1       3       2       1       1       3       2       1       1       3
       2       1       1       3       2       1       1       3       2       1
       1       3       2       1       1       3       2       1       1       3
       2       1       1       3       2       1       1       3       2       1
       1       3       2       1       1       3       2       1       1       3
       2       1       1       3       2       1       1       3       2       1
       1       3       2       1       1       3       2       1       1       3
       2       1       1       3       2       1       1       3       2       1
       1       3       2       1       1       3       2       1       1       3
       2       1       1       3       2       1       1       3       2       1
       1       3       2       1       1       3       2       1       1       3
       2       1       1       3       2       1       1       3       2       1
       1       3       2       1       1       3       2       1       1       3
       2       1       1       3       2       1       1       3       2       1
       1       3       2       1       1       3       2       1       1       3
       2       1       1       3       2       1       1       3       2       1
       1       3       2       1       1       3       2       1       1       3
       2       1       1       3       2       1       1       3       2       1
       1       3       2       1       1       3       2       1       1       3
       2       1       1       3       2       1       1       3       2       1
       1       3       2       1       1       3       2       1       1       3
       2       1       1       3       2       1       1       3       2       1
       1       3       2       1       1       3       2       1       1       3
       2       1       1       3       2       1       1       3       2       1
       1       3       2       1       1       3       2       1       1       3
       2       1       1       3       2       1       1       3       2       1
       1       3       2       1       1       3       2       1       1       3
       2       1       1       3       2       1       1       3       2       1
       1       3       2       1       1       3       2       1       1       3
       2       1       1       3       2       1       1       3       2       1
       1       3       2       1       1       3       2       1       1       3
       2       1       1       3       2       1       1       3       2       1
       1       3       2       1       1       3       2       1       1       3
       2       1       1       3       2       1       1       3       2       1
       1       3       2       1       1       3       2       1       1       3
       2       1       1       3       2       1       1       3       2       1
       1       3       2       1       1       3       2       1       1       3
       2       1       1       3       2       1       1       3       2       1
       1       3       2       1       1       3       2       1       1       3
       2       1       1       3       2       1       1       3       2       1
       1       3       2       1       1       3       2       1       1       3
       2       1       1       3       2       1       1       3       2       1
       1       3       2       1       1       3       2       1       1       3
       2       1       1       3       2       1       1       3       2       1
       1       3       2       1       1       3       2       1       1       3
       2       1       1       3       2       1       1       3       2       1
       1       3       2       1       1       3       2       1       1       3
       2       1       1       3       2       1       1       3       2       1
       1       3       2       1       1       3       2       1       1       3
       2       1       1       3       2       1       1       3       2       1
       1       3       2       1       1       3       2       1       1       3
       2       1       1       3       2       1       1       3       2       1
       1       3       2       1       1       3       2       1       1       3
       2       1       1       3       2       1       1       3       2       1
       1       3       2       1       1       3       2       1       1       3
       2       1       1       3       2       1       1       3       2       1
       1       3       2       1       1       3       2       1       1       3
       2       1       1       3       2       1       1       3       2       1
       1       3       2       1       1       3       2       1       1       3
       2       1       1       3       2       1       1       3       2       1
       1       3       2       1       1       3       2       1       1       3
       2       1       1       3       2       1       1       3       2       1
       1       3       2       1       1       3       2       1       1       3
       2       1       1       3       2       1       1       3       2       1
       1       3       2       1       1       3       2       1       1       3
       2       1       1       3       2       1       1       3       2       1
       1       3       2       1       1       3       2       1       1       3
       2       1       1       3       2       1       1       3       2       1
       1       3       2       1       1       3       2       1       1       3
       2       1       1       3       2       1       1       3       2       1
       1       3       2       1       1       3       2       1       1       3
       2       1       1       3       2       1       1       3       2       1
       1       3       2       1       1       3       2       1       1       3
       2       1       1       3       2       1       1       3       2       1
       1       3       2       1       1       3       2       1       1       3
       2       1       1       3       2       1       1       3       2       1
       1       3       2       1       1       3       2       1       1       3
       2       1       1       3       2       1       1       3       2       1
       1       3       2       1       1       3       2       1       1       3
       2       1       1       3       2       1       1       3       2       1
       1       3       2       1       1       3       2       1       1       3
       2       1       1       3       2       1       1       3       2       1
       1       3       2       1       1       3       2       1       1       3
       2       1       1       3       2       1       1       3       2       1
       1       3       2       1       1       3       2       1       1       3
       2       1       1       3       2       1       1       3       2       1
       1       3       2       1       1       3       2       1       1       3
       2       1       1       3       2       1       1       3       2       1
       1       3       2       1       1       3       2       1       1       3
       2       1       1       3       2       1       1       3       2       1
       1       3       2       1       1       3       2       1       1       3
       2       1       1       3       2       1       1       3       2       1
       1       3       2       1       1       3       2       1       1       3
       2       1       1       3       2       1       1       3       2       1
       1       3       2       1       1       3       2       1       1       3
       2       1       1       3       2       1       1       3       2       1
       1       3       2       1       1       3       2       1       1       3
       2       1       1       3       2       1       1       3       2       1
       1       3       2       1       1       3       2       1       1       3
       2       1       1       3       2       1       1       3       2       1
       1       3       2       1       1       3       2       1       1       3
       2       1       1       3       2       1       1       3       2       1
       1       3       2       1       1       3       2       1       1       3
       2       1       1       3       2       1       1       3       2       1
       1       3       2       1       1       3       2       1       1       3
       2       1       1       3       2       1       1       3       2       1
       1       3       2       1       1       3       2       1       1       3
       2       1       1       3       2       1       1       3       2       1
       1       3       2       1       1       3       2       1       1       3
       2       1       1       3       2       1       1       3       2       1
       1       3       2       1       1       3       2       1       1       3
       2       1       1       3       2       1       1       3       2       1
       1       3       2       1       1       3       2       1       1       3
       2       1       1       3       2       1       1       3       2       1
       1       3       2       1       1       3       2       1       1       3
       2       1       1       3       2       1       1       3       2       1
       1       3       2       1       1       3       2       1       1       3
       2       1       1       3       2       1       1       3       2       1
       1       3       2       1       1       3       2       1       1       3
       2       1       1       3       2       1       1       3       2       1
       1       3       2       1       1       3       2       1       1       3
       2       1       1       3       2       1       1       3       2       1
       1       3       2       1       1       3       2       1       1       3
       2       1       1       3       2       1       1       3       2       1
       1       3       2       1       1       3       2       1       1       3
       2       1       1       3       2       1       1       3       2       1
       1       3       2       1       1       3       2       1       1       3
       2       1       1       3       2       1       1       3       2       1
       1       3       2       1       1       3       2       1       1       3
       2       1       1       3       2       1       1       3       2       1
       1       3       2       1       1       3       2       1       1       3
       2       1       1       3       2       1       1       3       2       1
       1       3       2       1       1       3       2       1       1       3
       2       1       1       3       2       1       1       3       2       1
       1       3       2       1       1       3       2       1       1       3
       2       1       1       3       2       1       1       3       2       1
       1       3       2       1       1       3       2       1       1       3
       2       1       1       3       2       1       1       3       2       1
       1       3       2       1       1       3       2       1       1       3
       2       1       1       3       2       1       1       3       2       1
       1       3       2       1       1       3       2       1       1       3
       2       1       1       3       2       1       1       3       2       1
       1       3       2       1       1       3       2       1       1       3
       2       1       1       3       2       1       1       3       2       1
       1       3       2       1       1       3       2       1       1       3
       2       1       1       3       2       1       1       3       2       1
       1       3       2       1       1       3       2       1       1       3
       2       1       1       3       2       1       1       3       2       1
       1       3       2       1       1       3       2       1       1       3
       2       1       1       3       2       1       1       3       2       1
       1       3       2       1       1       3       2       1       1       3
       2       1       1       3       2       1       1       3       2       1
       1       3       2       1       1       3       2       1       1       3
       2       1       1       3       2       1       1       3       2       1
       1       3       2       1       1       3       2       1       1       3
       2       1       1       3       2       1       1       3       2       1
       1       3       2       1       1       3       2       1       1       3
       2       1       1       3       2       1       1       3       2       1
       1       3       2       1       1       3       2       1       1       3
       2       1       1       3       2       1       1       3       2       1
       1       3       2       1       1       3       2       1       1       3
       2       1       1       3       2       1       1       3       2       1
       1       3       2       1       1       3       2       1       1       3
       2       1       1       3       2       1       1       3       2       1
       1       3       2       1       1       3       2       1       1       3
       2       1       1       3       2       1       1       3       2       1
       1       3       2       1       1       3       2       1       1       3
       2       1       1       3       2       1       1       3       2       1
       1       3       2       1       1       3       2       1       1       3
       2       1       1       3       2       1       1       3       2       1
       1       3       2       1       1       3       2       1       1       3
       2       1       1       3       2       1       1       3       2       1
       1       3       2       1       1       3       2       1       1       3
       2       1       1       3       2       1       1       3       2       1
       1       3       2       1       1       3       2       1       1       3
       2       1       1       3       2       1       1       3       2       1
       1       3       2       1       1       3       2       1       1       3
       2       1       1       3       2       1       1       3       2       1
       1       3       2       1       1       3       2       1       1       3
       2       1       1       3       2       1       1       3       2       1
       1       3       2       1       1       3       2       1       1       3
       2       1       1       3       2       1       1       3       2       1
       1       3       2       1       1       3       2       1       1       3
       2       1       1       3       2       1       1       3       2       1
       1       3       2       1       1       3       2       1       1       3
       2       1       1       3       2       1       1       3       2       1
       1       3       2       1       1       3       2       1       1       3
       2       1       1       3       2       1       1       3       2       1
       1       3       2       1       1       3       2       1       1       3
       2       1       1       3       2       1       1       3       2       1
       1       3       2       1       1       3       2       1       1       3
       2       1       1       3       2       1       1       3       2       1
       1       3       2       1       1       3       2       1       1       3
       2       1       1       3       2       1       1       3       2       1
       1       3       2       1       1       3       2       1       1       3
       2       1       1       3       2       1       1       3       2       1
       1       3       2       1       1       3       2       1       1       3
       2       1       1       3       2       1       1       3       2       1
       1       3       2       1       1       3       2       1       1       3
       2       1       1       3       2       1       1       3       2       1
       1       3       2       1       1       3       2       1       1       3
       2       1       1       3       2       1       1       3       2       1
       1       3       2       1       1       3       2       1       1       3
       2       1       1       3       2       1       1       3       2       1
       1       3       2       1       1       3       2       1       1       3
       2       1       1       3       2       1       1       3       2       1
       1       3       2       1       1       3       2       1       1       3
       2       1       1       3       2       1       1       3       2       1
       1       3       2       1       1       3       2       1       1       3
       2       1       1       3       2       1       1       3       2       1
       1       3       2       1       1       3       2       1       1       3
       2       1       1       3       2       1       1       3       2       1
       1       3       2       1       1       3       2       1       1       3
       2       1       1       3       2       1       1       3       2       1
       1       3       2       1       1       3       2       1       1       3
       2       1       1       3       2       1       1       3       2       1
       1       3       2       1       1       3       2       1       1       3
       2       1       1       3       2       1       1       3       2       1
       1       3       2       1       1       3       2       1       1       3
       2       1       1       3       2       1       1       3       2       1
       1       3       2       1       1       3       2       1       1       3
       2       1       1       3       2       1       1       3       2       1
       1       3       2       1       1       3       2       1       1       3
       2       1       1       3       2       1       1       3       2       1
       1       3       2       1       1       3       2       1       1       3
       2       1       1       3       2       1       1       3       2       1
       1       3       2       1       1       3       2       1       1       3
       2       1       1       3       2       1       1       3       2       1
       1       3       2       1       1       3       2       1       1       3
       2       1       1       3       2       1       1       3       2       1
       1       3       2       1       1       3       2       1       1       3
       2       1       1       3       2       1       1       3       2       1
       1       3       2       1       1       3       2       1       1       3
       2       1       1       3       2       1       1       3       2       1
       1       3       2       1       1       3       2       1       1       3
       2       1       1       3       2       1       1       3       2       1
       1       3       2       1       1       3       2       1       1       3
       2       1       1       3       2       1       1       3       2       1
       1       3       2       1       1       3       2       1       1       3
       2       1       1       3       2       1       1       3       2       1
       1       3       2       1       1       3       2       1       1       3
       2       1       1       3       2       1       1       3       2       1
       1       3       2       1       1       3       2       1       1       3
       2       1       1       3       2       1       1       3       2       1
       1       3       2       1       1       3       2       1       1       3
       2       1       1       3       2       1       1       3       2       1
       1       3       2       1       1       3       2       1       1       3
       2       1       1       3       2       1       1       3       2       1
       1       3       2       1       1       3       2       1       1       3
       2       1       1       3       2       1       1       3       2       1
       1       3       2       1       1       3       2       1       1       3
       2       1       1       3       2       1       1       3       2       1
       1       3       2       1       1       3       2       1       1       3
       2       1       1       3       2       1       1       3       2       1
       1       3       2       1       1       3       2       1       1       3
       2       1       1       3       2       1       1       3       2       1
       1       3       2       1       1       3       2       1       1       3
       2       1       1       3       2       1       1       3       2       1
       1       3       2       1       1       3       2       1       1       3
       2       1       1       3       2       1       1       3       2       1
       1       3       2       1       1       3       2       1       1       3
       2       1       1       3       2       1       1       3       2       1
       1       3       2       1       1       3       2       1       1       3
       2       1       1       3       2       1       1       3       2       1
       1       3       2       1       1       3       2       1       1       3
       2       1       1       3       2       1       1       3       2       1
       1       3       2       1       1       3       2       1       1       3
       2       1       1       3       2       1       1       3       2       1
       1       3       2       1       1       3       2       1       1       3
       2       1       1       3       2       1       1       3       2       1
       1       3       2       1       1       3       2       1       1       3
       2       1       1       3       2       1       1       3       2       1
       1       3       2       1       1       3       2       1       1       3
       2       1       1       3       2       1       1       3       2       1
       1       3       2       1       1       3       2       1       1       3
       2       1       1       3       2       1       1       3       2       1
       1       3       2       1       1       3       2       1       1       3
       2       1       1       3       2       1       1       3       2       1
       1       3       2       1       1       3       2       1       1       3
       2       1       1       3       2       1       1       3       2       1
       1       3       2       1       1       3       2       1       1       3
       2       1       1       3       2       1       1       3       2       1
       1       3       2       1       1       3       2       1       1       3
       2       1       1       3       2       1       1       3       2       1
       1       3       2       1       1       3       2       1       1       3
       2       1       1       3       2       1       1       3       2       1
       1       3       2       1       1       3       2       1       1       3
       2       1       1       3       2       1       1       3       2       1
       1       3       2       1       1       3       2       1       1       3
       2       1       1       3       2       1       1       3       2       1
       1       3       2       1       1       3       2       1       1       3
       2       1       1       3       2       1       1       3       2       1
       1       3       2       1       1       3       2       1       1       3
       2       1       1       3       2       1       1       3       2       1
       1       3       2       1       1       3       2       1       1       3
       2       1       1       3       2       1       1       3       2       1
       1       3       2       1       1       3       2       1       1       3
       2       1       1       3       2       1       1       3       2       1
       1       3       2       1       1       3       2       1       1       3
       2       1       1       3       2       1       1       3       2       1
       1       3       2       1       1       3       2       1       1       3
       2       1       1       3       2       1       1       3       2       1
       1       3       2       1       1       3       2       1       1       3
       2       1       1       3       2       1       1       3       2       1
       1       3       2       1       1       3       2       1       1       3
       2       1       1       3       2       1       1       3       2       1
       1       3       2       1       1       3       2       1       1       3
       2       1       1       3       2       1       1       3       2       1
       1       3       2       1       1       3       2       1       1       3
       2       1       1       3       2       1       1       3       2       1
       1       3       2       1       1       3       2       1       1       3
       2       1       1       3       2       1       1       3       2       1
       1       3       2       1       1       3       2       1       1       3
       2       1       1       3       2       1       1       3       2       1
       1       3       2       1       1       3       2       1       1       3
       2       1       1       3       2       1       1       3       2       1
       1       3       2       1       1       3       2       1       1       3
       2       1       1       3       2       1       1       3       2       1
       1       3       2       1       1       3       2       1       1       3
       2       1       1       3       2       1       1       3       2       1
       1       3       2       1       1       3       2       1       1       3
       2       1       1       3       2       1       1       3       2       1
       1       3       2       1       1       3       2       1       1       3
       2       1       1       3       2       1       1       3       2       1
       1       3       2       1       1       3       2       1       1       3
       2       1       1       3       2       1       1       3       2       1
       1       3       2       1       1       3       2       1       1       3
       2       1       1       3       2       1       1       3       2       1
       1       3       2       1       1       3       2       1       1       3
       2       1       1       3       2       1       1       3       2       1
       1       3       2       1       1       3       2       1       1       3
       2       1       1       3       2       1       1       3       2       1
       1       3       2       1       1       3       2       1       1       3
       2       1       1       3       2       1       1       3       2       1
       1       3       2       1       1       3       2       1       1       3
       2       1       1       3       2       1       1       3       2       1
       1       3       2       1       1       3       2       1       1       3
       2       1       1       3       2       1       1       3       2       1
       1       3       2       1       1       3       2       1       1       3
       2       1       1       3       2       1       1       3       2       1
       1       3       2       1       1       3       2       1       1       3
       2       1       1       3       2       1       1       3       2       1
       1       3       2       1       1       3       2       1       1       3
       2       1       1       3       2       1       1       3       2       1
       1       3       2       1       1       3       2       1       1       3
       2       1       1       3       2       1       1       3       2       1
       1       3       2       1       1       3       2       1       1       3
       2       1       1       3       2       1       1       3       2       1
       1       3       2       1       1       3       2       1       1       3
       2       1       1       3       2       1       1       3       2       1
       1       3       2       1       1       3       2       1       1       3
       2       1       1       3       2       1       1       3       2       1
       1       3       2       1       1       3       2       1       1       3
       2       1       1       3       2       1       1       3       2       1
       1       3       2       1       1       3       2       1       1       3
       2       1       1       3       2       1       1       3       2       1
       1       3       2       1       1       3       2       1       1       3
       2       1       1       3       2       1       1       3       2       1
       1       3       2       1       1       3       2       1       1       3
       2       1       1       3       2       1       1       3       2       1
       1       3       2       1       1       3       2       1       1       3
       2       1       1       3       2       1       1       3       2       1
       1       3       2       1       1       3       2       1       1       3
       2       1       1       3       2       1       1       3       2       1
       1       3       2       1       1       3       2       1       1       3
       2       1       1       3       2       1       1       3       2       1
       1       3       2       1       1       3       2       1       1       3
       2       1       1       3       2       1       1       3       2       1
       1       3       2       1       1       3       2       1       1       3
       2       1       1       3       2       1       1       3       2       1
       1       3       2       1       1       3       2       1       1       3
       2       1       1       3       2       1       1       3       2       1
       1       3       2       1       1       3       2       1       1       3
       2       1       1       3       2       1       1       3       2       1
       1       3       2       1       1       3       2       1       1       3
       2       1       1       3       2       1       1       3       2       1
       1       3       2       1       1       3       2       1       1       3
       2       1       1       3       2       1       1       3       2       1
       1       3       2       1       1       3       2       1       1       3
       2       1       1       3       2       1       1       3       2       1
       1       3       2       1       1       3       2       1       1       3
       2       1       1       3       2       1       1       3       2       1
       1       3       2       1       1       3       2       1       1       3
       2       1       1       3       2       1       1       3       2       1
       1       3       2       1       1       3       2       1       1       3
       2       1       1       3       2       1       1       3       2       1
       1       3       2       1       1       3       2       1       1       3
       2       1       1       3       2       1       1       3       2       1
       1       3       2       1       1       3       2       1       1       3
       2       1       1       3       2       1       1       3       2       1
       1       3       2       1       1       3       2       1       1       3
       2       1       1       3       2       1       1       3       2       1
       1       3       2       1       1       3       2       1       1       3
       2       1       1       3       2       1       1       3       2       1
       1       3       2       1       1       3       2       1       1       3
       2       1       1       3       2       1       1       3       2       1
       1       3       2       1       1       3       2       1       1       3
       2       1       1       3       2       1       1       3       2       1
       1       3       2       1       1       3       2       1       1       3
       2       1       1       3       2       1       1       3       2       1
       1       3       2       1       1       3       2       1       1       3
       2       1       1       3       2       1       1       3       2       1
       1       3       2       1       1       3       2       1       1       3
       2       1       1       3       2       1       1       3       2       1
       1       3       2       1       1       3       2       1       1       3
       2       1       1       3       2       1       1       3       2       1
       1       3       2       1       1       3       2       1       1       3
       2       1       1       3       2       1       1       3       2       1
       1       3       2       1       1       3       2       1       1       3
       2       1       1       3       2       1       1       3       2       1
       1       3       2       1       1       3       2       1       1       3
       2       1       1       3       2       1       1       3       2       1
       1       3       2       1       1       3       2       1       1       3
       2       1       1       3       2       1       1       3       2       1
       1       3       2       1       1       3       2       1       1       3
       2       1       1       3       2       1       1       3       2       1
       1       3       2       1       1       3       2       1       1       3
       2       1       1       3       2       1       1       3       2       1
       1       3       2       1       1       3       2       1       1       3
       2       1       1       3       2       1       1       3       2       1
       1       3       2       1       1       3       2       1       1       3
       2       1       1       3       2       1       1       3       2       1
       1       3       2       1       1       3       2       1       1       3
       2       1       1       3       2       1       1       3       2       1
       1       3       2       1       1       3       2       1       1       3
       2       1       1       3       2       1       1       3       2       1
       1       3       2       1       1       3       2       1       1       3
       2       1       1       3       2       1       1       3       2       1
       1       3       2       1       1       3       2       1       1       3
       2       1       1       3       2       1       1       3       2       1
       1       3       2       1       1       3       2       1       1       3
       2       1       1       3       2       1       1       3       2       1
       1       3       2       1       1       3       2       1       1       3
       2       1       1       3       2       1       1       3       2       1
       1       3       2       1       1       3       2       1       1       3
       2       1       1       3       2       1       1       3       2       1
       1       3       2       1       1       3       2       1       1       3
       2       1       1       3       2       1       1       3       2       1
       1       3       2       1       1       3       2       1       1       3
       2       1       1       3       2       1       1       3       2       1
       1       3       2       1       1       3       2       1       1       3
       2       1       1       3       2       1       1       3       2       1
       1       3       2       1       1       3       2       1       1       3
       2       1       1       3       2       1       1       3       2       1
       1       3       2       1       1       3       2       1       1       3
       2       1       1       3       2       1       1       3       2       1
       1       3       2       1       1       3       2       1       1       3
       2       1       1       3       2       1       1       3       2       1
       1       3       2       1       1       3       2       1       1       3
       2       1       1       3       2       1       1       3       2       1
       1       3       2       1       1       3       2       1       1       3
       2       1       1       3       2       1       1       3       2       1
       1       3       2       1       1       3       2       1       1       3
       2       1       1       3       2       1       1       3       2       1
       1       3       2       1       1       3       2       1       1       3
       2       1       1       3       2       1       1       3       2       1
       1       3       2       1       1       3       2       1       1       3
       2       1       1       3       2       1       1       3       2       1
       1       3       2       1       1       3       2       1       1       3
       2       1       1       3       2       1       1       3       2       1
       1       3       2       1       1       3       2       1       1       3
       2       1       1       3       2       1       1       3       2       1
       1       3       2       1       1       3       2       1       1       3
       2       1       1       3       2       1       1       3       2       1
       1       3       2       1       1       3       2       1       1       3
       2       1       1       3       2       1       1       3       2       1
       1       3       2       1       1       3       2       1       1       3
       2       1       1       3       2       1       1       3       2       1
       1       3       2       1       1       3       2       1       1       3
       2       1       1       3       2       1       1       3       2       1
       1       3       2       1       1       3       2       1       1       3
       2       1       1       3       2       1       1       3       2       1
       1       3       2       1       1       3       2       1       1       3
       2       1       1       3       2       1       1       3       2       1
       1       3       2       1       1       3       2       1       1       3
       2       1       1       3       2       1       1       3       2       1
       1       3       2       1       1       3       2       1       1       3
       2       1       1       3       2       1       1       3       2       1
       1       3       2       1       1       3       2       1       1       3
       2       1       1       3       2       1       1       3       2       1
       1       3       2       1       1       3       2       1       1       3
       2       1       1       3       2       1       1       3       2       1
       1       3       2       1       1       3       2       1       1       3
       2       1       1       3       2       1       1       3       2       1
       1       3       2       1       1       3       2       1       1       3
       2       1       1       3       2       1       1       3       2       1
       1       3       2       1       1       3       2       1       1       3
       2       1       1       3       2       1       1       3       2       1
       1       3       2       1       1       3       2       1       1       3
       2       1       1       3       2       1       1       3       2       1
       1       3       2       1       1       3       2       1       1       3
       2       1       1       3       2       1       1       3       2       1
       1       3       2       1       1       3       2       1       1       3
       2       1       1       3       2       1       1       3       2       1
       1       3       2       1       1       3       2       1       1       3
       2       1       1       3       2       1       1       3       2       1
       1       3       2       1       1       3       2       1       1       3
       2       1       1       3       2       1       1       3       2       1
       1       3       2       1       1       3       2       1       1       3
       2       1       1       3       2       1       1       3       2       1
       1       3       2       1       1       3       2       1       1       3
       2       1       1       3       2       1       1       3       2       1
       1       3       2       1       1       3       2       1       1       3
       2       1       1       3       2       1       1       3       2       1
       1       3       2       1       1       3       2       1       1       3
       2       1       1       3       2       1       1       3       2       1
       1       3       2       1       1       3       2       1       1       3
       2       1       1       3       2       1       1       3       2       1
       1       3       2       1       1       3       2       1       1       3
       2       1       1       3       2       1       1       3       2       1
       1       3       2       1       1       3       2       1       1       3
       2       1       1       3       2       1       1       3       2       1
       1       3       2       1       1       3       2       1       1       3
       2       1       1       3       2       1       1       3       2       1
       1       3       2       1       1       3       2       1       1       3
       2       1       1       3       2       1       1       3       2       1
       1       3       2       1       1       3       2       1       1       3
       2       1       1       3       2       1       1       3       2       1
       1       3       2       1       1       3       2       1       1       3
       2       1       1       3       2       1       1       3       2       1
       1       3       2       1       1       3       2       1       1       3
       2       1       1       3       2       1       1       3       2       1
       1       3       2       1       1       3       2       1       1       3
       2       1       1       3       2       1       1       3       2       1
       1       3       2       1       1       3       2       1       1       3
       2       1       1       3       2       1       1       3       2       1
       1       3       2       1       1       3       2       1       1       3
       2       1       1       3       2       1       1       3       2       1
       1       3       2       1       1       3       2       1       1       3
       2       1       1       3       2       1       1       3       2       1
       1       3       2       1       1       3       2       1       1       3
       2       1       1       3       2       1       1       3       2       1
       1       3       2       1       1       3       2       1       1       3
       2       1       1       3       2       1       1       3       2       1
       1       3       2       1       1       3       2       1       1       3
       2       1       1       3       2       1       1       3       2       1
       1       3       2       1       1       3       2       1       1       3
       2       1       1       3       2       1       1       3       2       1
       1       3       2       1       1       3       2       1       1       3
       2       1       1       3       2       1       1       3       2       1
       1       3       2       1       1       3       2       1       1       3
       2       1       1       3       2       1       1       3       2       1
       1       3       2       1       1       3       2       1       1       3
       2       1       1       3       2       1       1       3       2       1
       1       3       2       1       1       3       2       1       1       3
       2       1       1       3       2       1       1       3       2       1
       1       3       2       1       1       3       2       1       1       3
       2       1       1       3       2       1       1       3       2       1
       1       3       2       1       1       3       2       1       1       3
       2       1       1       3       2       1       1       3       2       1
       1       3       2       1       1       3       2       1       1       3
       2       1       1       3       2       1       1       3       2       1
       1       3       2       1       1       3       2       1       1       3
       2       1       1       3       2       1       1       3       2       1
       1       3       2       1       1       3       2       1       1       3
       2       1       1       3       2       1       1       3       2       1
       1       3       2       1       1       3       2       1       1       3
       2       1       1       3       2       1       1       3       2       1
       1       3       2       1       1       3       2       1       1       3
       2       1       1       3       2       1       1       3       2       1
       1       3       2       1       1       3       2       1       1       3
       2       1       1       3       2       1       1       3       2       1
       1       3       2       1       1       3       2       1       1       3
       2       1       1       3       2       1       1       3       2       1
       1       3       2       1       1       3       2       1       1       3
       2       1       1       3       2       1       1       3       2       1
       1       3       2       1       1       3       2       1       1       3
       2       1       1       3       2       1       1       3       2       1
       1       3       2       1       1       3       2       1       1       3
       2       1       1       3       2       1       1       3       2       1
       1       3       2       1       1       3       2       1       1       3
       2       1       1       3       2       1       1       3       2       1
       1       3       2       1       1       3       2       1       1       3
       2       1       1       3       2       1       1       3       2       1
       1       3       2       1       1       3       2       1       1       3
       2       1       1       3       2       1       1       3       2       1
       1       3       2       1       1       3       2       1       1       3
       2       1       1       3       2       1       1       3       2       1
       1       3       2       1       1       3       2       1       1       3
       2       1       1       3       2       1       1       3       2       1
       1       3       2       1       1       3       2       1       1       3
       2       1       1       3       2       1       1       3       2       1
       1       3       2       1       1       3       2       1       1       3
       2       1       1       3       2       1       1       3       2       1
       1       3       2       1       1       3       2       1       1       3
       2       1       1       3       2       1       1       3       2       1
       1       3       2       1       1       3       2       1       1       3
       2       1       1       3       2       1       1       3       2       1
       1       3       2       1       1       3       2       1       1       3
       2       1       1       3       2       1       1       3       2       1
       1       3       2       1       1       3       2       1       1       3
       2       1       1       3       2       1       1       3       2       1
       1       3       2       1       1       3       2       1       1       3
       2       1       1       3       2       1       1       3       2       1
       1       3       2       1       1       3       2       1       1       3
       2       1       1       3       2       1       1       3       2       1
       1       3       2       1       1       3       2       1       1       3
       2       1       1       3       2       1       1       3       2       1
       1       3       2       1       1       3       2       1       1       3
       2       1       1       3       2       1       1       3       2       1
       1       3       2       1       1       3       2       1       1       3
       2       1       1       3       2       1       1       3       2       1
       1       3       2       1       1       3       2       1       1       3
       2       1       1       3       2       1       1       3       2       1
       1       3       2       1       1       3       2       1       1       3
       2       1       1       3       2       1       1       3       2       1
       1       3       2       1       1       3       2       1       1       3
       2       1       1       3       2       1       1       3       2       1
       1       3       2       1       1       3       2       1       1       3
       2       1       1       3       2       1       1       3       2       1
       1       3       2       1       1       3       2       1       1       3
       2       1       1       3       2       1       1       3       2       1
       1       3       2       1       1       3       2       1       1       3
       2       1       1       3       2       1       1       3       2       1
       1       3       2       1       1       3       2       1       1       3
       2       1       1       3       2       1       1       3       2       1
       1       3       2       1       1       3       2       1       1       3
       2       1       1       3       2       1       1       3       2       1
       1       3       2       1       1       3       2       1       1       3
       2       1       1       3       2       1       1       3       2       1
       1       3       2       1       1       3       2       1       1       3
       2       1       1       3       2       1       1       3       2       1
       1       3       2       1       1       3       2       1       1       3
       2       1       1       3       2       1       1       3       2       1
       1       3       2       1       1       3       2       1       1       3
       2       1       1       3       2       1       1       3       2       1
       1       3       2       1       1       3       2       1       1       3
       2       1       1       3       2       1       1       3       2       1
       1       3       2       1       1       3       2       1       1       3
       2       1       1       3       2       1       1       3       2       1
       1       3       2       1       1       3       2       1       1       3
       2       1       1       3       2       1       1       3       2       1
       1       3       2       1       1       3       2       1       1       3
       2       1       1       3       2       1       1       3       2       1
       1       3       2       1       1       3       2       1       1       3
       2       1       1       3       2       1       1       3       2       1
       1       3       2       1       1       3       2       1       1       3
       2       1       1       3       2       1       1       3       2       1
       1       3       2       1       1       3       2       1       1       3
       2       1       1       3       2       1       1       3       2       1
       1       3       2       1       1       3       2       1       1       3
       2       1       1       3       2       1       1       3       2       1
       1       3       2       1       1       3       2       1       1       3
       2       1       1       3       2       1       1       3       2       1
       1       3       2       1       1       3       2       1       1       3
       2       1       1       3       2       1       1       3       2       1
       1       3       2       1       1       3       2       1       1       3
       2       1       1       3       2       1       1       3       2       1
       1       3       2       1       1       3       2       1       1       3
       2       1       1       3       2       1       1       3       2       1
       1       3       2       1       1       3       2       1       1       3
       2       1       1       3       2       1       1       3       2       1
       1       3       2       1       1       3       2       1       1       3
       2       1       1       3       2       1       1       3       2       1
       1       3       2       1       1       3       2       1       1       3
       2       1       1       3       2       1       1       3       2       1
       1       3       2       1       1       3       2       1       1       3
       2       1       1       3       2       1       1       3       2       1
       1       3       2       1       1       3       2       1       1       3
       2       1       1       3       2       1       1       3       2       1
       1       3       2       1       1       3       2       1       1       3
       2       1       1       3       2       1       1       3       2       1
       1       3       2       1       1       3       2       1       1       3
       2       1       1       3       2       1       1       3       2       1
       1       3       2       1       1       3       2       1       1       3
       2       1       1       3       2       1       1       3       2       1
       1       3       2       1       1       3       2       1       1       3
       2       1       1       3       2       1       1       3       2       1
       1       3       2       1       1       3       2       1       1       3
       2       1       1       3       2       1       1       3       2       1
       1       3       2       1       1       3       2       1       1       3
       2       1       1       3       2       1       1       3       2       1
       1       3       2       1       1       3       2       1       1       3
       2       1       1       3       2       1       1       3       2       1
       1       3       2       1       1       3       2       1       1       3
       2       1       1       3       2       1       1       3       2       1
       1       3       2       1       1       3       2       1       1       3
       2       1       1       3       2       1       1       3       2       1
       1       3       2       1       1       3       2       1       1       3
       2       1       1       3       2       1       1       3       2       1
       1       3       2       1       1       3       2       1       1       3
       2       1       1       3       2       1       1       3       2       1
       1       3       2       1       1       3       2       1       1       3
       2       1       1       3       2       1       1       3       2       1
       1       3       2       1       1       3       2       1       1       3
       2       1       1       3       2       1       1       3       2       1
       1       3       2       1       1       3       2       1       1       3
       2       1       1       3       2       1       1       3       2       1
       1       3       2       1       1       3       2       1       1       3
       2       1       1       3       2       1       1       3       2       1
       1       3       2       1       1       3       2       1       1       3
       2       1       1       3       2       1       1       3       2       1
       1       3       2       1       1       3       2       1       1       3
       2       1       1       3       2       1       1       3       2       1
       1       3       2       1       1       3       2       1       1       3
       2       1       1       3       2       1       1       3       2       1
       1       3       2       1       1       3       2       1       1       3
       2       1       1       3       2       1       1       3       2       1
       1       3       2       1       1       3       2       1       1       3
       2       1       1       3       2       1       1       3       2       1
       1       3       2       1       1       3       2       1       1       3
       2       1       1       3       2       1       1       3       2       1
       1       3       2       1       1       3       2       1       1       3
       2       1       1       3       2       1       1       3       2       1
       1       3       2       1       1       3       2       1       1       3
       2       1       1       3       2       1       1       3       2       1
       1       3       2       1       1       3       2       1       1       3
       2       1       1       3       2       1       1       3       2       1
       1       3       2       1       1       3       2       1       1       3
       2       1       1       3       2       1       1       3       2       1
       1       3       2       1       1       3       2       1       1       3
       2       1       1       3       2       1       1       3       2       1
       1       3       2       1       1       3       2       1       1       3
       2       1       1       3       2       1       1       3       2       1
       1       3       2       1       1       3       2       1       1       3
       2       1       1       3       2       1       1       3       2       1
       1       3       2       1       1       3       2       1       1       3
       2       1       1       3       2       1       1       3       2       1
       1       3       2       1       1       3       2       1       1       3
       2       1       1       3       2       1       1       3       2       1
       1       3       2       1       1       3       2       1       1       3
       2       1       1       3       2       1       1       3       2       1
       1       3       2       1       1       3       2       1       1       3
       2       1       1       3       2       1       1       3       2       1
       1       3       2       1       1       3       2       1       1       3
       2       1       1       3       2       1       1       3       2       1
       1       3       2       1       1       3       2       1       1       3
       2       1       1       3       2       1       1       3       2       1
       1       3       2       1       1       3       2       1       1       3
       2       1       1       3       2       1       1       3       2       1
       1       3       2       1       1       3       2       1       1       3
       2       1       1       3       2       1       1       3       2       1
       1       3       2       1       1       3       2       1       1       3
       2       1       1       3       2       1       1       3       2       1
       1       3       2       1       1       3       2       1       1       3
       2       1       1       3       2       1       1       3       2       1
       1       3       2       1       1       3       2       1       1       3
       2       1       1       3       2       1       1       3       2       1
       1       3       2       1       1       3       2       1       1       3
       2       1       1       3       2       1       1       3       2       1
       1       3       2       1       1       3       2       1       1       3
       2       1       1       3       2       1       1       3       2       1
       1       3       2       1       1       3       2       1       1       3
       2       1       1       3       2       1       1       3       2       1
       1       3       2       1       1       3       2       1       1       3
       2       1       1       3       2       1       1       3       2       1
       1       3       2       1       1       3       2       1       1       3
       2       1       1       3       2       1       1       3       2       1
       1       3       2       1       1       3       2       1       1       3
       2       1       1       3       2       1       1       3       2       1
       1       3       2       1       1       3       2       1       1       3
       2       1       1       3       2       1       1       3       2       1
       1       3       2       1       1       3       2       1       1       3
       2       1       1       3       2       1       1       3       2       1
       1       3       2       1       1       3       2       1       1       3
       2       1       1       3       2       1       1       3       2       1
       1       3       2       1       1       3       2       1       1       3
       2       1       1       3       2       1       1       3       2       1
       1       3       2       1       1       3       2       1       1       3
       2       1       1       3       2       1       1       3       2       1
       1       3       2       1       1       3       2       1       1       3
       2       1       1       3       2       1       1       3       2       1
       1       3       2       1       1       3       2       1       1       3
       2       1       1       3       2       1       1       3       2       1
       1       3       2       1       1       3       2       1       1       3
       2       1       1       3       2       1       1       3       2       1
       1       3       2       1       1       3       2       1       1       3
       2       1       1       3       2       1       1       3       2       1
       1       3       2       1       1       3       2       1       1       3
       2       1       1       3       2       1       1       3       2       1
       1       3       2       1       1       3       2       1       1       3
       2       1       1       3       2       1       1       3       2       1
       1       3       2       1       1       3       2       1       1       3
       2       1       1       3       2       1       1       3       2       1
       1       3       2       1       1       3       2       1       1       3
       2       1       1       3       2       1       1       3       2       1
       1       3       2       1       1       3       2       1       1       3
       2       1       1       3       2       1       1       3       2       1
       1       3       2       1       1       3       2       1       1       3
       2       1       1       3       2       1       1       3       2       1
       1       3       2       1       1       3       2       1       1       3
       2       1       1       3       2       1       1       3       2       1
       1       3       2       1       1       3       2       1       1       3
       2       1       1       3       2       1       1       3       2       1
       1       3       2       1       1       3       2       1       1       3
       2       1       1       3       2       1       1       3       2       1
       1       3       2       1       1       3       2       1       1       3
       2       1       1       3       2       1       1       3       2       1
       1       3       2       1       1       3       2       1       1       3
       2       1       1       3       2       1       1       3       2       1
       1       3       2       1       1       3       2       1       1       3
       2       1       1       3       2       1       1       3       2       1
       1       3       2       1       1       3       2       1       1       3
       2       1       1       3       2       1       1       3       2       1
       1       3       2       1       1       3       2       1       1       3
       2       1       1       3       2       1       1       3       2       1
       1       3       2       1       1       3       2       1       1       3
       2       1       1       3       2       1       1       3       2       1
       1       3       2       1       1       3       2       1       1       3
       2       1       1       3       2       1       1       3       2       1
       1       3       2       1       1       3       2       1       1       3
       2       1       1       3       2       1       1       3       2       1
       1       3       2       1       1       3       2       1       1       3
       2       1       1       3       2       1       1       3       2       1
       1       3       2       1       1       3       2       1       1       3
       2       1       1       3       2       1       1       3       2       1
       1       3       2       1       1       3       2       1       1       3
       2       1       1       3       2       1       1       3       2       1
       1       3       2       1       1       3       2       1       1       3
       2       1       1       3       2       1       1       3       2       1
       1       3       2       1       1       3       2       1       1       3
       2       1       1       3       2       1       1       3       2       1
       1       3       2       1       1       3       2       1       1       3
       2       1       1       3       2       1       1       3       2       1
       1       3       2       1       1       3       2       1       1       3
       2       1       1       3       2       1       1       3       2       1
       1       3       2       1       1       3       2       1       1       3
       2       1       1       3       2       1       1       3       2       1
       1       3       2       1       1       3       2       1       1       3
       2       1       1       3       2       1       1       3       2       1
       1       3       2       1       1       3       2       1       1       3
       2       1       1       3       2       1       1       3       2       1
       1       3       2       1       1       3       2       1       1       3
       2       1       1       3       2       1       1       3       2       1
       1       3       2       1       1       3       2       1       1       3
       2       1       1       3       2       1       1       3       2       1
       1       3       2       1       1       3       2       1       1       3
       2       1       1       3       2       1       1       3       2       1
       1       3       2       1       1       3       2       1       1       3
       2       1       1       3       2       1       1       3       2       1
       1       3       2       1       1       3       2       1       1       3
       2       1       1       3       2       1       1       3       2       1
       1       3       2       1       1       3       2       1       1       3
       2       1       1       3       2       1       1       3       2       1
       1       3       2       1       1       3       2       1       1       3
       2       1       1       3       2       1       1       3       2       1
       1       3       2       1       1       3       2       1       1       3
       2       1       1       3       2       1       1       3       2       1
       1       3       2       1       1       3       2       1       1       3
       2       1       1       3       2       1       1       3       2       1
       1       3       2       1       1       3       2       1       1       3
       2       1       1       3       2       1       1       3       2       1
       1       3       2       1       1       3       2       1       1       3
       2       1       1       3       2       1       1       3       2       1
       1       3       2       1       1       3       2       1       1       3
       2       1       1       3       2       1       1       3       2       1
       1       3       2       1       1       3       2       1       1       3
       2       1       1       3       2       1       1       3       2       1
       1       3       2       1       1       3       2       1       1       3
       2       1       1       3       2       1       1       3       2       1
       1       3       2       1       1       3       2       1       1       3
       2       1       1       3       2       1       1       3       2       1
       1       3       2       1       1       3       2       1       1       3
       2       1       1       3       2       1       1       3       2       1
       1       3       2       1       1       3       2       1       1       3
       2       1       1       3       2       1       1       3       2       1
       1       3       2       1       1       3       2       1       1       3
       2       1       1       3       2       1       1       3       2       1
       1       3       2       1       1       3       2       1       1       3
       2       1       1       3       2       1       1       3       2       1
       1       3       2       1       1       3       2       1       1       3
       2       1       1       3       2       1       1       3       2       1
       1       3       2       1       1       3       2       1       1       3
       2       1       1       3       2       1       1       3       2       1
       1       3       2       1       1       3       2       1       1       3
       2       1       1       3       2       1       1       3       2       1
       1       3       2       1       1       3       2       1       1       3
       2       1       1       3       2       1       1       3       2       1
       1       3       2       1       1       3       2       1       1       3
       2       1       1       3       2       1       1       3       2       1
       1       3       2       1       1       3       2       1       1       3
       2       1       1       3       2       1       1       3       2       1
       1       3       2       1       1       3       2       1       1       3
       2       1       1       3       2       1       1       3       2       1
       1       3       2       1       1       3       2       1       1       3
       2       1       1       3       2       1       1       3       2       1
       1       3       2       1       1       3       2       1       1       3
       2       1       1       3       2       1       1       3       2       1
       1       3       2       1       1       3       2       1       1       3
       2       1       1       3       2       1       1       3       2       1
       1       3       2       1       1       3       2       1       1       3
       2       1       1       3       2       1       1       3       2       1
       1       3       2       1       1       3       2       1       1       3
       2       1       1       3       2       1       1       3       2       1
       1       3       2       1       1       3       2       1       1       3
       2       1       1       3       2       1       1       3       2       1
       1       3       2       1       1       3       2       1       1       3
       2       1       1       3       2       1       1       3       2       1
       1       3       2       1       1       3       2       1       1       3
       2       1       1       3       2       1       1       3       2       1
       1       3       2       1       1       3       2       1       1       3
       2       1       1       3       2       1       1       3       2       1
       1       3       2       1       1       3       2       1       1       3
       2       1       1       3       2       1       1       3       2       1
       1       3       2       1       1       3       2       1       1       3
       2       1       1       3       2       1       1       3       2       1
       1       3       2       1       1       3       2       1       1       3
       2       1       1       3       2       1       1       3       2       1
       1       3       2       1       1       3       2       1       1       3
       2       1       1       3       2       1       1       3       2       1
       1       3       2       1       1       3       2       1       1       3
       2       1       1       3       2       1       1       3       2       1
       1       3       2       1       1       3       2       1       1       3
       2       1       1       3       2       1       1       3       2       1
       1       3       2       1       1       3       2       1       1       3
       2       1       1       3       2       1       1       3       2       1
       1       3       2       1       1       3       2       1       1       3
       2       1       1       3       2       1       1       3       2       1
       1       3       2       1       1       3       2       1       1       3
       2       1       1       3       2       1       1       3       2       1
       1       3       2       1       1       3       2       1       1       3
       2       1       1       3       2       1       1       3       2       1
       1       3       2       1       1       3       2       1       1       3
       2       1       1       3       2       1       1       3       2       1
       1       3       2       1       1       3       2       1       1       3
       2       1       1       3       2       1       1       3       2       1
       1       3       2       1       1       3       2       1       1       3
       2       1       1       3       2       1       1       3       2       1
       1       3       2       1       1       3       2       1       1       3
       2       1       1       3       2       1       1       3       2       1
       1       3       2       1       1       3       2       1       1       3
       2       1       1       3       2       1       1       3       2       1
       1       3       2       1       1       3       2       1       1       3
       2       1       1       3       2       1       1       3       2       1
       1       3       2       1       1       3       2       1       1       3
       2       1       1       3       2       1       1       3       2       1
       1       3       2       1       1       3       2       1       1       3
       2       1       1       3       2       1       1       3       2       1
       1       3       2       1       1       3       2       1       1       3
       2       1       1       3       2       1       1       3       2       1
       1       3       2       1       1       3       2       1       1       3
       2       1       1       3       2       1       1       3       2       1
       1       3       2       1       1       3       2       1       1       3
       2       1       1       3       2       1       1       3       2       1
       1       3       2       1       1       3       2       1       1       3
       2       1       1       3       2       1       1       3       2       1
       1       3       2       1       1       3       2       1       1       3
       2       1       1       3       2       1       1       3       2       1
       1       3       2       1       1       3       2       1       1       3
       2       1       1       3       2       1       1       3       2       1
       1       3       2       1       1       3       2       1       1       3
       2       1       1       3       2       1       1       3       2       1
       1       3       2       1       1       3       2       1       1       3
       2       1       1       3       2       1       1       3       2       1
       1       3       2       1       1       3       2       1       1       3
       2       1       1       3       2       1       1       3       2       1
       1       3       2       1       1       3       2       1       1       3
       2       1       1       3       2       1       1       3       2       1
       1       3       2       1       1       3       2       1       1       3
       2       1       1       3       2       1       1       3       2       1
       1       3       2       1       1       3       2       1       1       3
       2       1       1       3       2       1       1       3       2       1
       1       3       2       1       1       3       2       1       1       3
       2       1       1       3       2       1       1       3       2       1
       1       3       2       1       1       3       2       1       1       3
       2       1       1       3       2       1       1       3       2       1
       1       3       2       1       1       3       2       1       1       3
       2       1       1       3       2       1       1       3       2       1
       1       3       2       1       1       3       2       1       1       3
       2       1       1       3       2       1       1       3       2       1
       1       3       2       1       1       3       2       1       1       3
       2       1       1       3       2       1       1       3       2       1
       1       3       2       1       1       3       2       1       1       3
       2       1       1       3       2       1       1       3       2       1
       1       3       2       1       1       3       2       1       1       3
       2       1       1       3       2       1       1       3       2       1
       1       3       2       1       1       3       2       1       1       3
       2       1       1       3       2       1       1       3       2       1
       1       3       2       1       1       3       2       1       1       3
       2       1       1       3       2       1       1       3       2       1
       1       3       2       1       1       3       2       1       1       3
       2       1       1       3       2       1       1       3       2       1
       1       3       2       1       1       3       2       1       1       3
       2       1       1       3       2       1       1       3       2       1
       1       3       2       1       1       3       2       1       1       3
       2       1       1       3       2       1       1       3       2       1
       1       3       2       1       1       3       2       1       1       3
       2       1       1       3       2       1       1       3       2       1
       1       3       2       1       1       3       2       1       1       3
       2       1       1       3       2       1       1       3       2       1
       1       3       2       1       1       3       2       1       1       3
       2       1       1       3       2       1       1       3       2       1
       1       3       2       1       1       3       2       1       1       3
       2       1       1       3       2       1       1       3       2       1
       1       3       2       1       1       3       2       1       1       3
       2       1       1       3       2       1       1       3       2       1
       1       3       2       1       1       3       2       1       1       3
       2       1       1       3       2       1       1       3       2       1
       1       3       2       1       1       3       2       1       1       3
       2       1       1       3       2       1       1       3       2       1
       1       3       2       1       1       3       2       1       1       3
       2       1       1       3       2       1       1       3       2       1
       1       3       2       1       1       3       2       1       1       3
       2       1       1       3       2       1       1       3       2       1
       1       3       2       1       1       3       2       1       1       3
       2       1       1       3       2       1       1       3       2       1
       1       3       2       1       1       3       2       1       1       3
       2       1       1       3       2       1       1       3       2       1
       1       3       2       1       1       3       2       1       1       3
       2       1       1       3       2       1       1       3       2       1
       1       3       2       1       1       3       2       1       1       3
       2       1       1       3       2       1       1       3       2       1
       1       3       2       1       1       3       2       1       1       3
       2       1       1       3       2       1       1       3       2       1
       1       3       2       1       1       3       2       1       1       3
       2       1       1       3       2       1       1       3       2       1
       1       3       2       1       1       3       2       1       1       3
       2       1       1       3       2       1       1       3       2       1
       1       3       2       1       1       3       2       1       1       3
       2       1       1       3       2       1       1       3       2       1
       1       3       2       1       1       3       2       1       1       3
       2       1       1       3       2       1       1       3       2       1
       1       3       2       1       1       3       2       1       1       3
       2       1       1       3       2       1       1       3       2       1
       1       3       2       1       1       3       2       1       1       3
       2       1       1       3       2       1       1       3       2       1
       1       3       2       1       1       3       2       1       1       3
       2       1       1       3       2       1       1       3       2       1
       1       3       2       1       1       3       2       1       1       3
       2       1       1       3       2       1       1       3       2       1
       1       3       2       1       1       3       2       1       1       3
       2       1       1       3       2       1       1       3       2       1
       1       3       2       1       1       3       2       1       1       3
       2       1       1       3       2       1       1       3       2       1
       1       3       2       1       1       3       2       1       1       3
       2       1       1       3       2       1       1       3       2       1
       1       3       2       1       1       3       2       1       1       3
       2       1       1       3       2       1       1       3       2       1
       1       3       2       1       1       3       2       1       1       3
       2       1       1       3       2       1       1       3       2       1
       1       3       2       1       1       3       2       1       1       3
       2       1       1       3       2       1       1       3       2       1
       1       3       2       1       1       3       2       1       1       3
       2       1       1       3       2       1       1       3       2       1
       1       3       2       1       1       3       2       1       1       3
       2       1       1       3       2       1       1       3       2       1
       1       3       2       1       1       3       2       1       1       3
       2       1       1       3       2       1       1       3       2       1
       1       3       2       1       1       3       2       1       1       3
       2       1       1       3       2       1       1       3       2       1
       1       3       2       1       1       3       2       1       1       3
       2       1       1       3       2       1       1       3       2       1
       1       3       2       1       1       3       2       1       1       3
       2       1       1       3       2       1       1       3       2       1
       1       3       2       1       1       3       2       1       1       3
       2       1       1       3       2       1       1       3       2       1
       1       3       2       1       1       3       2       1       1       3
       2       1       1       3       2       1       1       3       2       1
       1       3       2       1       1       3       2       1       1       3
       2       1       1       3       2       1       1       3       2       1
       1       3       2       1       1       3       2       1       1       3
       2       1       1       3       2       1       1       3       2       1
       1       3       2       1       1       3       2       1       1       3
       2       1       1       3       2       1       1       3       2       1
       1       3       2       1       1       3       2       1       1       3
       2       1       1       3       2       1       1       3       2       1
       1       3       2       1       1       3       2       1       1       3
       2       1       1       3       2       1       1       3       2       1
       1       3       2       1       1       3       2       1       1       3
       2       1       1       3       2       1       1       3       2       1
       1       3       2       1       1       3       2       1       1       3
       2       1       1       3       2       1       1       3       2       1
       1       3       2       1       1       3       2       1       1       3
       2       1       1       3       2       1       1       3       2       1
       1       3       2       1       1       3       2       1       1       3
       2       1       1       3       2       1       1       3       2       1
       1       3       2       1       1       3       2       1       1       3
       2       1       1       3       2       1       1       3       2       1
       1       3       2       1       1       3       2       1       1       3
       2       1       1       3       2       1       1       3       2       1
       1       3       2       1       1       3       2       1       1       3
       2       1       1       3       2       1       1       3       2       1
       1       3       2       1       1       3       2       1       1       3
       2       1       1       3       2       1       1       3       2       1
       1       3       2       1       1       3       2       1       1       3
       2       1       1       3       2       1       1       3       2       1
       1       3       2       1       1       3       2       1       1       3
       2       1       1       3       2       1       1       3       2       1
       1       3       2       1       1       3       2       1       1       3
       2       1       1       3       2       1       1       3       2       1
       1       3       2       1       1       3       2       1       1       3
       2       1       1       3       2       1       1       3       2       1
       1       3       2       1       1       3       2       1       1       3
       2       1       1       3       2       1       1       3       2       1
       1       3       2       1       1       3       2       1       1       3
       2       1       1       3       2       1       1       3       2       1
       1       3       2       1       1       3       2       1       1       3
       2       1       1       3       2       1       1       3       2       1
       1       3       2       1       1       3       2       1       1       3
       2       1       1       3       2       1       1       3       2       1
       1       3       2       1       1       3       2       1       1       3
       2       1       1       3       2       1       1       3       2       1
       1       3       2       1       1       3       2       1       1       3
       2       1       1       3       2       1       1       3       2       1
       1       3       2       1       1       3       2       1       1       3
       2       1       1       3       2       1       1       3       2       1
       1       3       2       1       1       3       2       1       1       3
       2       1       1       3       2       1       1       3       2       1
       1       3       2       1       1       3       2       1       1       3
       2       1       1       3       2       1       1       3       2       1
       1       3       2       1       1       3       2       1       1       3
       2       1       1       3       2       1       1       3       2       1
       1       3       2       1       1       3       2       1       1       3
       2       1       1       3       2       1       1       3       2       1
       1       3       2       1       1       3       2       1       1       3
       2       1       1       3       2       1       1       3       2       1
       1       3       2       1       1       3       2       1       1       3
       2       1       1       3       2       1       1       3       2       1
       1       3       2       1       1       3       2       1       1       3
       2       1       1       3       2       1       1       3       2       1
       1       3       2       1       1       3       2       1       1       3
       2       1       1       3       2       1       1       3       2       1
       1       3       2       1       1       3       2       1       1       3
       2       1       1       3       2       1       1       3       2       1
       1       3       2       1       1       3       2       1       1       3
       2       1       1       3       2       1       1       3       2       1
       1       3       2       1       1       3       2       1       1       3
       2       1       1       3       2       1       1       3       2       1
       1       3       2       1       1       3       2       1       1       3
       2       1       1       3       2       1       1       3       2       1
       1       3       2       1       1       3       2       1       1       3
       2       1       1       3       2       1       1       3       2       1
       1       3       2       1       1       3       2       1       1       3
       2       1       1       3       2       1       1       3       2       1
       1       3       2       1       1       3       2       1       1       3
       2       1       1       3       2       1       1       3       2       1
       1       3       2       1       1       3       2       1       1       3
       2       1       1       3       2       1       1       3       2       1
       1       3       2       1       1       3       2       1       1       3
       2       1       1       3       2       1       1       3       2       1
       1       3       2       1       1       3       2       1       1       3
       2       1       1       3       2       1       1       3       2       1
       1       3       2       1       1       3       2       1       1       3
       2       1       1       3       2       1       1       3       2       1
       1       3       2       1       1       3       2       1       1       3
       2       1       1       3       2       1       1       3       2       1
       1       3       2       1       1       3       2       1       1       3
       2       1       1       3       2       1       1       3       2       1
       1       3       2       1       1       3       2       1       1       3
       2       1       1       3       2       1       1       3       2       1
       1       3       2       1       1       3       2       1       1       3
       2       1       1       3       2       1       1       3       2       1
       1       3       2       1       1       3       2       1       1       3
       2       1       1       3       2       1       1       3       2       1
       1       3       2       1       1       3       2       1       1       3
       2       1       1       3       2       1       1       3       2       1
       1       3       2       1       1       3       2       1       1       3
       2       1       1       3       2       1       1       3       2       1
       1       3       2       1       1       3       2       1       1       3
       2       1       1       3       2       1       1       3       2       1
       1       3       2       1       1       3       2       1       1       3
       2       1       1       3       2       1       1       3       2       1
       1       3       2       1       1       3       2       1       1       3
       2       1       1       3       2       1       1       3       2       1
       1       3       2       1       1       3       2       1       1       3
       2       1       1       3       2       1       1       3       2       1
       1       3       2       1       1       3       2       1       1       3
       2       1       1       3       2       1       1       3       2       1
       1       3       2       1       1       3       2       1       1       3
       2       1       1       3       2       1       1       3       2       1
       1       3       2       1       1       3       2       1       1       3
       2       1       1       3       2       1       1       3       2       1
       1       3       2       1       1       3       2       1       1       3
       2       1       1       3       2       1       1       3       2       1
       1       3       2       1       1       3       2       1       1       3
       2       1       1       3       2       1       1       3       2       1
       1       3       2       1       1       3       2       1       1       3
       2       1       1       3       2       1       1       3       2       1
       1       3       2       1       1       3       2       1       1       3
       2       1       1       3       2       1       1       3       2       1
       1       3       2       1       1       3       2       1       1       3
       2       1       1       3       2       1       1       3       2       1
       1       3       2       1       1       3       2       1       1       3
       2       1       1       3       2       1       1       3       2       1
       1       3       2       1       1       3       2       1       1       3
       2       1       1       3       2       1       1       3       2       1
       1       3       2       1       1       3       2       1       1       3
       2       1       1       3       2       1       1       3       2       1
       1       3       2       1       1       3       2       1       1       3
       2       1       1       3       2       1       1       3       2       1
       1       3       2       1       1       3       2       1       1       3
       2       1       1       3       2       1       1       3       2       1
       1       3       2       1       1       3       2       1       1       3
       2       1       1       3       2       1       1       3       2       1
       1       3       2       1       1       3       2       1       1       3
       2       1       1       3       2       1       1       3       2       1
       1       3       2       1       1       3       2       1       1       3
       2       1       1       3       2       1       1       3       2       1
       1       3       2       1       1       3       2       1       1       3
       2       1       1       3       2       1       1       3       2       1
       1       3       2       1       1       3       2       1       1       3
       2       1       1       3       2       1       1       3       2       1
       1       3       2       1       1       3       2       1       1       3
       2       1       1       3       2       1       1       3       2       1
       1       3       2       1       1       3       2       1       1       3
       2       1       1       3       2       1       1       3       2       1
       1       3       2       1       1       3       2       1       1       3
       2       1       1       3       2       1       1       3       2       1
       1       3       2       1       1       3       2       1       1       3
       2       1       1       3       2       1       1       3       2       1
       1       3       2       1       1       3       2       1       1       3
       2       1       1       3       2       1       1       3       2       1
       1       3       2       1       1       3       2       1       1       3
       2       1       1       3       2       1       1       3       2       1
       1       3       2       1       1       3       2       1       1       3
       2       1       1       3       2       1       1       3       2       1
       1       3       2       1       1       3       2       1       1       3
       2       1       1       3       2       1       1       3       2       1
       1       3       2       1       1       3       2       1       1       3
       2       1       1       3       2       1       1       3       2       1
       1       3       2       1       1       3       2       1       1       3
       2       1       1       3       2       1       1       3       2       1
       1       3       2       1       1       3       2       1       1       3
       2       1       1       3       2       1       1       3       2       1
       1       3       2       1       1       3       2       1       1       3
       2       1       1       3       2       1       1       3       2       1
       1       3       2       1       1       3       2       1       1       3
       2       1       1       3       2       1       1       3       2       1
       1       3       2       1       1       3       2       1       1       3
       2       1       1       3       2       1       1       3       2       1
       1       3       2       1       1       3       2       1       1       3
       2       1       1       3       2       1       1       3       2       1
       1       3       2       1       1       3       2       1       1       3
       2       1       1       3       2       1       1       3       2       1
       1       3       2       1       1       3       2       1       1       3
       2       1       1       3       2       1       1       3       2       1
       1       3       2       1       1       3       2       1       1       3
       2       1       1       3       2       1       1       3       2       1
       1       3       2       1       1       3       2       1       1       3
       2       1       1       3       2       1       1       3       2       1
       1       3       2       1       1       3       2       1       1       3
       2       1       1       3       2       1       1       3       2       1
       1       3       2       1       1       3       2       1       1       3
       2       1       1       3       2       1       1       3       2       1
       1       3       2       1       1       3       2       1       1       3
       2       1       1       3       2       1       1       3       2       1
       1       3       2       1       1       3       2       1       1       3
       2       1       1       3       2       1       1       3       2       1
       1       3       2       1       1       3       2       1       1       3
       2       1       1       3       2       1       1       3       2       1
       1       3       2       1       1       3       2       1       1       3
       2       1       1       3       2       1       1       3       2       1
       1       3       2       1       1       3       2       1       1       3
       2       1       1       3       2       1       1       3       2       1
       1       3       2       1       1       3       2       1       1       3
       2       1       1       3       2       1       1       3       2       1
       1       3       2       1       1       3       2       1       1       3
       2       1       1       3       2       1       1       3       2       1
       1       3       2       1       1       3       2       1       1       3
       2       1       1       3       2       1       1       3       2       1
       1       3       2       1       1       3       2       1       1       3
       2       1       1       3       2       1       1       3       2       1
       1       3       2       1       1       3       2       1       1       3
       2       1       1       3       2       1       1       3       2       1
       1       3       2       1       1       3       2       1       1       3
       2       1       1       3       2       1       1       3       2       1
       1       3       2       1       1       3       2       1       1       3
       2       1       1       3       2       1       1       3       2       1
       1       3       2       1       1       3       2       1       1       3
       2       1       1       3       2       1       1       3       2       1
       1       3       2       1       1       3       2       1       1       3
       2       1       1       3       2       1       1       3       2       1
       1       3       2       1       1       3       2       1       1       3
       2       1       1       3       2       1       1       3       2       1
       1       3       2       1       1       3       2       1       1       3
       2       1       1       3       2       1       1       3       2       1
       1       3       2       1       1       3       2       1       1       3
       2       1       1       3       2       1       1       3       2       1
       1       3       2       1       1       3       2       1       1       3
       2       1       1       3       2       1       1       3       2       1
       1       3       2       1       1       3       2       1       1       3
       2       1       1       3       2       1       1       3       2       1
       1       3       2       1       1       3       2       1       1       3
       2       1       1       3       2       1       1       3       2       1
       1       3       2       1       1       3       2       1       1       3
       2       1       1       3       2       1       1       3       2       1
       1       3       2       1       1       3       2       1       1       3
       2       1       1       3       2       1       1       3       2       1
       1       3       2       1       1       3       2       1       1       3
       2       1       1       3       2       1       1       3       2       1
       1       3       2       1       1       3       2       1       1       3
       2       1       1       3       2       1       1       3       2       1
       1       3       2       1       1       3       2       1       1       3
       2       1       1       3       2       1       1       3       2       1
       1       3       2       1       1       3       2       1       1       3
       2       1       1       3       2       1       1       3       2       1
       1       3       2       1       1       3       2       1       1       3
       2       1       1       3       2       1       1       3       2       1
       1       3       2       1       1       3       2       1       1       3
       2       1       1       3       2       1       1       3       2       1
       1       3       2       1       1       3       2       1       1       3
       2       1       1       3       2       1       1       3       2       1
       1       3       2       1       1       3       2       1       1       3
       2       1       1       3       2       1       1       3       2       1
       1       3       2       1       1       3       2       1       1       3
       2       1       1       3       2       1       1       3       2       1
       1       3       2       1       1       3       2       1       1       3
       2       1       1       3       2       1       1       3       2       1
       1       3       2       1       1       3       2       1       1       3
       2       1       1       3       2       1       1       3       2       1
       1       3       2       1       1       3       2       1       1       3
       2       1       1       3       2       1       1       3       2       1
       1       3       2       1       1       3       2       1       1       3
       2       1       1       3       2       1       1       3       2       1
       1       3       2       1       1       3       2       1       1       3
       2       1       1       3       2       1       1       3       2       1
       1       3       2       1       1       3       2       1       1       3
       2       1       1       3       2       1       1       3       2       1
       1       3       2       1       1       3       2       1       1       3
       2       1       1       3       2       1       1       3       2       1
       1       3       2       1       1       3       2       1       1       3
       2       1       1       3       2       1       1       3       2       1
       1       3       2       1       1       3       2       1       1       3
       2       1       1       3       2       1       1       3       2       1
       1       3       2       1       1       3       2       1       1       3
       2       1       1       3       2       1       1       3       2       1
       1       3       2       1       1       3       2       1       1       3
       2       1       1       3       2       1       1       3       2       1
       1       3       2       1       1       3       2       1       1       3
       2       1       1       3       2       1       1       3       2       1
       1       3       2       1       1       3       2       1       1       3
       2       1       1       3       2       1       1       3       2       1
       1       3       2       1       1       3       2       1       1       3
       2       1       1       3       2       1       1       3       2       1
       1       3       2       1       1       3       2       1       1       3
       2       1       1       3       2       1       1       3       2       1
       1       3       2       1       1       3       2       1       1       3
       2       1       1       3       2       1       1       3       2       1
       1       3       2       1       1       3       2       1       1       3
       2       1       1       3       2       1       1       3       2       1
       1       3       2       1       1       3       2       1       1       3
       2       1       1       3       2       1       1       3       2       1
       1       3       2       1       1       3       2       1       1       3
       2       1       1       3       2       1       1       3       2       1
       1       3       2       1       1       3       2       1       1       3
       2       1       1       3       2       1       1       3       2       1
       1       3       2       1       1       3       2       1       1       3
       2       1       1       3       2       1       1       3       2       1
       1       3       2       1       1       3       2       1       1       3
       2       1       1       3       2       1       1       3       2       1
       1       3       2       1       1       3       2       1       1       3
       2       1       1       3       2       1       1       3       2       1
       1       3       2       1       1       3       2       1       1       3
       2       1       1       3       2       1       1       3       2       1
       1       3       2       1       1       3       2       1       1       3
       2       1       1       3       2       1       1       3       2       1
       1       3       2       1       1       3       2       1       1       3
       2       1       1       3       2       1       1       3       2       1
       1       3       2       1       1       3       2       1       1       3
       2       1       1       3       2       1       1       3       2       1
       1       3       2       1       1       3       2       1       1       3
       2       1       1       3       2       1       1       3       2       1
       1       3       2       1       1       3       2       1       1       3
       2       1       1       3       2       1       1       3       2       1
       1       3       2       1       1       3       2       1       1       3
       2       1       1       3       2       1       1       3       2       1
       1       3       2       1       1       3       2       1       1       3
       2       1       1       3       2       1       1       3       2       1
       1       3       2       1       1       3       2       1       1       3
       2       1       1       3       2       1       1       3       2       1
       1       3       2       1       1       3       2       1       1       3
       2       1       1       3       2       1       1       3       2       1
       1       3       2       1       1       3       2       1       1       3
       2       1       1       3       2       1       1       3       2       1
       1       3       2       1       1       3       2       1       1       3
       2       1       1       3       2       1       1       3       2       1
       1       3       2       1       1       3       2       1       1       3
       2       1       1       3       2       1       1       3       2       1
       1       3       2       1       1       3       2       1       1       3
       2       1       1       3       2       1       1       3       2       1
       1       3       2       1       1       3       2       1       1       3
       2       1       1       3       2       1       1       3       2       1
       1       3       2       1       1       3       2       1       1       3
       2       1       1       3       2       1       1       3       2       1
       1       3       2       1       1       3       2       1       1       3
       2       1       1       3       2       1       1       3       2       1
       1       3       2       1       1       3       2       1       1       3
       2       1       1       3       2       1       1       3       2       1
       1       3       2       1       1       3       2       1       1       3
       2       1       1       3       2       1       1       3       2       1
       1       3       2       1       1       3       2       1       1       3
       2       1       1       3       2       1       1       3       2       1
       1       3       2       1       1       3       2       1       1       3
       2       1       1       3       2       1       1       3       2       1
       1       3       2       1       1       3       2       1       1       3
       2       1       1       3       2       1       1       3       2       1
       1       3       2       1       1       3       2       1       1       3
       2       1       1       3       2       1       1       3       2       1
       1       3       2       1       1       3       2       1       1       3
       2       1       1       3       2       1       1       3       2       1
       1       3       2       1       1       3       2       1       1       3
       2       1       1       3       2       1       1       3       2       1
       1       3       2       1       1       3       2       1       1       3
       2       1       1       3       2       1       1       3       2       1
       1       3       2       1       1       3       2       1       1       3
       2       1       1       3       2       1       1       3       2       1
       1       3       2       1       1       3       2       1       1       3
       2       1       1       3       2       1       1       3       2       1
       1       3       2       1       1       3       2       1       1       3
       2       1       1       3       2       1       1       3       2       1
       1       3       2       1       1       3       2       1       1       3
       2       1       1       3       2       1       1       3       2       1
       1       3       2       1       1       3       2       1       1       3
       2       1       1       3       2       1       1       3       2       1
       1       3       2       1       1       3       2       1       1       3
       2       1       1       3       2       1       1       3       2       1
       1       3       2       1       1       3       2       1       1       3
       2       1       1       3       2       1       1       3       2       1
       1       3       2       1       1       3       2       1       1       3
       2       1       1       3       2       1       1       3       2       1
       1       3       2       1       1       3       2       1       1       3
       2       1       1       3       2       1       1       3       2       1
       1       3       2       1       1       3       2       1       1       3
       2       1       1       3       2       1       1       3       2       1
       1       3       2       1       1       3       2       1       1       3
       2       1       1       3       2       1       1       3       2       1
       1       3       2       1       1       3       2       1       1       3
       2       1       1       3       2       1       1       3       2       1
       1       3       2       1       1       3       2       1       1       3
       2       1       1       3       2       1       1       3       2       1
       1       3       2       1       1       3       2       1       1       3
       2       1       1       3       2       1       1       3       2       1
       1       3       2       1       1       3       2       1       1       3
       2       1       1       3       2       1       1       3       2       1
       1       3       2       1       1       3       2       1       1       3
       2       1       1       3       2       1       1       3       2       1
       1       3       2       1       1       3       2       1       1       3
       2       1       1       3       2       1       1       3       2       1
       1       3       2       1       1       3       2       1       1       3
       2       1       1       3       2       1       1       3       2       1
       1       3       2       1       1       3       2       1       1       3
       2       1       1       3       2       1       1       3       2       1
       1       3       2       1       1       3       2       1       1       3
       2       1       1       3       2       1       1       3       2       1
       1       3       2       1       1       3       2       1       1       3
       2       1       1       3       2       1       1       3       2       1
       1       3       2       1       1       3       2       1       1       3
       2       1       1       3       2       1       1       3       2       1
       1       3       2       1       1       3       2       1       1       3
       2       1       1       3       2       1       1       3       2       1
       1       3       2       1       1       3       2       1       1       3
       2       1       1       3       2       1       1       3       2       1
       1       3       2       1       1       3       2       1       1       3
       2       1       1       3       2       1       1       3       2       1
       1       3       2       1       1       3       2       1       1       3
       2       1       1       3       2       1       1       3       2       1
       1       3       2       1       1       3       2       1       1       3
       2       1       1       3       2       1       1       3       2       1
       1       3       2       1       1       3       2       1       1       3
       2       1       1       3       2       1       1       3       2       1
       1       3       2       1       1       3       2       1       1       3
       2       1       1       3       2       1       1       3       2       1
       1       3       2       1       1       3       2       1       1       3
       2       1       1       3       2       1       1       3       2       1
       1       3       2       1       1       3       2       1       1       3
       2       1       1       3       2       1       1       3       2       1
       1       3       2       1       1       3       2       1       1       3
       2       1       1       3       2       1       1       3       2       1
       1       3       2       1       1       3       2       1       1       3
       2       1       1       3       2       1       1       3       2       1
       1       3       2       1       1       3       2       1       1       3
       2       1       1       3       2       1       1       3       2       1
       1       3       2       1       1       3       2       1       1       3
       2       1       1       3       2       1       1       3       2       1
       1       3       2       1       1       3       2       1       1       3
       2       1       1       3       2       1       1       3       2       1
       1       3       2       1       1       3       2       1       1       3
       2       1       1       3       2       1       1       3       2       1
       1       3       2       1       1       3       2       1       1       3
       2       1       1       3       2       1       1       3       2       1
       1       3       2       1       1       3       2       1       1       3
       2       1       1       3       2       1       1       3       2       1
       1       3       2       1       1       3       2       1       1       3
       2       1       1       3       2       1       1       3       2       1
       1       3       2       1       1       3       2       1       1       3
       2       1       1       3       2       1       1       3       2       1
       1       3       2       1       1       3       2       1       1       3
       2       1       1       3       2       1       1       3       2       1
       1       3       2       1       1       3       2       1       1       3
       2       1       1       3       2       1       1       3       2       1
       1       3       2       1       1       3       2       1       1       3
       2       1       1       3       2       1       1       3       2       1
       1       3       2       1       1       3       2       1       1       3
       2       1       1       3       2       1       1       3       2       1
       1       3       2       1       1       3       2       1       1       3
       2       1       1       3       2       1       1       3       2       1
       1       3       2       1       1       3       2       1       1       3
       2       1       1       3       2       1       1       3       2       1
       1       3       2       1       1       3       2       1       1       3
       2       1       1       3       2       1       1       3       2       1
       1       3       2       1       1       3       2       1       1       3
       2       1       1       3       2       1       1       3       2       1
       1       3       2       1       1       3       2       1       1       3
       2       1       1       3       2       1       1       3       2       1
       1       3       2       1       1       3       2       1       1       3
       2       1       1       3       2       1       1       3       2       1
       1       3       2       1       1       3       2       1       1       3
       2       1       1       3       2       1       1       3       2       1
       1       3       2       1       1       3       2       1       1       3
       2       1       1       3       2       1       1       3       2       1
       1       3       2       1       1       3       2       1       1       3
       2       1       1       3       2       1       1       3       2       1
       1       3       2       1       1       3       2       1       1       3
       2       1       1       3       2       1       1       3       2       1
       1       3       2       1       1       3       2       1       1       3
       2       1       1       3       2       1       1       3       2       1
       1       3       2       1       1       3       2       1       1       3
       2       1       1       3       2       1       1       3       2       1
       1       3       2       1       1       3       2       1       1       3
       2       1       1       3       2       1       1       3       2       1
       1       3       2       1       1       3       2       1       1       3
       2       1       1       3       2       1       1       3       2       1
       1       3       2       1       1       3       2       1       1       3
       2       1       1       3       2       1       1       3       2       1
       1       3       2       1       1       3       2       1       1       3
       2       1       1       3       2       1       1       3       2       1
       1       3       2       1       1       3       2       1       1       3
       2       1       1       3       2       1       1       3       2       1
       1       3       2       1       1       3       2       1       1       3
       2       1       1       3       2       1       1       3       2       1
       1       3       2       1       1       3       2       1       1       3
       2       1       1       3       2       1       1       3       2       1
       1       3       2       1       1       3       2       1       1       3
       2       1       1       3       2       1       1       3       2       1
       1       3       2       1       1       3       2       1       1       3
       2       1       1       3       2       1       1       3       2       1
       1       3       2       1       1       3       2       1       1       3
       2       1       1       3       2       1       1       3       2       1
       1       3       2       1       1       3       2       1       1       3
       2       1       1       3       2       1       1       3       2       1
       1       3       2       1       1       3       2       1       1       3
       2       1       1       3       2       1       1       3       2       1
       1       3       2       1       1       3       2       1       1       3
       2       1       1       3       2       1       1       3       2       1
       1       3       2       1       1       3       2       1       1       3
       2       1       1       3       2       1       1       3       2       1
       1       3       2       1       1       3       2       1       1       3
       2       1       1       3       2       1       1       3       2       1
       1       3       2       1       1       3       2       1       1       3
       2       1       1       3       2       1       1       3       2       1
       1       3       2       1       1       3       2       1       1       3
       2       1       1       3       2       1       1       3       2       1
       1       3       2       1       1       3       2       1       1       3
       2       1       1       3       2       1       1       3       2       1
       1       3       2       1       1       3       2       1       1       3
       2       1       1       3       2       1       1       3       2       1
       1       3       2       1       1       3       2       1       1       3
       2       1       1       3       2       1       1       3       2       1
       1       3       2       1       1       3       2       1       1       3
       2       1       1       3       2       1       1       3       2       1
       1       3       2       1       1       3       2       1       1       3
       2       1       1       3       2       1       1       3       2       1
       1       3       2       1       1       3       2       1       1       3
       2       1       1       3       2       1       1       3       2       1
       1       3       2       1       1       3       2       1       1       3
       2       1       1       3       2       1       1       3       2       1
       1       3       2       1       1       3       2       1       1       3
       2       1       1       3       2       1       1       3       2       1
       1       3       2       1       1       3       2       1       1       3
       2       1       1       3       2       1       1       3       2       1
       1       3       2       1       1       3       2       1       1       3
       2       1       1       3       2       1       1       3       2       1
       1       3       2       1       1       3       2       1       1       3
       2       1       1       3       2       1       1       3       2       1
       1       3       2       1       1       3       2       1       1       3
       2       1       1       3       2       1       1       3       2       1
       1       3       2       1       1       3       2       1       1       3
       2       1       1       3       2       1       1       3       2       1
       1       3       2       1       1       3       2       1       1       3
       2       1       1       3       2       1       1       3       2       1
       1       3       2       1       1       3       2       1       1       3
       2       1       1       3       2       1       1       3       2       1
       1       3       2       1       1       3       2       1       1       3
       2       1       1       3       2       1       1       3       2       1
       1       3       2       1       1       3       2       1       1       3
       2       1       1       3       2       1       1       3       2       1
       1       3       2       1       1       3       2       1       1       3
       2       1       1       3       2       1       1       3       2       1
       1       3       2       1       1       3       2       1       1       3
       2       1       1       3       2       1       1       3       2       1
       1       3       2       1       1       3       2       1       1       3
       2       1       1       3       2       1       1       3       2       1
       1       3       2       1       1       3       2       1       1       3
       2       1       1       3       2       1       1       3       2       1
       1       3       2       1       1       3       2       1       1       3
       2       1       1       3       2       1       1       3       2       1
       1       3       2       1       1       3       2       1       1       3
       2       1       1       3       2       1       1       3       2       1
       1       3       2       1       1       3       2       1       1       3
       2       1       1       3       2       1       1       3       2       1
       1       3       2       1       1       3       2       1       1       3
       2       1       1       3       2       1       1       3       2       1
       1       3       2       1       1       3       2       1       1       3
       2       1       1       3       2       1       1       3       2       1
       1       3       2       1       1       3       2       1       1       3
       2       1       1       3       2       1       1       3       2       1
       1       3       2       1       1       3       2       1       1       3
       2       1       1       3       2       1       1       3       2       1
       1       3       2       1       1       3       2       1       1       3
       2       1       1       3       2       1       1       3       2       1
       1       3       2       1       1       3       2       1       1       3
       2       1       1       3       2       1       1       3       2       1
       1       3       2       1       1       3       2       1       1       3
       2       1       1       3       2       1       1       3       2       1
       1       3       2       1       1       3       2       1       1       3
       2       1       1       3       2       1       1       3       2       1
       1       3       2       1       1       3       2       1       1       3
       2       1       1       3       2       1       1       3       2       1
       1       3       2       1       1       3       2       1       1       3
       2       1       1       3       2       1       1       3       2       1
       1       3       2       1       1       3       2       1       1       3
       2       1       1       3       2       1       1       3       2       1
       1       3       2       1       1       3       2       1       1       3
       2       1       1       3       2       1       1       3       2       1
       1       3       2       1       1       3       2       1       1       3
       2       1       1       3       2       1       1       3       2       1
       1       3       2       1       1       3       2       1       1       3
       2       1       1       3       2       1       1       3       2       1
       1       3       2       1       1       3       2       1       1       3
       2       1       1       3       2       1       1       3       2       1
       1       3       2       1       1       3       2       1       1       3
       2       1       1       3       2       1       1       3       2       1
       1       3       2       1       1       3       2       1       1       3
       2       1       1       3       2       1       1       3       2       1
       1       3       2       1       1       3       2       1       1       3
       2       1       1       3       2       1       1       3       2       1
       1       3       2       1       1       3       2       1       1       3
       2       1       1       3       2       1       1       3       2       1
       1       3       2       1       1       3       2       1       1       3
       2       1       1       3       2       1       1       3       2       1
       1       3       2       1       1       3       2       1       1       3
       2       1       1       3       2       1       1       3       2       1
       1       3       2       1       1       3       2       1       1       3
       2       1       1       3       2       1       1       3       2       1
       1       3       2       1       1       3       2       1       1       3
       2       1       1       3       2       1       1       3       2       1
       1       3       2       1       1       3       2       1       1       3
       2       1       1       3       2       1       1       3       2       1
       1       3       2       1       1       3       2       1       1       3
       2       1       1       3       2       1       1       3       2       1
       1       3       2       1       1       3       2       1       1       3
       2       1       1       3       2       1       1       3       2       1
       1       3       2       1       1       3       2       1       1       3
       2       1       1       3       2       1       1       3       2       1
       1       3       2       1       1       3       2       1       1       3
       2       1       1       3       2       1       1       3       2       1
       1       3       2       1       1       3       2       1       1       3
       2       1       1       3       2       1       1       3       2       1
       1       3       2       1       1       3       2       1       1       3
       2       1       1       3       2       1       1       3       2       1
       1       3       2       1       1       3       2       1       1       3
       2       1       1       3       2       1       1       3       2       1
       1       3       2       1       1       3       2       1       1       3
       2       1       1       3       2       1       1       3       2       1
       1       3       2       1       1       3       2       1       1       3
       2       1       1       3       2       1       1       3       2       1
       1       3       2       1       1       3       2       1       1       3
       2       1       1       3       2       1       1       3       2       1
       1       3       2       1       1       3       2       1       1       3
       2       1       1       3       2       1       1       3       2       1
       1       3       2       1       1       3       2       1       1       3
       2       1       1       3       2       1       1       3       2       1
       1       3       2       1       1       3       2       1       1       3
       2       1       1       3       2       1       1       3       2       1
       1       3       2       1       1       3       2       1       1       3
       2       1       1       3       2       1       1       3       2       1
       1       3       2       1       1       3       2       1       1       3
       2       1       1       3       2       1       1       3       2       1
       1       3       2       1       1       3       2       1       1       3
       2       1       1       3       2       1       1       3       2       1
       1       3       2       1       1       3       2       1       1       3
       2       1       1       3       2       1       1       3       2       1
       1       3       2       1       1       3       2       1       1       3
       2       1       1       3       2       1       1       3       2       1
       1       3       2       1       1       3       2       1       1       3
       2       1       1       3       2       1       1       3       2       1
       1       3       2       1       1       3       2       1       1       3
       2       1       1       3       2       1       1       3       2       1
       1       3       2       1       1       3       2       1       1       3
       2       1       1       3       2       1       1       3       2       1
       1       3       2       1       1       3       2       1       1       3
       2       1       1       3       2       1       1       3       2       1
       1       3       2       1       1       3       2       1       1       3
       2       1       1       3       2       1       1       3       2       1
       1       3       2       1       1       3       2       1       1       3
       2       1       1       3       2       1       1       3       2       1
       1       3       2       1       1       3       2       1       1       3
       2       1       1       3       2       1       1       3       2       1
       1       3       2       1       1       3       2       1       1       3
       2       1       1       3       2       1       1       3       2       1
       1       3       2       1       1       3       2       1       1       3
       2       1       1       3       2       1       1       3       2       1
       1       3       2       1       1       3       2       1       1       3
       2       1       1       3       2       1       1       3       2       1
       1       3       2       1       1       3       2       1       1       3
       2       1       1       3       2       1       1       3       2       1
       1       3       2       1       1       3       2       1       1       3
       2       1       1       3       2       1       1       3       2       1
       1       3       2       1       1       3       2       1       1       3
       2       1       1       3       2       1       1       3       2       1
       1       3       2       1       1       3       2       1       1       3
       2       1       1       3       2       1       1       3       2       1
       1       3       2       1       1       3       2       1       1       3
       2       1       1       3       2       1       1       3       2       1
       1       3       2       1       1       3       2       1       1       3
       2       1       1       3       2       1       1       3       2       1
       1       3       2       1       1       3       2       1       1       3
       2       1       1       3       2       1       1       3       2       1
       1       3       2       1       1       3       2       1       1       3
       2       1       1       3       2       1       1       3       2       1
       1       3       2       1       1       3       2       1       1       3
       2       1       1       3       2       1       1       3       2       1
       1       3       2       1       1       3       2       1       1       3
       2       1       1       3       2       1       1       3       2       1
       1       3       2       1       1       3       2       1       1       3
       2       1       1       3       2       1       1       3       2       1
       1       3       2       1       1       3       2       1       1       3
       2       1       1       3       2       1       1       3       2       1
       1       3       2       1       1       3       2       1       1       3
       2       1       1       3       2       1       1       3       2       1
       1       3       2       1       1       3       2       1       1       3
       2       1       1       3       2       1       1       3       2       1
       1       3       2       1       1       3       2       1       1       3
       2       1       1       3       2       1       1       3       2       1
       1       3       2       1       1       3       2       1       1       3
       2       1       1       3       2       1       1       3       2       1
       1       3       2       1       1       3       2       1       1       3
       2       1       1       3       2       1       1       3       2       1
       1       3       2       1       1       3       2       1       1       3
       2       1       1       3       2       1       1       3       2       1
       1       3       2       1       1       3       2       1       1       3
       2       1       1       3       2       1       1       3       2       1
       1       3       2       1       1       3       2       1       1       3
       2       1       1       3       2       1       1       3       2       1
       1       3       2       1       1       3       2       1       1       3
       2       1       1       3       2       1       1       3       2       1
       1       3       2       1       1       3       2       1       1       3
       2       1       1       3       2       1       1       3       2       1
       1       3       2       1       1       3       2       1       1       3
       2       1       1       3       2       1       1       3       2       1
       1       3       2       1       1       3       2       1       1       3
       2       1       1       3       2       1       1       3       2       1
       1       3       2       1       1       3       2       1       1       3
       2       1       1       3       2       1       1       3       2       1
       1       3       2       1       1       3       2       1       1       3
       2       1       1       3       2       1       1       3       2       1
       1       3       2       1       1       3       2       1       1       3
       2       1       1       3       2       1       1       3       2       1
       1       3       2       1       1       3       2       1       1       3
       2       1       1       3       2       1       1       3       2       1
       1       3       2       1       1       3       2       1       1       3
       2       1       1       3       2       1       1       3       2       1
       1       3       2       1       1       3       2       1       1       3
       2       1       1       3       2       1       1       3       2       1
       1       3       2       1       1       3       2       1       1       3
       2       1       1       3       2       1       1       3       2       1
       1       3       2       1       1       3       2       1       1       3
       2       1       1       3       2       1       1       3       2       1
       1       3       2       1       1       3       2       1       1       3
       2       1       1       3       2       1       1       3       2       1
       1       3       2       1       1       3       2       1       1       3
       2       1       1       3       2       1       1       3       2       1
       1       3       2       1       1       3       2       1       1       3
       2       1       1       3       2       1       1       3       2       1
       1       3       2       1       1       3       2       1       1       3
       2       1       1       3       2       1       1       3       2       1
       1       3       2       1       1       3       2       1       1       3
       2       1       1       3       2       1       1       3       2       1
       1       3       2       1       1       3       2       1       1       3
       2       1       1       3       2       1       1       3       2       1
       1       3       2       1       1       3       2       1       1       3
       2       1       1       3       2       1       1       3       2       1
       1       3       2       1       1       3       2       1       1       3
       2       1       1       3       2       1       1       3       2       1
       1       3       2       1       1       3       2       1       1       3
       2       1       1       3       2       1       1       3       2       1
       1       3       2       1       1       3       2       1       1       3
       2       1       1       3       2       1       1       3       2       1
       1       3       2       1       1       3       2       1       1       3
       2       1       1       3       2       1       1       3       2       1
       1       3       2       1       1       3       2       1       1       3
       2       1       1       3       2       1       1       3       2       1
       1       3       2       1       1       3       2       1       1       3
       2       1       1       3       2       1       1       3       2       1
       1       3       2       1       1       3       2       1       1       3
       2       1       1       3       2       1       1       3       2       1
       1       3       2       1       1       3       2       1       1       3
       2       1       1       3       2       1       1       3       2       1
       1       3       2       1       1       3       2       1       1       3
       2       1       1       3       2       1       1       3       2       1
       1       3       2       1       1       3       2       1       1       3
       2       1       1       3       2       1       1       3       2       1
       1       3       2       1       1       3       2       1       1       3
       2       1       1       3       2       1       1       3       2       1
       1       3       2       1       1       3       2       1       1       3
       2       1       1       3       2       1       1       3       2       1
       1       3       2       1       1       3       2       1       1       3
       2       1       1       3       2       1       1       3       2       1
       1       3       2       1       1       3       2       1       1       3
       2       1       1       3       2       1       1       3       2       1
       1       3       2       1       1       3       2       1       1       3
       2       1       1       3       2       1       1       3       2       1
       1       3       2       1       1       3       2       1       1       3
       2       1       1       3       2       1       1       3       2       1
       1       3       2       1       1       3       2       1       1       3
       2       1       1       3       2       1       1       3       2       1
       1       3       2       1       1       3       2       1       1       3
       2       1       1       3       2       1       1       3       2       1
       1       3       2       1       1       3       2       1       1       3
       2       1       1       3       2       1       1       3       2       1
       1       3       2       1       1       3       2       1       1       3
       2       1       1       3       2       1       1       3       2       1
       1       3       2       1       1       3       2       1       1       3
       2       1       1       3       2       1       1       3       2       1
       1       3       2       1       1       3       2       1       1       3
       2       1       1       3       2       1       1       3       2       1
       1       3       2       1       1       3       2       1       1       3
       2       1       1       3       2       1       1       3       2       1
       1       3       2       1       1       3       2       1       1       3
       2       1       1       3       2       1       1       3       2       1
       1       3       2       1       1       3       2       1       1       3
       2       1       1       3       2       1       1       3       2       1
       1       3       2       1       1       3       2       1       1       3
       2       1       1       3       2       1       1       3       2       1
       1       3       2       1       1       3       2       1       1       3
       2       1       1       3       2       1       1       3       2       1
       1       3       2       1       1       3       2       1       1       3
       2       1       1       3       2       1       1       3       2       1
       1       3       2       1       1       3       2       1       1       3
       2       1       1       3       2       1       1       3       2       1
       1       3       2       1       1       3       2       1       1       3
       2       1       1       3       2       1       1       3       2       1
       1       3       2       1       1       3       2       1       1       3
       2       1       1       3       2       1       1       3       2       1
       1       3       2       1       1       3       2       1       1       3
       2       1       1       3       2       1       1       3       2       1
       1       3       2       1       1       3       2       1       1       3
       2       1       1       3       2       1       1       3       2       1
       1       3       2       1       1       3       2       1       1       3
       2       1       1       3       2       1       1       3       2       1
       1       3       2       1       1       3       2       1       1       3
       2       1       1       3       2       1       1       3       2       1
       1       3       2       1       1       3       2       1       1       3
       2       1       1       3       2       1       1       3       2       1
       1       3       2       1       1       3       2       1       1       3
       2       1       1       3       2       1       1       3       2       1
       1       3       2       1       1       3       2       1       1       3
       2       1       1       3       2       1       1       3       2       1
       1       3       2       1       1       3       2       1       1       3
       2       1       1       3       2       1       1       3       2       1
       1       3       2       1       1       3       2       1       1       3
       2       1       1       3       2       1       1       3       2       1
       1       3       2       1       1       3       2       1       1       3
       2       1       1       3       2       1       1       3       2       1
       1       3       2       1       1       3       2       1       1       3
       2       1       1       3       2       1       1       3       2       1
       1       3       2       1       1       3       2       1       1       3
       2       1       1       3       2       1       1       3       2       1
       1       3       2       1       1       3       2       1       1       3
       2       1       1       3       2       1       1       3       2       1
       1       3       2       1       1       3       2       1       1       3
       2       1       1       3       2       1       1       3       2       1
       1       3       2       1       1       3       2       1       1       3
       2       1       1       3       2       1       1       3       2       1
       1       3       2       1       1       3       2       1       1       3
       2       1       1       3       2       1       1       3       2       1
       1       3       2       1       1       3       2       1       1       3
       2       1       1       3       2       1       1       3       2       1
       1       3       2       1       1       3       2       1       1       3
       2       1       1       3       2       1       1       3       2       1
       1       3       2       1       1       3       2       1       1       3
       2       1       1       3       2       1       1       3       2       1
       1       3       2       1       1       3       2       1       1       3
       2       1       1       3       2       1       1       3       2       1
       1       3       2       1       1       3       2       1       1       3
       2       1       1       3       2       1       1       3       2       1
       1       3       2       1       1       3       2       1       1       3
       2       1       1       3       2       1       1       3       2       1
       1       3       2       1       1       3       2       1       1       3
       2       1       1       3       2       1       1       3       2       1
       1       3       2       1       1       3       2       1       1       3
       2       1       1       3       2       1       1       3       2       1
       1       3       2       1       1       3       2       1       1       3
       2       1       1       3       2       1       1       3       2       1
       1       3       2       1       1       3       2       1       1       3
       2       1       1       3       2       1       1       3       2       1
       1       3       2       1       1       3       2       1       1       3
       2       1       1       3       2       1       1       3       2       1
       1       3       2       1       1       3       2       1       1       3
       2       1       1       3       2       1       1       3       2       1
       1       3       2       1       1       3       2       1       1       3
       2       1       1       3       2       1       1       3       2       1
       1       3       2       1       1       3       2       1       1       3
       2       1       1       3       2       1       1       3       2       1
       1       3       2       1       1       3       2       1       1       3
       2       1       1       3       2       1       1       3       2       1
       1       3       2       1       1       3       2       1       1       3
       2       1       1       3       2       1       1       3       2       1
       1       3       2       1       1       3       2       1       1       3
       2       1       1       3       2       1       1       3       2       1
       1       3       2       1       1       3       2       1       1       3
       2       1       1       3       2       1       1       3       2       1
       1       3       2       1       1       3       2       1       1       3
       2       1       1       3       2       1       1       3       2       1
       1       3       2       1       1       3       2       1       1       3
       2       1       1       3       2       1       1       3       2       1
       1       3       2       1       1       3       2       1       1       3
       2       1       1       3       2       1       1       3       2       1
       1       3       2       1       1       3       2       1       1       3
       2       1       1       3       2       1       1       3       2       1
       1       3       2       1       1       3       2       1       1       3
       2       1       1       3       2       1       1       3       2       1
       1       3       2       1       1       3       2       1       1       3
       2       1       1       3       2       1       1       3       2       1
       1       3       2       1       1       3       2       1       1       3
       2       1       1       3       2       1       1       3       2       1
       1       3       2       1       1       3       2       1       1       3
       2       1       1       3       2       1       1       3       2       1
       1       3       2       1       1       3       2       1       1       3
       2       1       1       3       2       1       1       3       2       1
       1       3       2       1       1       3       2       1       1       3
       2       1       1       3       2       1       1       3       2       1
       1       3       2       1       1       3       2       1       1       3
       2       1       1       3       2       1       1       3       2       1
       1       3       2       1       1       3       2       1       1       3
       2       1       1       3       2       1       1       3       2       1
       1       3       2       1       1       3       2       1       1       3
       2       1       1       3       2       1       1       3       2       1
       1       3       2       1       1       3       2       1       1       3
       2       1       1       3       2       1       1       3       2       1
       1       3       2       1       1       3       2       1       1       3
       2       1       1       3       2       1       1       3       2       1
       1       3       2       1       1       3       2       1       1       3
       2       1       1       3       2       1       1       3       2       1
       1       3       2       1       1       3       2       1       1       3
       2       1       1       3       2       1       1       3       2       1
       1       3       2       1       1       3       2       1       1       3
       2       1       1       3       2       1       1       3       2       1
       1       3       2       1       1       3       2       1       1       3
       2       1       1       3       2       1       1       3       2       1
       1       3       2       1       1       3       2       1       1       3
       2       1       1       3       2       1       1       3       2       1
       1       3       2       1       1       3       2       1       1       3
       2       1       1       3       2       1       1       3       2       1
       1       3       2       1       1       3       2       1       1       3
       2       1       1       3       2       1       1       3       2       1
       1       3       2       1       1       3       2       1       1       3
       2       1       1       3       2       1       1       3       2       1
       1       3       2       1       1       3       2       1       1       3
       2       1       1       3       2       1       1       3       2       1
       1       3       2       1       1       3       2       1       1       3
       2       1       1       3       2       1       1       3       2       1
       1       3       2       1       1       3       2       1       1       3
       2       1       1       3       2       1       1       3       2       1
       1       3       2       1       1       3       2       1       1       3
       2       1       1       3       2       1       1       3       2       1
       1       3       2       1       1       3       2       1       1       3
       2       1       1       3       2       1       1       3       2       1
       1       3       2       1       1       3       2       1       1       3
       2       1       1       3       2       1       1       3       2       1
       1       3       2       1       1       3       2       1       1       3
       2       1       1       3       2       1       1       3       2       1
       1       3       2       1       1       3       2       1       1       3
       2       1       1       3       2       1       1       3       2       1
       1       3       2       1       1       3       2       1       1       3
       2       1       1       3       2       1       1       3       2       1
       1       3       2       1       1       3       2       1       1       3
       2       1       1       3       2       1       1       3       2       1
       1       3       2       1       1       3       2       1       1       3
       2       1       1       3       2       1       1       3       2       1
       1       3       2       1       1       3       2       1       1       3
       2       1       1       3       2       1       1       3       2       1
       1       3       2       1       1       3       2       1       1       3
       2       1       1       3       2       1       1       3       2       1
       1       3       2       1       1       3       2       1       1       3
       2       1       1       3       2       1       1       3       2       1
       1       3       2       1       1       3       2       1       1       3
       2       1       1       3       2       1       1       3       2       1
       1       3       2       1       1       3       2       1       1       3
       2       1       1       3       2       1       1       3       2       1
       1       3       2       1       1       3       2       1       1       3
       2       1       1       3       2       1       1       3       2       1
       1       3       2       1       1       3       2       1       1       3
       2       1       1       3       2       1       1       3       2       1
       1       3       2       1       1       3       2       1       1       3
       2       1       1       3       2       1       1       3       2       1
       1       3       2       1       1       3       2       1       1       3
       2       1       1       3       2       1       1       3       2       1
       1       3       2       1       1       3       2       1       1       3
       2       1       1       3       2       1       1       3       2       1
       1       3       2       1       1       3       2       1       1       3
       2       1       1       3       2       1       1       3       2       1
       1       3       2       1       1       3       2       1       1       3
       2       1       1       3       2       1       1       3       2       1
       1       3       2       1       1       3       2       1       1       3
       2       1       1       3       2       1       1       3       2       1
       1       3       2       1       1       3       2       1       1       3
       2       1       1       3       2       1       1       3       2       1
       1       3       2       1       1       3       2       1       1       3
       2       1       1       3       2       1       1       3       2       1
       1       3       2       1       1       3       2       1       1       3
       2       1       1       3       2       1       1       3       2       1
       1       3       2       1       1       3       2       1       1       3
       2       1       1       3       2       1       1       3       2       1
       1       3       2       1       1       3       2       1       1       3
       2       1       1       3       2       1       1       3       2       1
       1       3       2       1       1       3       2       1       1       3
       2       1       1       3       2       1       1       3       2       1
       1       3       2       1       1       3       2       1       1       3
       2       1       1       3       2       1       1       3       2       1
       1       3       2       1       1       3       2       1       1       3
       2       1       1       3       2       1       1       3       2       1
       1       3       2       1       1       3       2       1       1       3
       2       1       1       3       2       1       1       3       2       1
       1       3       2       1       1       3       2       1       1       3
       2       1       1       3       2       1       1       3       2       1
       1       3       2       1       1       3       2       1       1       3
       2       1       1       3       2       1       1       3       2       1
       1       3       2       1       1       3       2       1       1       3
       2       1       1       3       2       1       1       3       2       1
       1       3       2       1       1       3       2       1       1       3
       2       1       1       3       2       1       1       3       2       1
       1       3       2       1       1       3       2       1       1       3
       2       1       1       3       2       1       1       3       2       1
       1       3       2       1       1       3       2       1       1       3
       2       1       1       3       2       1       1       3       2       1
       1       3       2       1       1       3       2       1       1       3
       2       1       1       3       2       1       1       3       2       1
       1       3       2       1       1       3       2       1       1       3
       2       1       1       3       2       1       1       3       2       1
       1       3       2       1       1       3       2       1       1       3
       2       1       1       3       2       1       1       3       2       1
       1       3       2       1       1       3       2       1       1       3
       2       1       1       3       2       1       1       3       2       1
       1       3       2       1       1       3       2       1       1       3
       2       1       1       3       2       1       1       3       2       1
       1       3       2       1       1       3       2       1       1       3
       2       1       1       3       2       1       1       3       2       1
       1       3       2       1       1       3       2       1       1       3
       2       1       1       3       2       1       1       3       2       1
       1       3       2       1       1       3       2       1       1       3
       2       1       1       3       2       1       1       3       2       1
       1       3       2       1       1       3       2       1       1       3
       2       1       1       3       2       1       1       3       2       1
       1       3       2       1       1       3       2       1       1       3
       2       1       1       3       2       1       1       3       2       1
       1       3       2       1       1       3       2       1       1       3
       2       1       1       3       2       1       1       3       2       1
       1       3       2       1       1       3       2       1       1       3
       2       1       1       3       2       1       1       3       2       1
       1       3       2       1       1       3       2       1       1       3
       2       1       1       3       2       1       1       3       2       1
       1       3       2       1       1       3       2       1       1       3
       2       1       1       3       2       1       1       3       2       1
       1       3       2       1       1       3       2       1       1       3
       2       1       1       3       2       1       1       3       2       1
       1       3       2       1       1       3       2       1       1       3
       2       1       1       3       2       1       1       3       2       1
       1       3       2       1       1       3       2       1       1       3
       2       1       1       3       2       1       1       3       2       1
       1       3       2       1       1       3       2       1       1       3
       2       1       1       3       2       1       1       3       2       1
       1       3       2       1       1       3       2       1       1       3
       2       1       1       3       2       1       1       3       2       1
       1       3       2       1       1       3       2       1       1       3
       2       1       1       3       2       1       1       3       2       1
       1       3       2       1       1       3       2       1       1       3
       2       1       1       3       2       1       1       3       2       1
       1       3       2       1       1       3       2       1       1       3
       2       1       1       3       2       1       1       3       2       1
       1       3       2       1       1       3       2       1       1       3
       2       1       1       3       2       1       1       3       2       1
       1       3       2       1       1       3       2       1       1       3
       2       1       1       3       2       1       1       3       2       1
       1       3       2       1       1       3       2       1       1       3
       2       1       1       3       2       1       1       3       2       1
       1       3       2       1       1       3       2       1       1       3
       2       1       1       3       2       1       1       3       2       1
       1       3       2       1       1       3       2       1       1       3
       2       1       1       3       2       1       1       3       2       1
       1       3       2       1       1       3       2       1       1       3
       2       1       1       3       2       1       1       3       2       1
       1       3       2       1       1       3       2       1       1       3
       2       1       1       3       2       1       1       3       2       1
       1       3       2       1       1       3       2       1       1       3
       2       1       1       3       2       1       1       3       2       1
       1       3       2       1       1       3       2       1       1       3
       2       1       1       3       2       1       1       3       2       1
       1       3       2       1       1       3       2       1       1       3
       2       1       1       3       2       1       1       3       2       1
       1       3       2       1       1       3       2       1       1       3
       2       1       1       3       2       1       1       3       2       1
       1       3       2       1       1       3       2       1       1       3
       2       1       1       3       2       1       1       3       2       1
       1       3       2       1       1       3       2       1       1       3
       2       1       1       3       2       1       1       3       2       1
       1       3       2       1       1       3       2       1       1       3
       2       1       1       3       2       1       1       3       2       1
       1       3       2       1       1       3       2       1       1       3
       2       1       1       3       2       1       1       3       2       1
       1       3       2       1       1       3       2       1       1       3
       2       1       1       3       2       1       1       3       2       1
       1       3       2       1       1       3       2       1       1       3
       2       1       1       3       2       1       1       3       2       1
       1       3       2       1       1       3       2       1       1       3
       2       1       1       3       2       1       1       3       2       1
       1       3       2       1       1       3       2       1       1       3
       2       1       1       3       2       1       1       3       2       1
       1       3       2       1       1       3       2       1       1       3
       2       1       1       3       2       1       1       3       2       1
       1       3       2       1       1       3       2       1       1       3
       2       1       1       3       2       1       1       3       2       1
       1       3       2       1       1       3       2       1       1       3
       2       1       1       3       2       1       1       3       2       1
       1       3       2       1       1       3       2       1       1       3
       2       1       1       3       2       1       1       3       2       1
       1       3       2       1       1       3       2       1       1       3
       2       1       1       3       2       1       1       3       2       1
       1       3       2       1       1       3       2       1       1       3
       2       1       1       3       2       1       1       3       2       1
       1       3       2       1       1       3       2       1       1       3
       2       1       1       3       2       1       1       3       2       1
       1       3       2       1       1       3       2       1       1       3
       2       1       1       3       2       1       1       3       2       1
       1       3       2       1       1       3       2       1       1       3
       2       1       1       3       2       1       1       3       2       1
       1       3       2       1       1       3       2       1       1       3
       2       1       1       3       2       1       1       3       2       1
       1       3       2       1       1       3       2       1       1       3
       2       1       1       3       2       1       1       3       2       1
       1       3       2       1       1       3       2       1       1       3
       2       1       1       3       2       1       1       3       2       1
       1       3       2       1       1       3       2       1       1       3
       2       1       1       3       2       1       1       3       2       1
       1       3       2       1       1       3       2       1       1       3
       2       1       1       3       2       1       1       3       2       1
       1       3       2       1       1       3       2       1       1       3
       2       1       1       3       2       1       1       3       2       1
       1       3       2       1       1       3       2       1       1       3
       2       1       1       3       2       1       1       3       2       1
       1       3       2       1       1       3       2       1       1       3
       2       1       1       3       2       1       1       3       2       1
       1       3       2       1       1       3       2       1       1       3
       2       1       1       3       2       1       1       3       2       1
       1       3       2       1       1       3       2       1       1       3
       2       1       1       3       2       1       1       3       2       1
       1       3       2       1       1       3       2       1       1       3
       2       1       1       3       2       1       1       3       2       1
       1       3       2       1       1       3       2       1       1       3
       2       1       1       3       2       1       1       3       2       1
       1       3       2       1       1       3       2       1       1       3
       2       1       1       3       2       1       1       3       2       1
       1       3       2       1       1       3       2       1       1       3
       2       1       1       3       2       1       1       3       2       1
       1       3       2       1       1       3       2       1       1       3
       2       1       1       3       2       1       1       3       2       1
       1       3       2       1       1       3       2       1       1       3
       2       1       1       3       2       1       1       3       2       1
       1       3       2       1       1       3       2       1       1       3
       2       1       1       3       2       1       1       3       2       1
       1       3       2       1       1       3       2       1       1       3
       2       1       1       3       2       1       1       3       2       1
       1       3       2       1       1       3       2       1       1       3
       2       1       1       3       2       1       1       3       2       1
       1       3       2       1       1       3       2       1       1       3
       2       1       1       3       2       1       1       3       2       1
       1       3       2       1       1       3       2       1       1       3
       2       1       1       3       2       1       1       3       2       1
       1       3       2       1       1       3       2       1       1       3
       2       1       1       3       2       1       1       3       2       1
       1       3       2       1       1       3       2       1       1       3
       2       1       1       3       2       1       1       3       2       1
       1       3       2       1       1       3       2       1       1       3
       2       1       1       3       2       1       1       3       2       1
       1       3       2       1       1       3       2       1       1       3
       2       1       1       3       2       1       1       3       2       1
       1       3       2       1       1       3       2       1       1       3
       2       1       1       3       2       1       1       3       2       1
       1       3       2       1       1       3       2       1       1       3
       2       1       1       3       2       1       1       3       2       1
       1       3       2       1       1       3       2       1       1       3
       2       1       1       3       2       1       1       3       2       1
       1       3       2       1       1       3       2       1       1       3
       2       1       1       3       2       1       1       3       2       1
       1       3       2       1       1       3       2       1       1       3
       2       1       1       3       2       1       1       3       2       1
       1       3       2       1       1       3       2       1       1       3
       2       1       1       3       2       1       1       3       2       1
       1       3       2       1       1       3       2       1       1       3
       2       1       1       3       2       1       1       3       2       1
       1       3       2       1       1       3       2       1       1       3
       2       1       1       3       2       1       1       3       2       1
       1       3       2       1       1       3       2       1       1       3
       2       1       1       3       2       1       1       3       2       1
       1       3       2       1       1       3       2       1       1       3
       2       1       1       3       2       1       1       3       2       1
       1       3       2       1       1       3       2       1       1       3
       2       1       1       3       2       1       1       3       2       1
       1       3       2       1       1       3       2       1       1       3
       2       1       1       3       2       1       1       3       2       1
       1       3       2       1       1       3       2       1       1       3
       2       1       1       3       2       1       1       3       2       1
       1       3       2       1       1       3       2       1       1       3
       2       1       1       3       2       1       1       3       2       1
       1       3       2       1       1       3       2       1       1       3
       2       1       1       3       2       1       1       3       2       1
       1       3       2       1       1       3       2       1       1       3
       2       1       1       3       2       1       1       3       2       1
       1       3       2       1       1       3       2       1       1       3
       2       1       1       3       2       1       1       3       2       1
       1       3       2       1       1       3       2       1       1       3
       2       1       1       3       2       1       1       3       2       1
       1       3       2       1       1       3       2       1       1       3
       2       1       1       3       2       1       1       3       2       1
       1       3       2       1       1       3       2       1       1       3
       2       1       1       3       2       1       1       3       2       1
       1       3       2       1       1       3       2       1       1       3
       2       1       1       3       2       1       1       3       2       1
       1       3       2       1       1       3       2       1       1       3
       2       1       1       3       2       1       1       3       2       1
       1       3       2       1       1       3       2       1       1       3
       2       1       1       3       2       1       1       3       2       1
       1       3       2       1       1       3       2       1       1       3
       2       1       1       3       2       1       1       3       2       1
       1       3       2       1       1       3       2       1       1       3
       2       1       1       3       2       1       1       3       2       1
       1       3       2       1       1       3       2       1       1       3
       2       1       1       3       2       1       1       3       2       1
       1       3       2       1       1       3       2       1       1       3
       2       1       1       3       2       1       1       3       2       1
       1       3       2       1       1       3       2       1       1       3
       2       1       1       3       2       1       1       3       2       1
       1       3       2       1       1       3       2       1       1       3
       2       1       1       3       2       1       1       3       2       1
       1       3       2       1       1       3       2       1       1       3
       2       1       1       3       2       1       1       3       2       1
       1       3       2       1       1       3       2       1       1       3
       2       1       1       3       2       1       1       3       2       1
       1       3       2       1       1       3       2       1       1       3
       2       1       1       3       2       1       1       3       2       1
       1       3       2       1       1       3       2       1       1       3
       2       1       1       3       2       1       1       3       2       1
       1       3       2       1       1       3       2       1       1       3
       2       1       1       3       2       1       1       3       2       1
       1       3       2       1       1       3       2       1       1       3
       2       1       1       3       2       1       1       3       2       1
       1       3       2       1       1       3       2       1       1       3
       2       1       1       3       2       1       1       3       2       1
       1       3       2       1       1       3       2       1       1       3
       2       1       1       3       2       1       1       3       2       1
       1       3       2       1       1       3       2       1       1       3
       2       1       1       3       2       1       1       3       2       1
       1       3       2       1       1       3       2       1       1       3
       2       1       1       3       2       1       1       3       2       1
       1       3       2       1       1       3       2       1       1       3
       2       1       1       3       2       1       1       3       2       1
       1       3       2       1       1       3       2       1       1       3
       2       1       1       3       2       1       1       3       2       1
       1       3       2       1       1       3       2       1       1       3
       2       1       1       3       2       1       1       3       2       1
       1       3       2       1       1       3       2       1       1       3
       2       1       1       3       2       1       1       3       2       1
       1       3       2       1       1       3       2       1       1       3
       2       1       1       3       2       1       1       3       2       1
       1       3       2       1       1       3       2       1       1       3
       2       1       1       3       2       1       1       3       2       1
       1       3       2       1       1       3       2       1       1       3
       2       1       1       3       2       1       1       3       2       1
       1       3       2       1       1       3       2       1       1       3
       2       1       1       3       2       1       1       3       2       1
       1       3       2       1       1       3       2       1       1       3
       2       1       1       3       2       1       1       3       2       1
       1       3       2       1       1       3       2       1       1       3
       2       1       1       3       2       1       1       3       2       1
       1       3       2       1       1       3       2       1       1       3
       2       1       1       3       2       1       1       3       2       1
       1       3       2       1       1       3       2       1       1       3
       2       1       1       3       2       1       1       3       2       1
       1       3       2       1       1       3       2       1       1       3
       2       1       1       3       2       1       1       3       2       1
       1       3       2       1       1       3       2       1       1       3
       2       1       1       3       2       1       1       3       2       1
       1       3       2       1       1       3       2       1       1       3
       2       1       1       3       2       1       1       3       2       1
       1       3       2       1       1       3       2       1       1       3
       2       1       1       3       2       1       1       3       2       1
       1       3       2       1       1       3       2       1       1       3
       2       1       1       3       2       1       1       3       2       1
       1       3       2       1       1       3       2       1       1       3
       2       1       1       3       2       1       1       3       2       1
       1       3       2       1       1       3       2       1       1       3
       2       1       1       3       2       1       1       3       2       1
       1       3       2       1       1       3       2       1       1       3
       2       1       1       3       2       1       1       3       2       1
       1       3       2       1       1       3       2       1       1       3
       2       1       1       3       2       1       1       3       2       1
       1       3       2       1       1       3       2       1       1       3
       2       1       1       3       2       1       1       3       2       1
       1       3       2       1       1       3       2       1       1       3
       2       1       1       3       2       1       1       3       2       1
       1       3       2       1       1       3       2       1       1       3
       2       1       1       3       2       1       1       3       2       1
       1       3       2       1       1       3       2       1       1       3
       2       1       1       3       2       1       1       3       2       1
       1       3       2       1       1       3       2       1       1       3
       2       1       1       3       2       1       1       3       2       1
       1       3       2       1       1       3       2       1       1       3
       2       1       1       3       2       1       1       3       2       1
       1       3       2       1       1       3       2       1       1       3
       2       1       1       3       2       1       1       3       2       1
       1       3       2       1       1       3       2       1       1       3
       2       1       1       3       2       1       1       3       2       1
       1       3       2       1       1       3       2       1       1       3
       2       1       1       3       2       1       1       3       2       1
       1       3       2       1       1       3       2       1       1       3
       2       1       1       3       2       1       1       3       2       1
       1       3       2       1       1       3       2       1       1       3
       2       1       1       3       2       1       1       3       2       1
       1       3       2       1       1       3       2       1       1       3
       2       1       1       3       2       1       1       3       2       1
       1       3       2       1       1       3       2       1       1       3
       2       1       1       3       2       1       1       3       2       1
       1       3       2       1       1       3       2       1       1       3
       2       1       1       3       2       1       1       3       2       1
       1       3       2       1       1       3       2       1       1       3
       2       1       1       3       2       1       1       3       2       1
       1       3       2       1       1       3       2       1       1       3
       2       1       1       3       2       1       1       3       2       1
       1       3       2       1       1       3       2       1       1       3
       2       1       1       3       2       1       1       3       2       1
       1       3       2       1       1       3       2       1       1       3
       2       1       1       3       2       1       1       3       2       1
       1       3       2       1       1       3       2       1       1       3
       2       1       1       3       2       1       1       3       2       1
       1       3       2       1       1       3       2       1       1       3
       2       1       1       3       2       1       1       3       2       1
       1       3       2       1       1       3       2       1       1       3
       2       1       1       3       2       1       1       3       2       1
       1       3       2       1       1       3       2       1       1       3
       2       1       1       3       2       1       1       3       2       1
       1       3       2       1       1       3       2       1       1       3
       2       1       1       3       2       1       1       3       2       1
       1       3       2       1       1       3       2       1       1       3
       2       1       1       3       2       1       1       3       2       1
       1       3       2       1       1       3       2       1       1       3
       2       1       1       3       2       1       1       3       2       1
       1       3       2       1       1       3       2       1       1       3
       2       1       1       3       2       1       1       3       2       1
       1       3       2       1       1       3       2       1       1       3
       2       1       1       3       2       1       1       3       2       1
       1       3       2       1       1       3       2       1       1       3
       2       1       1       3       2       1       1       3       2       1
       1       3       2       1       1       3       2       1       1       3
       2       1       1       3       2       1       1       3       2       1
       1       3       2       1       1       3       2       1       1       3
       2       1       1       3       2       1       1       3       2       1
       1       3       2       1       1       3       2       1       1       3
       2       1       1       3       2       1       1       3       2       1
       1       3       2       1       1       3       2       1       1       3
       2       1       1       3       2       1       1       3       2       1
       1       3       2       1       1       3       2       1       1       3
       2       1       1       3       2       1       1       3       2       1
       1       3       2       1       1       3       2       1       1       3
       2       1       1       3       2       1       1       3       2       1
       1       3       2       1       1       3       2       1       1       3
       2       1       1       3       2       1       1       3       2       1
       1       3       2       1       1       3       2       1       1       3
       2       1       1       3       2       1       1       3       2       1
       1       3       2       1       1       3       2       1       1       3
       2       1       1       3       2       1       1       3       2       1
       1       3       2       1       1       3       2       1       1       3
       2       1       1       3       2       1       1       3       2       1
       1       3       2       1       1       3       2       1       1       3
       2       1       1       3       2       1       1       3       2       1
       1       3       2       1       1       3       2       1       1       3
       2       1       1       3       2       1       1       3       2       1
       1       3       2       1       1       3       2       1       1       3
       2       1       1       3       2       1       1       3       2       1
       1       3       2       1       1       3       2       1       1       3
       2       1       1       3       2       1       1       3       2       1
       1       3       2       1       1       3       2       1       1       3
       2       1       1       3       2       1       1       3       2       1
       1       3       2       1       1       3       2       1       1       3
       2       1       1       3       2       1       1       3       2       1
       1       3       2       1       1       3       2       1       1       3
       2       1       1       3       2       1       1       3       2       1
       1       3       2       1       1       3       2       1       1       3
       2       1       1       3       2       1       1       3       2       1
       1       3       2       1       1       3       2       1       1       3
       2       1       1       3       2       1       1       3       2       1
       1       3       2       1       1       3       2       1       1       3
       2       1       1       3       2       1       1       3       2       1
       1       3       2       1       1       3       2       1       1       3
       2       1       1       3       2       1       1       3       2       1
       1       3       2       1       1       3       2       1       1       3
       2       1       1       3       2       1       1       3       2       1
       1       3       2       1       1       3       2       1       1       3
       2       1       1       3       2       1       1       3       2       1
       1       3       2       1       1       3       2       1       1       3
       2       1       1       3       2       1       1       3       2       1
       1       3       2       1       1       3       2       1       1       3
       2       1       1       3       2       1       1       3       2       1
       1       3       2       1       1       3       2       1       1       3
       2       1       1       3       2       1       1       3       2       1
       1       3       2       1       1       3       2       1       1       3
       2       1       1       3       2       1       1       3       2       1
       1       3       2       1       1       3       2       1       1       3
       2       1       1       3       2       1       1       3       2       1
       1       3       2       1       1       3       2       1       1       3
       2       1       1       3       2       1       1       3       2       1
       1       3       2       1       1       3       2       1       1       3
       2       1       1       3       2       1       1       3       2       1
       1       3       2       1       1       3       2       1       1       3
       2       1       1       3       2       1       1       3       2       1
       1       3       2       1       1       3       2       1       1       3
       2       1       1       3       2       1       1       3       2       1
       1       3       2       1       1       3       2       1       1       3
       2       1       1       3       2       1       1       3       2       1
       1       3       2       1       1       3       2       1       1       3
       2       1       1       3       2       1       1       3       2       1
       1       3       2       1       1       3       2       1       1       3
       2       1       1       3       2       1       1       3       2       1
       1       3       2       1       1       3       2       1       1       3
       2       1       1       3       2       1       1       3       2       1
       1       3       2       1       1       3       2       1       1       3
       2       1       1       3       2       1       1       3       2       1
       1       3       2       1       1       3       2       1       1       3
       2       1       1       3       2       1       1       3       2       1
       1       3       2       1       1       3       2       1       1       3
       2       1       1       3       2       1       1       3       2       1
       1       3       2       1       1       3       2       1       1       3
       2       1       1       3       2       1       1       3       2       1
       1       3       2       1       1       3       2       1       1       3
       2       1       1       3       2       1       1       3       2       1
       1       3       2       1       1       3       2       1       1       3
       2       1       1       3       2       1       1       3       2       1
       1       3       2       1       1       3       2       1       1       3
       2       1       1       3       2       1       1       3       2       1
       1       3       2       1       1       3       2       1       1       3
       2       1       1       3       2       1       1       3       2       1
       1       3       2       1       1       3       2       1       1       3
       2       1       1       3       2       1       1       3       2       1
       1       3       2       1       1       3       2       1       1       3
       2       1       1       3       2       1       1       3       2       1
       1       3       2       1       1       3       2       1       1       3
       2       1       1       3       2       1       1       3       2       1
       1       3       2       1       1       3       2       1       1       3
       2       1       1       3       2       1       1       3       2       1
       1       3       2       1       1       3       2       1       1       3
       2       1       1       3       2       1       1       3       2       1
       1       3       2       1       1       3       2       1       1       3
       2       1       1       3       2       1       1       3       2       1
       1       3       2       1       1       3       2       1       1       3
       2       1       1       3       2       1       1       3       2       1
       1       3       2       1       1       3       2       1       1       3
       2       1       1       3       2       1       1       3       2       1
       1       3       2       1       1       3       2       1       1       3
       2       1       1       3       2       1       1       3       2       1
       1       3       2       1       1       3       2       1       1       3
       2       1       1       3       2       1       1       3       2       1
       1       3       2       1       1       3       2       1       1       3
       2       1       1       3       2       1       1       3       2       1
       1       3       2       1       1       3       2       1       1       3
       2       1       1       3       2       1       1       3       2       1
       1       3       2       1       1       3       2       1       1       3
       2       1       1       3       2       1       1       3       2       1
       1       3       2       1       1       3       2       1       1       3
       2       1       1       3       2       1       1       3       2       1
       1       3       2       1       1       3       2       1       1       3
       2       1       1       3       2       1       1       3       2       1
       1       3       2       1       1       3       2       1       1       3
       2       1       1       3       2       1       1       3       2       1
       1       3       2       1       1       3       2       1       1       3
       2       1       1       3       2       1       1       3       2       1
       1       3       2       1       1       3       2       1       1       3
       2       1       1       3       2       1       1       3       2       1
       1       3       2       1       1       3       2       1       1       3
       2       1       1       3       2       1       1       3       2       1
       1       3       2       1       1       3       2       1       1       3
       2       1       1       3       2       1       1       3       2       1
       1       3       2       1       1       3       2       1       1       3
       2       1       1       3       2       1       1       3       2       1
       1       3       2       1       1       3       2       1       1       3
       2       1       1       3       2       1       1       3       2       1
       1       3       2       1       1       3       2       1       1       3
       2       1       1       3       2       1       1       3       2       1
       1       3       2       1       1       3       2       1       1       3
       2       1       1       3       2       1       1       3       2       1
       1       3       2       1       1       3       2       1       1       3
       2       1       1       3       2       1       1       3       2       1
       1       3       2       1       1       3       2       1       1       3
       2       1       1       3       2       1       1       3       2       1
       1       3       2       1       1       3       2       1       1       3
       2       1       1       3       2       1       1       3       2       1
       1       3       2       1       1       3       2       1       1       3
       2       1       1       3       2       1       1       3       2       1
       1       3       2       1       1       3       2       1       1       3
       2       1       1       3       2       1       1       3       2       1
       1       3       2       1       1       3       2       1       1       3
       2       1       1       3       2       1       1       3       2       1
       1       3       2       1       1       3       2       1       1       3
       2       1       1       3       2       1       1       3       2       1
       1       3       2       1       1       3       2       1       1       3
       2       1       1       3       2       1       1       3       2       1
       1       3       2       1       1       3       2       1       1       3
       2       1       1       3       2       1       1       3       2       1
       1       3       2       1       1       3       2       1       1       3
       2       1       1       3       2       1       1       3       2       1
       1       3       2       1       1       3       2       1       1       3
       2       1       1       3       2       1       1       3       2       1
       1       3       2       1       1       3       2       1       1       3
       2       1       1       3       2       1       1       3       2       1
       1       3       2       1       1       3       2       1       1       3
       2       1       1       3       2       1       1       3       2       1
       1       3       2       1       1       3       2       1       1       3
       2       1       1       3       2       1       1       3       2       1
       1       3       2       1       1       3       2       1       1       3
       2       1       1       3       2       1       1       3       2       1
       1       3       2       1       1       3       2       1       1       3
       2       1       1       3       2       1       1       3       2       1
       1       3       2       1       1       3       2       1       1       3
       2       1       1       3       2       1       1       3       2       1
       1       3       2       1       1       3       2       1       1       3
       2       1       1       3       2       1       1       3       2       1
       1       3       2       1       1       3       2       1       1       3
       2       1       1       3       2       1       1       3       2       1
       1       3       2       1       1       3       2       1       1       3
       2       1       1       3       2       1       1       3       2       1
       1       3       2       1       1       3       2       1       1       3
       2       1       1       3       2       1       1       3       2       1
       1       3       2       1       1       3       2       1       1       3
       2       1       1       3       2       1       1       3       2       1
       1       3       2       1       1       3       2       1       1       3
       2       1       1       3       2       1       1       3       2       1
       1       3       2       1       1       3       2       1       1       3
       2       1       1       3       2       1       1       3       2       1
       1       3       2       1       1       3       2       1       1       3
       2       1       1       3       2       1       1       3       2       1
       1       3       2       1       1       3       2       1       1       3
       2       1       1       3       2       1       1       3       2       1
       1       3       2       1       1       3       2       1       1       3
       2       1       1       3       2       1       1       3       2       1
       1       3       2       1       1       3       2       1       1       3
       2       1       1       3       2       1       1       3       2       1
       1       3       2       1       1       3       2       1       1       3
       2       1       1       3       2       1       1       3       2       1
       1       3       2       1       1       3       2       1       1       3
       2       1       1       3       2       1       1       3       2       1
       1       3       2       1       1       3       2       1       1       3
       2       1       1       3       2       1       1       3       2       1
       1       3       2       1       1       3       2       1       1       3
       2       1       1       3       2       1       1       3       2       1
       1       3       2       1       1       3       2       1       1       3
       2       1       1       3       2       1       1       3       2       1
       1       3       2       1       1       3       2       1       1       3
       2       1       1       3       2       1       1       3       2       1
       1       3       2       1       1       3       2       1       1       3
       2       1       1       3       2       1       1       3       2       1
       1       3       2       1       1       3       2       1       1       3
       2       1       1       3       2       1       1       3       2       1
       1       3       2       1       1       3       2       1       1       3
       2       1       1       3       2       1       1       3       2       1
       1       3       2       1       1       3       2       1       1       3
       2       1       1       3       2       1       1       3       2       1
       1       3       2       1       1       3       2       1       1       3
       2       1       1       3       2       1       1       3       2       1
       1       3       2       1       1       3       2       1       1       3
       2       1       1       3       2       1       1       3       2       1
       1       3       2       1       1       3       2       1       1       3
       2       1       1       3       2       1       1       3       2       1
       1       3       2       1       1       3       2       1       1       3
       2       1       1       3       2       1       1       3       2       1
       1       3       2       1       1       3       2       1       1       3
       2       1       1       3       2       1       1       3       2       1
       1       3       2       1       1       3       2       1       1       3
       2       1       1       3       2       1       1       3       2       1
       1       3       2       1       1       3       2       1       1       3
       2       1       1       3       2       1       1       3       2       1
       1       3       2       1       1       3       2       1       1       3
       2       1       1       3       2       1       1       3       2       1
       1       3       2       1       1       3       2       1       1       3
       2       1       1       3       2       1       1       3       2       1
       1       3       2       1       1       3       2       1       1       3
       2       1       1       3       2       1       1       3       2       1
       1       3       2       1       1       3       2       1       1       3
       2       1       1       3       2       1       1       3       2       1
       1       3       2       1       1       3       2       1       1       3
       2       1       1       3       2       1       1       3       2       1
       1       3       2       1       1       3       2       1       1       3
       2       1       1       3       2       1       1       3       2       1
       1       3       2       1       1       3       2       1       1       3
       2       1       1       3       2       1       1       3       2       1
       1       3       2       1       1       3       2       1       1       3
       2       1       1       3       2       1       1       3       2       1
       1       3       2       1       1       3       2       1       1       3
       2       1       1       3       2       1       1       3       2       1
       1       3       2       1       1       3       2       1       1       3
       2       1       1       3       2       1       1       3       2       1
       1       3       2       1       1       3       2       1       1       3
       2       1       1       3       2       1       1       3       2       1
       1       3       2       1       1       3       2       1       1       3
       2       1       1       3       2       1       1       3       2       1
       1       3       2       1       1       3       2       1       1       3
       2       1       1       3       2       1       1       3       2       1
       1       3       2       1       1       3       2       1       1       3
       2       1       1       3       2       1       1       3       2       1
       1       3       2       1       1       3       2       1       1       3
       2       1       1       3       2       1       1       3       2       1
       1       3       2       1       1       3       2       1       1       3
       2       1       1       3       2       1       1       3       2       1
       1       3       2       1       1       3       2       1       1       3
       2       1       1       3       2       1       1       3       2       1
       1       3       2       1       1       3       2       1       1       3
       2       1       1       3       2       1       1       3       2       1
       1       3       2       1       1       3       2       1       1       3
       2       1       1       3       2       1       1       3       2       1
       1       3       2       1       1       3       2       1       1       3
       2       1       1       3       2       1       1       3       2       1
       1       3       2       1       1       3       2       1       1       3
       2       1       1       3       2       1       1       3       2       1
       1       3       2       1       1       3       2       1       1       3
       2       1       1       3       2       1       1       3       2       1
       1       3       2       1       1       3       2       1       1       3
       2       1       1       3       2       1       1       3       2       1
       1       3       2       1       1       3       2       1       1       3
       2       1       1       3       2       1       1       3       2       1
       1       3       2       1       1       3       2       1       1       3
       2       1       1       3       2       1       1       3       2       1
       1       3       2       1       1       3       2       1       1       3
       2       1       1       3       2       1       1       3       2       1
       1       3       2       1       1       3       2       1       1       3
       2       1       1       3       2       1       1       3       2       1
       1       3       2       1       1       3       2       1       1       3
       2       1       1       3       2       1       1       3       2       1
       1       3       2       1       1       3       2       1       1       3
       2       1       1       3       2       1       1       3       2       1
       1       3       2       1       1       3       2       1       1       3
       2       1       1       3       2       1       1       3       2       1
       1       3       2       1       1       3       2       1       1       3
       2       1       1       3       2       1       1       3       2       1
       1       3       2       1       1       3       2       1       1       3
       2       1       1       3       2       1       1       3       2       1
       1       3       2       1       1       3       2       1       1       3
       2       1       1       3       2       1       1       3       2       1
       1       3       2       1       1       3       2       1       1       3
       2       1       1       3       2       1       1       3       2       1
       1       3       2       1       1       3       2       1       1       3
       2       1       1       3       2       1       1       3       2       1
       1       3       2       1       1       3       2       1       1       3
       2       1       1       3       2       1       1       3       2       1
       1       3       2       1       1       3       2       1       1       3
       2       1       1       3       2       1       1       3       2       1
       1       3       2       1       1       3       2       1       1       3
       2       1       1       3       2       1       1       3       2       1
       1       3       2       1       1       3       2       1       1       3
       2       1       1       3       2       1       1       3       2       1
       1       3       2       1       1       3       2       1       1       3
       2       1       1       3       2       1       1       3       2       1
       1       3       2       1       1       3       2       1       1       3
       2       1       1       3       2       1       1       3       2       1
       1       3       2       1       1       3       2       1       1       3
       2       1       1       3       2       1       1       3       2       1
       1       3       2       1       1       3       2       1       1       3
       2       1       1       3       2       1       1       3       2       1
       1       3       2       1       1       3       2       1       1       3
       2       1       1       3       2       1       1       3       2       1
       1       3       2       1       1       3       2       1       1       3
       2       1       1       3       2       1       1       3       2       1
       1       3       2       1       1       3       2       1       1       3
       2       1       1       3       2       1       1       3       2       1
       1       3       2       1       1       3       2       1       1       3
       2       1       1       3       2       1       1       3       2       1
       1       3       2       1       1       3       2       1       1       3
       2       1       1       3       2       1       1       3       2       1
       1       3       2       1       1       3       2       1       1       3
       2       1       1       3       2       1       1       3       2       1
       1       3       2       1       1       3       2       1       1       3
       2       1       1       3       2       1       1       3       2       1
       1       3       2       1       1       3       2       1       1       3
       2       1       1       3       2       1       1       3       2       1
       1       3       2       1       1       3       2       1       1       3
       2       1       1       3       2       1       1       3       2       1
       1       3       2       1       1       3       2       1       1       3
       2       1       1       3       2       1       1       3       2       1
       1       3       2       1       1       3       2       1       1       3
       2       1       1       3       2       1       1       3       2       1
       1       3       2       1       1       3       2       1       1       3
       2       1       1       3       2       1       1       3       2       1
       1       3       2       1       1       3       2       1       1       3
       2       1       1       3       2       1       1       3       2       1
       1       3       2       1       1       3       2       1       1       3
       2       1       1       3       2       1       1       3       2       1
       1       3       2       1       1       3       2       1       1       3
       2       1       1       3       2       1       1       3       2       1
       1       3       2       1       1       3       2       1       1       3
       2       1       1       3       2       1       1       3       2       1
       1       3       2       1       1       3       2       1       1       3
       2       1       1       3       2       1       1       3       2       1
       1       3       2       1       1       3       2       1       1       3
       2       1       1       3       2       1       1       3       2       1
       1       3       2       1       1       3       2       1       1       3
       2       1       1       3       2       1       1       3       2       1
       1       3       2       1       1       3       2       1       1       3
       2       1       1       3       2       1       1       3       2       1
       1       3       2       1       1       3       2       1       1       3
       2       1       1       3       2       1       1       3       2       1
       1       3       2       1       1       3       2       1       1       3
       2       1       1       3       2       1       1       3       2       1
       1       3       2       1       1       3       2       1       1       3
       2       1       1       3       2       1       1       3       2       1
       1       3       2       1       1       3       2       1       1       3
       2       1       1       3       2       1       1       3       2       1
       1       3       2       1       1       3       2       1       1       3
       2       1       1       3       2       1       1       3       2       1
       1       3       2       1       1       3       2       1       1       3
       2       1       1       3       2       1       1       3       2       1
       1       3       2       1       1       3       2       1       1       3
       2       1       1       3       2       1       1       3       2       1
       1       3       2       1       1       3       2       1       1       3
       2       1       1       3       2       1       1       3       2       1
       1       3       2       1       1       3       2       1       1       3
       2       1       1       3       2       1       1       3       2       1
       1       3       2       1       1       3       2       1       1       3
       2       1       1       3       2       1       1       3       2       1
       1       3       2       1       1       3       2       1       1       3
       2       1       1       3       2       1       1       3       2       1
       1       3       2       1       1       3       2       1       1       3
       2       1       1       3       2       1       1       3       2       1
       1       3       2       1       1       3       2       1       1       3
       2       1       1       3       2       1       1       3       2       1
       1       3       2       1       1       3       2       1       1       3
       2       1       1       3       2       1       1       3       2       1
       1       3       2       1       1       3       2       1       1       3
       2       1       1       3       2       1       1       3       2       1
       1       3       2       1       1       3       2       1       1       3
       2       1       1       3       2       1       1       3       2       1
       1       3       2       1       1       3       2       1       1       3
       2       1       1       3       2       1       1       3       2       1
       1       3       2       1       1       3       2       1       1       3
       2       1       1       3       2       1       1       3       2       1
       1       3       2       1       1       3       2       1       1       3
       2       1       1       3       2       1       1       3       2       1
       1       3       2       1       1       3       2       1       1       3
       2       1       1       3       2       1       1       3       2       1
       1       3       2       1       1       3       2       1       1       3
       2       1       1       3       2       1       1       3       2       1
       1       3       2       1       1       3       2       1       1       3
       2       1       1       3       2       1       1       3       2       1
       1       3       2       1       1       3       2       1       1       3
       2       1       1       3       2       1       1       3       2       1
       1       3       2       1       1       3       2       1       1       3
       2       1       1       3       2       1       1       3       2       1
       1       3       2       1       1       3       2       1       1       3
       2       1       1       3       2       1       1       3       2       1
       1       3       2       1       1       3       2       1       1       3
       2       1       1       3       2       1       1       3       2       1
       1       3       2       1       1       3       2       1       1       3
       2       1       1       3       2       1       1       3       2       1
       1       3       2       1       1       3       2       1       1       3
       2       1       1       3       2       1       1       3       2       1
       1       3       2       1       1       3       2       1       1       3
       2       1       1       3       2       1       1       3       2       1
       1       3       2       1       1       3       2       1       1       3
       2       1       1       3       2       1       1       3       2       1
       1       3       2       1       1       3       2       1       1       3
       2       1       1       3       2       1       1       3       2       1
       1       3       2       1       1       3       2       1       1       3
       2       1       1       3       2       1       1       3       2       1
       1       3       2       1       1       3       2       1       1       3
       2       1       1       3       2       1       1       3       2       1
       1       3       2       1       1       3       2       1       1       3
       2       1       1       3       2       1       1       3       2       1
       1       3       2       1       1       3       2       1       1       3
       2       1       1       3       2       1       1       3       2       1
       1       3       2       1       1       3       2       1       1       3
       2       1       1       3       2       1       1       3       2       1
       1       3       2       1       1       3       2       1       1       3
       2       1       1       3       2       1       1       3       2       1
       1       3       2       1       1       3       2       1       1       3
       2       1       1       3       2       1       1       3       2       1
       1       3       2       1       1       3       2       1       1       3
       2       1       1       3       2       1       1       3       2       1
       1       3       2       1       1       3       2       1       1       3
       2       1       1       3       2       1       1       3       2       1
       1       3       2       1       1       3       2       1       1       3
       2       1       1       3       2       1       1       3       2       1
       1       3       2       1       1       3       2       1       1       3
       2       1       1       3       2       1       1       3       2       1
       1       3       2       1       1       3       2       1       1       3
       2       1       1       3       2       1       1       3       2       1
       1       3       2       1       1       3       2       1       1       3
       2       1       1       3       2       1       1       3       2       1
       1       3       2       1       1       3       2       1       1       3
       2       1       1       3       2       1       1       3       2       1
       1       3       2       1       1       3       2       1       1       3
       2       1       1       3       2       1       1       3       2       1
       1       3       2       1       1       3       2       1       1       3
       2       1       1       3       2       1       1       3       2       1
       1       3       2       1       1       3       2       1       1       3
       2       1       1       3       2       1       1       3       2       1
       1       3       2       1       1       3       2       1       1       3
       2       1       1       3       2       1       1       3       2       1
       1       3       2       1       1       3       2       1       1       3
       2       1       1       3       2       1       1       3       2       1
       1       3       2       1       1       3       2       1       1       3
       2       1       1       3       2       1       1       3       2       1
       1       3       2       1       1       3       2       1       1       3
       2       1       1       3       2       1       1       3       2       1
       1       3       2       1       1       3       2       1       1       3
       2       1       1       3       2       1       1       3       2       1
       1       3       2       1       1       3       2       1       1       3
       2       1       1       3       2       1       1       3       2       1
       1       3       2       1       1       3       2       1       1       3
       2       1       1       3       2       1       1       3       2       1
       1       3       2       1       1       3       2       1       1       3
       2       1       1       3       2       1       1       3       2       1
       1       3       2       1       1       3       2       1       1       3
       2       1       1       3       2       1       1       3       2       1
       1       3       2       1       1       3       2       1       1       3
       2       1       1       3       2       1       1       3       2       1
       1       3       2       1       1       3       2       1       1       3
       2       1       1       3       2       1       1       3       2       1
       1       3       2       1       1       3       2       1       1       3
       2       1       1       3       2       1       1       3       2       1
       1       3       2       1       1       3       2       1       1       3
       2       1       1       3       2       1       1       3       2       1
       1       3       2       1       1       3       2       1       1       3
       2       1       1       3       2       1       1       3       2       1
       1       3       2       1       1       3       2       1       1       3
       2       1       1       3       2       1       1       3       2       1
       1       3       2       1       1       3       2       1       1       3
       2       1       1       3       2       1       1       3       2       1
       1       3       2       1       1       3       2       1       1       3
       2       1       1       3       2       1       1       3       2       1
       1       3       2       1       1       3       2       1       1       3
       2       1       1       3       2       1       1       3       2       1
       1       3       2       1       1       3       2       1       1       3
       2       1       1       3       2       1       1       3       2       1
       1       3       2       1       1       3       2       1       1       3
       2       1       1       3       2       1       1       3       2       1
       1       3       2       1       1       3       2       1       1       3
       2       1       1       3       2       1       1       3       2       1
       1       3       2       1       1       3       2       1       1       3
       2       1       1       3       2       1       1       3       2       1
       1       3       2       1       1       3       2       1       1       3
       2       1       1       3       2       1       1       3       2       1
       1       3       2       1       1       3       2       1       1       3
       2       1       1       3       2       1       1       3       2       1
       1       3       2       1       1       3       2       1       1       3
       2       1       1       3       2       1       1       3       2       1
       1       3       2       1       1       3       2       1       1       3
       2       1       1       3       2       1       1       3       2       1
       1       3       2       1       1       3       2       1       1       3
       2       1       1       3       2       1       1       3       2       1
       1       3       2       1       1       3       2       1       1       3
       2       1       1       3       2       1       1       3       2       1
       1       3       2       1       1       3       2       1       1       3
       2       1       1       3       2       1       1       3       2       1
       1       3       2       1       1       3       2       1       1       3
       2       1       1       3       2       1       1       3       2       1
       1       3       2       1       1       3       2       1       1       3
       2       1       1       3       2       1       1       3       2       1
       1       3       2       1       1       3       2       1       1       3
       2       1       1       3       2       1       1       3       2       1
       1       3       2       1       1       3       2       1       1       3
       2       1       1       3       2       1       1       3       2       1
       1       3       2       1       1       3       2       1       1       3
       2       1       1       3       2       1       1       3       2       1
       1       3       2       1       1       3       2       1       1       3
       2       1       1       3       2       1       1       3       2       1
       1       3       2       1       1       3       2       1       1       3
       2       1       1       3       2       1       1       3       2       1
       1       3       2       1       1       3       2       1       1       3
       2       1       1       3       2       1       1       3       2       1
       1       3       2       1       1       3       2       1       1       3
       2       1       1       3       2       1       1       3       2       1
       1       3       2       1       1       3       2       1       1       3
       2       1       1       3       2       1       1       3       2       1
       1       3       2       1       1       3       2       1       1       3
       2       1       1       3       2       1       1       3       2       1
       1       3       2       1       1       3       2       1       1       3
       2       1       1       3       2       1       1       3       2       1
       1       3       2       1       1       3       2       1       1       3
       2       1       1       3       2       1       1       3       2       1
       1       3       2       1       1       3       2       1       1       3
       2       1       1       3       2       1       1       3       2       1
       1       3       2       1       1       3       2       1       1       3
       2       1       1       3       2       1       1       3       2       1
       1       3       2       1       1       3       2       1       1       3
       2       1       1       3       2       1       1       3       2       1
       1       3       2       1       1       3       2       1       1       3
       2       1       1       3       2       1       1       3       2       1
       1       3       2       1       1       3       2       1       1       3
       2       1       1       3       2       1       1       3       2       1
       1       3       2       1       1       3       2       1       1       3
       2       1       1       3       2       1       1       3       2       1
       1       3       2       1       1       3       2       1       1       3
       2       1       1       3       2       1       1       3       2       1
       1       3       2       1       1       3       2       1       1       3
       2       1       1       3       2       1       1       3       2       1
       1       3       2       1       1       3       2       1       1       3
       2       1       1       3       2       1       1       3       2       1
       1       3       2       1       1       3       2       1       1       3
       2       1       1       3       2       1       1       3       2       1
       1       3       2       1       1       3       2       1       1       3
       2       1       1       3       2       1       1       3       2       1
       1       3       2       1       1       3       2       1       1       3
       2       1       1       3       2       1       1       3       2       1
       1       3       2       1       1       3       2       1       1       3
       2       1       1       3       2       1       1       3       2       1
       1       3       2       1       1       3       2       1       1       3
       2       1       1       3       2       1       1       3       2       1
       1       3       2       1       1       3       2       1       1       3
       2       1       1       3       2       1       1       3       2       1
       1       3       2       1       1       3       2       1       1       3
       2       1       1       3       2       1       1       3       2       1
       1       3       2       1       1       3       2       1       1       3
       2       1       1       3       2       1       1       3       2       1
       1       3       2       1       1       3       2       1       1       3
       2       1       1       3       2       1       1       3       2       1
       1       3       2       1       1       3       2       1       1       3
       2       1       1       3       2       1       1       3       2       1
       1       3       2       1       1       3       2       1       1       3
       2       1       1       3       2       1       1       3       2       1
       1       3       2       1       1       3       2       1       1       3
       2       1       1       3       2       1       1       3       2       1
       1       3       2       1       1       3       2       1       1       3
       2       1       1       3       2       1       1       3       2       1
       1       3       2       1       1       3       2       1       1       3
       2       1       1       3       2       1       1       3       2       1
       1       3       2       1       1       3       2       1       1       3
       2       1       1       3       2       1       1       3       2       1
       1       3       2       1       1       3       2       1       1       3
       2       1       1       3       2       1       1       3       2       1
       1       3       2       1       1       3       2       1       1       3
       2       1       1       3       2       1       1       3       2       1
       1       3       2       1       1       3       2       1       1       3
       2       1       1       3       2       1       1       3       2       1
       1       3       2       1       1       3       2       1       1       3
       2       1       1       3       2       1       1       3       2       1
       1       3       2       1       1       3       2       1       1       3
       2       1       1       3       2       1       1       3       2       1
       1       3       2       1       1       3       2       1       1       3
       2       1       1       3       2       1       1       3       2       1
       1       3       2       1       1       3       2       1       1       3
       2       1       1       3       2       1       1       3       2       1
       1       3       2       1       1       3       2       1       1       3
       2       1       1       3       2       1       1       3       2       1
       1       3       2       1       1       3       2       1       1       3
       2       1       1       3       2       1       1       3       2       1
       1       3       2       1       1       3       2       1       1       3
       2       1       1       3       2       1       1       3       2       1
       1       3       2       1       1       3       2       1       1       3
       2       1       1       3       2       1       1       3       2       1
       1       3       2       1       1       3       2       1       1       3
       2       1       1       3       2       1       1       3       2       1
       1       3       2       1       1       3       2       1       1       3
       2       1       1       3       2       1       1       3       2       1
       1       3       2       1       1       3       2       1       1       3
       2       1       1       3       2       1       1       3       2       1
       1       3       2       1       1       3       2       1       1       3
       2       1       1       3       2       1       1       3       2       1
       1       3       2       1       1       3       2       1       1       3
       2       1       1       3       2       1       1       3       2       1
       1       3       2       1       1       3       2       1       1       3
       2       1       1       3       2       1       1       3       2       1
       1       3       2       1       1       3       2       1       1       3
       2       1       1       3       2       1       1       3       2       1
       1       3       2       1       1       3       2       1       1       3
       2       1       1       3       2       1       1       3       2       1
       1       3       2       1       1       3       2       1       1       3
       2       1       1       3       2       1       1       3       2       1
       1       3       2       1       1       3       2       1       1       3
       2       1       1       3       2       1       1       3       2       1
       1       3       2       1       1       3       2       1       1       3
       2       1       1       3       2       1       1       3       2       1
       1       3       2       1       1       3       2       1       1       3
       2       1       1       3       2       1       1       3       2       1
       1       3       2       1       1       3       2       1       1       3
       2       1       1       3       2       1       1       3       2       1
       1       3       2       1       1       3       2       1       1       3
       2       1       1       3       2       1       1       3       2       1
       1       3       2       1       1       3       2       1       1       3
       2       1       1       3       2       1       1       3       2       1
       1       3       2       1       1       3       2       1       1       3
       2       1       1       3       2       1       1       3       2       1
       1       3       2       1       1       3       2       1       1       3
       2       1       1       3       2       1       1       3       2       1
       1       3       2       1       1       3       2       1       1       3
       2       1       1       3       2       1       1       3       2       1
       1       3       2       1       1       3       2       1       1       3
       2       1       1       3       2       1       1       3       2       1
       1       3       2       1       1       3       2       1       1       3
       2       1       1       3       2       1       1       3       2       1
       1       3       2       1       1       3       2       1       1       3
       2       1       1       3       2       1       1       3       2       1
       1       3       2       1       1       3       2       1       1       3
       2       1       1       3       2       1       1       3       2       1
       1       3       2       1       1       3       2       1       1       3
       2       1       1       3       2       1       1       3       2       1
       1       3       2       1       1       3       2       1       1       3
       2       1       1       3       2       1       1       3       2       1
       1       3       2       1       1       3       2       1       1       3
       2       1       1       3       2       1       1       3       2       1
       1       3       2       1       1       3       2       1       1       3
       2       1       1       3       2       1       1       3       2       1
       1       3       2       1       1       3       2       1       1       3
       2       1       1       3       2       1       1       3       2       1
       1       3       2       1       1       3       2       1       1       3
       2       1       1       3       2       1       1       3       2       1
       1       3       2       1       1       3       2       1       1       3
       2       1       1       3       2       1       1       3       2       1
       1       3       2       1       1       3       2       1       1       3
       2       1       1       3       2       1       1       3       2       1
       1       3       2       1       1       3       2       1       1       3
       2       1       1       3       2       1       1       3       2       1
       1       3       2       1       1       3       2       1       1       3
       2       1       1       3       2       1       1       3       2       1
       1       3       2       1       1       3       2       1       1       3
       2       1       1       3       2       1       1       3       2       1
       1       3       2       1       1       3       2       1       1       3
       2       1       1       3       2       1       1       3       2       1
       1       3       2       1       1       3       2       1       1       3
       2       1       1       3       2       1       1       3       2       1
       1       3       2       1       1       3       2       1       1       3
       2       1       1       3       2       1       1       3       2       1
       1       3       2       1       1       3       2       1       1       3
       2       1       1       3       2       1       1       3       2       1
       1       3       2       1       1       3       2       1       1       3
       2       1       1       3       2       1       1       3       2       1
       1       3       2       1       1       3       2       1       1       3
       2       1       1       3       2       1       1       3       2       1
       1       3       2       1       1       3       2       1       1       3
       2       1       1       3       2       1       1       3       2       1
       1       3       2       1       1       3       2       1       1       3
       2       1       1       3       2       1       1       3       2       1
       1       3       2       1       1       3       2       1       1       3
       2       1       1       3       2       1       1       3       2       1
       1       3       2       1       1       3       2       1       1       3
       2       1       1       3       2       1       1       3       2       1
       1       3       2       1       1       3       2       1       1       3
       2       1       1       3       2       1       1       3       2       1
       1       3       2       1       1       3       2       1       1       3
       2       1       1       3       2       1       1       3       2       1
       1       3       2       1       1       3       2       1       1       3
       2       1       1       3       2       1       1       3       2       1
       1       3       2       1       1       3       2       1       1       3
       2       1       1       3       2       1       1       3       2       1
       1       3       2       1       1       3       2       1       1       3
       2       1       1       3       2       1       1       3       2       1
       1       3       2       1       1       3       2       1       1       3
       2       1       1       3       2       1       1       3       2       1
       1       3       2       1       1       3       2       1       1       3
       2       1       1       3       2       1       1       3       2       1
       1       3       2       1       1       3       2       1       1       3
       2       1       1       3       2       1       1       3       2       1
       1       3       2       1       1       3       2       1       1       3
       2       1       1       3       2       1       1       3       2       1
       1       3       2       1       1       3       2       1       1       3
       2       1       1       3       2       1       1       3       2       1
       1       3       2       1       1       3       2       1       1       3
       2       1       1       3       2       1       1       3       2       1
       1       3       2       1       1       3       2       1       1       3
       2       1       1       3       2       1       1       3       2       1
       1       3       2       1       1       3       2       1       1       3
       2       1       1       3       2       1       1       3       2       1
       1       3       2       1       1       3       2       1       1       3
       2       1       1       3       2       1       1       3       2       1
       1       3       2       1       1       3       2       1       1       3
       2       1       1       3       2       1       1       3       2       1
       1       3       2       1       1       3       2       1       1       3
       2       1       1       3       2       1       1       3       2       1
       1       3       2       1       1       3       2       1       1       3
       2       1       1       3       2       1       1       3       2       1
       1       3       2       1       1       3       2       1       1       3
       2       1       1       3       2       1       1       3       2       1
       1       3       2       1       1       3       2       1       1       3
       2       1       1       3       2       1       1       3       2       1
       1       3       2       1       1       3       2       1       1       3
       2       1       1       3       2       1       1       3       2       1
       1       3       2       1       1       3       2       1       1       3
       2       1       1       3       2       1       1       3       2       1
       1       3       2       1       1       3       2       1       1       3
       2       1       1       3       2       1       1       3       2       1
       1       3       2       1       1       3       2       1       1       3
       2       1       1       3       2       1       1       3       2       1
       1       3       2       1       1       3       2       1       1       3
       2       1       1       3       2       1       1       3       2       1
       1       3       2       1       1       3       2       1       1       3
       2       1       1       3       2       1       1       3       2       1
       1       3       2       1       1       3       2       1       1       3
       2       1       1       3       2       1       1       3       2       1
       1       3       2       1       1       3       2       1       1       3
       2       1       1       3       2       1       1       3       2       1
       1       3       2       1       1       3       2       1       1       3
       2       1       1       3       2       1       1       3       2       1
       1       3       2       1       1       3       2       1       1       3
       2       1       1       3       2       1       1       3       2       1
       1       3       2       1       1       3       2       1       1       3
       2       1       1       3       2       1       1       3       2       1
       1       3       2       1       1       3       2       1       1       3
       2       1       1       3       2       1       1       3       2       1
       1       3       2       1       1       3       2       1       1       3
       2       1       1       3       2       1       1       3       2       1
       1       3       2       1       1       3       2       1       1       3
       2       1       1       3       2       1       1       3       2       1
       1       3       2       1       1       3       2       1       1       3
       2       1       1       3       2       1       1       3       2       1
       1       3       2       1       1       3       2       1       1       3
       2       1       1       3       2       1       1       3       2       1
       1       3       2       1       1       3       2       1       1       3
       2       1       1       3       2       1       1       3       2       1
       1       3       2       1       1       3       2       1       1       3
       2       1       1       3       2       1       1       3       2       1
       1       3       2       1       1       3       2       1       1       3
       2       1       1       3       2       1       1       3       2       1
       1       3       2       1       1       3       2       1       1       3
       2       1       1       3       2       1       1       3       2       1
       1       3       2       1       1       3       2       1       1       3
       2       1       1       3       2       1       1       3       2       1
       1       3       2       1       1       3       2       1       1       3
       2       1       1       3       2       1       1       3       2       1
       1       3       2       1       1       3       2       1       1       3
       2       1       1       3       2       1       1       3       2       1
       1       3       2       1       1       3       2       1       1       3
       2       1       1       3       2       1       1       3       2       1
       1       3       2       1       1       3       2       1       1       3
       2       1       1       3       2       1       1       3       2       1
       1       3       2       1       1       3       2       1       1       3
       2       1       1       3       2       1       1       3       2       1
       1       3       2       1       1       3       2       1       1       3
       2       1       1       3       2       1       1       3       2       1
       1       3       2       1       1       3       2       1       1       3
       2       1       1       3       2       1       1       3       2       1
       1       3       2       1       1       3       2       1       1       3
       2       1       1       3       2       1       1       3       2       1
       1       3       2       1       1       3       2       1       1       3
       2       1       1       3       2       1       1       3       2       1
       1       3       2       1       1       3       2       1       1       3
       2       1       1       3       2       1       1       3       2       1
       1       3       2       1       1       3       2       1       1       3
       2       1       1       3       2       1       1       3       2       1
       1       3       2       1       1       3       2       1       1       3
       2       1       1       3       2       1       1       3       2       1
       1       3       2       1       1       3       2       1       1       3
       2       1       1       3       2       1       1       3       2       1
       1       3       2       1       1       3       2       1       1       3
       2       1       1       3       2       1       1       3       2       1
       1       3       2       1       1       3       2       1       1       3
       2       1       1       3       2       1       1       3       2       1
       1       3       2       1       1       3       2       1       1       3
       2       1       1       3       2       1       1       3       2       1
       1       3       2       1       1       3       2       1       1       3
       2       1       1       3       2       1       1       3       2       1
       1       3       2       1       1       3       2       1       1       3
       2       1       1       3       2       1       1       3       2       1
       1       3       2       1       1       3       2       1       1       3
       2       1       1       3       2       1       1       3       2       1
       1       3       2       1       1       3       2       1       1       3
       2       1       1       3       2       1       1       3       2       1
       1       3       2       1       1       3       2       1       1       3
       2       1       1       3       2       1       1       3       2       1
       1       3       2       1       1       3       2       1       1       3
       2       1       1       3       2       1       1       3       2       1
       1       3       2       1       1       3       2       1       1       3
       2       1       1       3       2       1       1       3       2       1
       1       3       2       1       1       3       2       1       1       3
       2       1       1       3       2       1       1       3       2       1
       1       3       2       1       1       3       2       1       1       3
       2       1       1       3       2       1       1       3       2       1
       1       3       2       1       1       3       2       1       1       3
       2       1       1       3       2       1       1       3       2       1
       1       3       2       1       1       3       2       1       1       3
       2       1       1       3       2       1       1       3       2       1
       1       3       2       1       1       3       2       1       1       3
       2       1       1       3       2       1       1       3       2       1
       1       3       2       1       1       3       2       1       1       3
       2       1       1       3       2       1       1       3       2       1
       1       3       2       1       1       3       2       1       1       3
       2       1       1       3       2       1       1       3       2       1
       1       3       2       1       1       3       2       1       1       3
       2       1       1       3       2       1       1       3       2       1
       1       3       2       1       1       3       2       1       1       3
       2       1       1       3       2       1       1       3       2       1
       1       3       2       1       1       3       2       1       1       3
       2       1       1       3       2       1       1       3       2       1
       1       3       2       1       1       3       2       1       1       3
       2       1       1       3       2       1       1       3       2       1
       1       3       2       1       1       3       2       1       1       3
       2       1       1       3       2       1       1       3       2       1
       1       3       2       1       1       3       2       1       1       3
       2       1       1       3       2       1       1       3       2       1
       1       3       2       1       1       3       2       1       1       3
       2       1       1       3       2       1       1       3       2       1
       1       3       2       1       1       3       2       1       1       3
       2       1       1       3       2       1       1       3       2       1
       1       3       2       1       1       3       2       1       1       3
       2       1       1       3       2       1       1       3       2       1
       1       3       2       1       1       3       2       1       1       3
       2       1       1       3       2       1       1       3       2       1
       1       3       2       1       1       3       2       1       1       3
       2       1       1       3       2       1       1       3       2       1
       1       3       2       1       1       3       2       1       1       3
       2       1       1       3       2       1       1       3       2       1
       1       3       2       1       1       3       2       1       1       3
       2       1       1       3       2       1       1       3       2       1
       1       3       2       1       1       3       2       1       1       3
       2       1       1       3       2       1       1       3       2       1
       1       3       2       1       1       3       2       1       1       3
       2       1       1       3       2       1       1       3       2       1
       1       3       2       1       1       3       2       1       1       3
       2       1       1       3       2       1       1       3       2       1
       1       3       2       1       1       3       2       1       1       3
       2       1       1       3       2       1       1       3       2       1
       1       3       2       1       1       3       2       1       1       3
       2       1       1       3       2       1       1       3       2       1
       1       3       2       1       1       3       2       1       1       3
       2       1       1       3       2       1       1       3       2       1
       1       3       2       1       1       3       2       1       1       3
       2       1       1       3       2       1       1       3       2       1
       1       3       2       1       1       3       2       1       1       3
       2       1       1       3       2       1       1       3       2       1
       1       3       2       1       1       3       2       1       1       3
       2       1       1       3       2       1       1       3       2       1
       1       3       2       1       1       3       2       1       1       3
       2       1       1       3       2       1       1       3       2       1
       1       3       2       1       1       3       2       1       1       3
       2       1       1       3       2       1       1       3       2       1
       1       3       2       1       1       3       2       1       1       3
       2       1       1       3       2       1       1       3       2       1
       1       3       2       1       1       3       2       1       1       3
       2       1       1       3       2       1       1       3       2       1
       1       3       2       1       1       3       2       1       1       3
       2       1       1       3       2       1       1       3       2       1
       1       3       2       1       1       3       2       1       1       3
       2       1       1       3       2       1       1       3       2       1
       1       3       2       1       1       3       2       1       1       3
       2       1       1       3       2       1       1       3       2       1
       1       3       2       1       1       3       2       1       1       3
       2       1       1       3       2       1       1       3       2       1
       1       3       2       1       1       3       2       1       1       3
       2       1       1       3       2       1       1       3       2       1
       1       3       2       1       1       3       2       1       1       3
       2       1       1       3       2       1       1       3       2       1
       1       3       2       1       1       3       2       1       1       3
       2       1       1       3       2       1       1       3       2       1
       1       3       2       1       1       3       2       1       1       3
       2       1       1       3       2       1       1       3       2       1
       1       3       2       1       1       3       2       1       1       3
       2       1       1       3       2       1       1       3       2       1
       1       3       2       1       1       3       2       1       1       3
       2       1       1       3       2       1       1       3       2       1
       1       3       2       1       1       3       2       1       1       3
       2       1       1       3       2       1       1       3       2       1
       1       3       2       1       1       3       2       1       1       3
       2       1       1       3       2       1       1       3       2       1
       1       3       2       1       1       3       2       1       1       3
       2       1       1       3       2       1       1       3       2       1
       1       3       2       1       1       3       2       1       1       3
       2       1       1       3       2       1       1       3       2       1
       1       3       2       1       1       3       2       1       1       3
       2       1       1       3       2       1       1       3       2       1
       1       3       2       1       1       3       2       1       1       3
       2       1       1       3       2       1       1       3       2       1
       1       3       2       1       1       3       2       1       1       3
       2       1       1       3       2       1       1       3       2       1
       1       3       2       1       1       3       2       1       1       3
       2       1       1       3       2       1       1       3       2       1
       1       3       2       1       1       3       2       1       1       3
       2       1       1       3       2       1       1       3       2       1
       1       3       2       1       1       3       2       1       1       3
       2       1       1       3       2       1       1       3       2       1
       1       3       2       1       1       3       2       1       1       3
       2       1       1       3       2       1       1       3       2       1
       1       3       2       1       1       3       2       1       1       3
       2       1       1       3       2       1       1       3       2       1
       1       3       2       1       1       3       2       1       1       3
       2       1       1       3       2       1       1       3       2       1
       1       3       2       1       1       3       2       1       1       3
       2       1       1       3       2       1       1       3       2       1
       1       3       2       1       1       3       2       1       1       3
       2       1       1       3       2       1       1       3       2       1
       1       3       2       1       1       3       2       1       1       3
       2       1       1       3       2       1       1       3       2       1
       1       3       2       1       1       3       2       1       1       3
       2       1       1       3       2       1       1       3       2       1
       1       3       2       1       1       3       2       1       1       3
       2       1       1       3       2       1       1       3       2       1
       1       3       2       1       1       3       2       1       1       3
       2       1       1       3       2       1       1       3       2       1
       1       3       2       1       1       3       2       1       1       3
       2       1       1       3       2       1       1       3       2       1
       1       3       2       1       1       3       2       1       1       3
       2       1       1       3       2       1       1       3       2       1
       1       3       2       1       1       3       2       1       1       3
       2       1       1       3       2       1       1       3       2       1
       1       3       2       1       1       3       2       1       1       3
       2       1       1       3       2       1       1       3       2       1
       1       3       2       1       1       3       2       1       1       3
       2       1       1       3       2       1       1       3       2       1
       1       3       2       1       1       3       2       1       1       3
       2       1       1       3       2       1       1       3       2       1
       1       3       2       1       1       3       2       1       1       3
       2       1       1       3       2       1       1       3       2       1
       1       3       2       1       1       3       2       1       1       3
       2       1       1       3       2       1       1       3       2       1
       1       3       2       1       1       3       2       1       1       3
       2       1       1       3       2       1       1       3       2       1
       1       3       2       1       1       3       2       1       1       3
       2       1       1       3       2       1       1       3       2       1
       1       3       2       1       1       3       2       1       1       3
       2       1       1       3       2       1       1       3       2       1
       1       3       2       1       1       3       2       1       1       3
       2       1       1       3       2       1       1       3       2       1
       1       3       2       1       1       3       2       1       1       3
       2       1       1       3       2       1       1       3       2       1
       1       3       2       1       1       3       2       1       1       3
       2       1       1       3       2       1       1       3       2       1
       1       3       2       1       1       3       2       1       1       3
       2       1       1       3       2       1       1       3       2       1
       1       3       2       1       1       3       2       1       1       3
       2       1       1       3       2       1       1       3       2       1
       1       3       2       1       1       3       2       1       1       3
       2       1       1       3       2       1       1       3       2       1
       1       3       2       1       1       3       2       1       1       3
       2       1       1       3       2       1       1       3       2       1
       1       3       2       1       1       3       2       1       1       3
       2       1       1       3       2       1       1       3       2       1
       1       3       2       1       1       3       2       1       1       3
       2       1       1       3       2       1       1       3       2       1
       1       3       2       1       1       3       2       1       1       3
       2       1       1       3       2       1       1       3       2       1
       1       3       2       1       1       3       2       1       1       3
       2       1       1       3       2       1       1       3       2       1
       1       3       2       1       1       3       2       1       1       3
       2       1       1       3       2       1       1       3       2       1
       1       3       2       1       1       3       2       1       1       3
       2       1       1       3       2       1       1       3       2       1
       1       3       2       1       1       3       2       1       1       3
       2       1       1       3       2       1       1       3       2       1
       1       3       2       1       1       3       2       1       1       3
       2       1       1       3       2       1       1       3       2       1
       1       3       2       1       1       3       2       1       1       3
       2       1       1       3       2       1       1       3       2       1
       1       3       2       1       1       3       2       1       1       3
       2       1       1       3       2       1       1       3       2       1
       1       3       2       1       1       3       2       1       1       3
       2       1       1       3       2       1       1       3       2       1
       1       3       2       1       1       3       2       1       1       3
       2       1       1       3       2       1       1       3       2       1
       1       3       2       1       1       3       2       1       1       3
       2       1       1       3       2       1       1       3       2       1
       1       3       2       1       1       3       2       1       1       3
       2       1       1       3       2       1       1       3       2       1
       1       3       2       1       1       3       2       1       1       3
       2       1       1       3       2       1       1       3       2       1
       1       3       2       1       1       3       2       1       1       3
       2       1       1       3       2       1       1       3       2       1
       1       3       2       1       1       3       2       1       1       3
       2       1       1       3       2       1       1       3       2       1
       1       3       2       1       1       3       2       1       1       3
       2       1       1       3       2       1       1       3       2       1
       1       3       2       1       1       3       2       1       1       3
       2       1       1       3       2       1       1       3       2       1
       1       3       2       1       1       3       2       1       1       3
       2       1       1       3       2       1       1       3       2       1
       1       3       2       1       1       3       2       1       1       3
       2       1       1       3       2       1       1       3       2       1
       1       3       2       1       1       3       2       1       1       3
       2       1       1       3       2       1       1       3       2       1
       1       3       2       1       1       3       2       1       1       3
       2       1       1       3       2       1       1       3       2       1
       1       3       2       1       1       3       2       1       1       3
       2       1       1       3       2       1       1       3       2       1
       1       3       2       1       1       3       2       1       1       3
       2       1       1       3       2       1       1       3       2       1
       1       3       2       1       1       3       2       1       1       3
       2       1       1       3       2       1       1       3       2       1
       1       3       2       1       1       3       2       1       1       3
       2       1       1       3       2       1       1       3       2       1
       1       3       2       1       1       3       2       1       1       3
       2       1       1       3       2       1       1       3       2       1
       1       3       2       1       1       3       2       1       1       3
       2       1       1       3       2       1       1       3       2       1
       1       3       2       1       1       3       2       1       1       3
       2       1       1       3       2       1       1       3       2       1
       1       3       2       1       1       3       2       1       1       3
       2       1       1       3       2       1       1       3       2       1
       1       3       2       1       1       3       2       1       1       3
       2       1       1       3       2       1       1       3       2       1
       1       3       2       1       1       3       2       1       1       3
       2       1       1       3       2       1       1       3       2       1
       1       3       2       1       1       3       2       1       1       3
       2       1       1       3       2       1       1       3       2       1
       1       3       2       1       1       3       2       1       1       3
       2       1       1       3       2       1       1       3       2       1
       1       3       2       1       1       3       2       1       1       3
       2       1       1       3       2       1       1       3       2       1
       1       3       2       1       1       3       2       1       1       3
       2       1       1       3       2       1       1       3       2       1
       1       3       2       1       1       3       2       1       1       3
       2       1       1       3       2       1       1       3       2       1
       1       3       2       1       1       3       2       1       1       3
       2       1       1       3       2       1       1       3       2       1
       1       3       2       1       1       3       2       1       1       3
       2       1       1       3       2       1       1       3       2       1
       1       3       2       1       1       3       2       1       1       3
       2       1       1       3       2       1       1       3       2       1
       1       3       2       1       1       3       2       1       1       3
       2       1       1       3       2       1       1       3       2       1
       1       3       2       1       1       3       2       1       1       3
       2       1       1       3       2       1       1       3       2       1
       1       3       2       1       1       3       2       1       1       3
       2       1       1       3       2       1       1       3       2       1
       1       3       2       1       1       3       2       1       1       3
       2       1       1       3       2       1       1       3       2       1
       1       3       2       1       1       3       2       1       1       3
       2       1       1       3       2       1       1       3       2       1
       1       3       2       1       1       3       2       1       1       3
       2       1       1       3       2       1       1       3       2       1
       1       3       2       1       1       3       2       1       1       3
       2       1       1       3       2       1       1       3       2       1
       1       3       2       1       1       3       2       1       1       3
       2       1       1       3       2       1       1       3       2       1
       1       3       2       1       1       3       2       1       1       3
       2       1       1       3       2       1       1       3       2       1
       1       3       2       1       1       3       2       1       1       3
       2       1       1       3       2       1       1       3       2       1
       1       3       2       1       1       3       2       1       1       3
       2       1       1       3       2       1       1       3       2       1
       1       3       2       1       1       3       2       1       1       3
       2       1       1       3       2       1       1       3       2       1
       1       3       2       1       1       3       2       1       1       3
       2       1       1       3       2       1       1       3       2       1
       1       3       2       1       1       3       2       1       1       3
       2       1       1       3       2       1       1       3       2       1
       1       3       2       1       1       3       2       1       1       3
       2       1       1       3       2       1       1       3       2       1
       1       3       2       1       1       3       2       1       1       3
       2       1       1       3       2       1       1       3       2       1
       1       3       2       1       1       3       2       1       1       3
       2       1       1       3       2       1       1       3       2       1
       1       3       2       1       1       3       2       1       1       3
       2       1       1       3       2       1       1       3       2       1
       1       3       2       1       1       3       2       1       1       3
       2       1       1       3       2       1       1       3       2       1
       1       3       2       1       1       3       2       1       1       3
       2       1       1       3       2       1       1       3       2       1
       1       3       2       1       1       3       2       1       1       3
       2       1       1       3       2       1       1       3       2       1
       1       3       2       1       1       3       2       1       1       3
       2       1       1       3       2       1       1       3       2       1
       1       3       2       1       1       3       2       1       1       3
       2       1       1       3       2       1       1       3       2       1
       1       3       2       1       1       3       2       1       1       3
       2       1       1       3       2       1       1       3       2       1
       1       3       2       1       1       3       2       1       1       3
       2       1       1       3       2       1       1       3       2       1
       1       3       2       1       1       3       2       1       1       3
       2       1       1       3       2       1       1       3       2       1
       1       3       2       1       1       3       2       1       1       3
       2       1       1       3       2       1       1       3       2       1
       1       3       2       1       1       3       2       1       1       3
       2       1       1       3       2       1       1       3       2       1
       1       3       2       1       1       3       2       1       1       3
       2       1       1       3       2       1       1       3       2       1
       1       3       2       1       1       3       2       1       1       3
       2       1       1       3       2       1       1       3       2       1
       1       3       2       1       1       3       2       1       1       3
       2       1       1       3       2       1       1       3       2       1
       1       3       2       1       1       3       2       1       1       3
       2       1       1       3       2       1       1       3       2       1
       1       3       2       1       1       3       2       1       1       3
       2       1       1       3       2       1       1       3       2       1
       1       3       2       1       1       3       2       1       1       3
       2       1       1       3       2       1       1       3       2       1
       1       3       2       1       1       3       2       1       1       3
       2       1       1       3       2       1       1       3       2       1
       1       3       2       1       1       3       2       1       1       3
       2       1       1       3       2       1       1       3       2       1
       1       3       2       1       1       3       2       1       1       3
       2       1       1       3       2       1       1       3       2       1
       1       3       2       1       1       3       2       1       1       3
       2       1       1       3       2       1       1       3       2       1
       1       3       2       1       1       3       2       1       1       3
       2       1       1       3       2       1       1       3       2       1
       1       3       2       1       1       3       2       1       1       3
       2       1       1       3       2       1       1       3       2       1
       1       3       2       1       1       3       2       1       1       3
       2       1       1       3       2       1       1       3       2       1
       1       3       2       1       1       3       2       1       1       3
       2       1       1       3       2       1       1       3       2       1
       1       3       2       1       1       3       2       1       1       3
       2       1       1       3       2       1       1       3       2       1
       1       3       2       1       1       3       2       1       1       3
       2       1       1       3       2       1       1       3       2       1
       1       3       2       1       1       3       2       1       1       3
       2       1       1       3       2       1       1       3       2       1
       1       3       2       1       1       3       2       1       1       3
       2       1       1       3       2       1       1       3       2       1
       1       3       2       1       1       3       2       1       1       3
       2       1       1       3       2       1       1       3       2       1
       1       3       2       1       1       3       2       1       1       3
       2       1       1       3       2       1       1       3       2       1
       1       3       2       1       1       3       2       1       1       3
       2       1       1       3       2       1       1       3       2       1
       1       3       2       1       1       3       2       1       1       3
       2       1       1       3       2       1       1       3       2       1
       1       3       2       1       1       3       2       1       1       3
       2       1       1       3       2       1       1       3       2       1
       1       3       2       1       1       3       2       1       1       3
       2       1       1       3       2       1       1       3       2       1
       1       3       2       1       1       3       2       1       1       3
       2       1       1       3       2       1       1       3       2       1
       1       3       2       1       1       3       2       1       1       3
       2       1       1       3       2       1       1       3       2       1
       1       3       2       1       1       3       2       1       1       3
       2       1       1       3       2       1       1       3       2       1
       1       3       2       1       1       3       2       1       1       3
       2       1       1       3       2       1       1       3       2       1
       1       3       2       1       1       3       2       1       1       3
       2       1       1       3       2       1       1       3       2       1
       1       3       2       1       1       3       2       1       1       3
       2       1       1       3       2       1       1       3       2       1
       1       3       2       1       1       3       2       1       1       3
       2       1       1       3       2       1       1       3       2       1
       1       3       2       1       1       3       2       1       1       3
       2       1       1       3       2       1       1       3       2       1
       1       3       2       1       1       3       2       1       1       3
       2       1       1       3       2       1       1       3       2       1
       1       3       2       1       1       3       2       1       1       3
       2       1       1       3       2       1       1       3       2       1
       1       3       2       1       1       3       2       1       1       3
       2       1       1       3       2       1       1       3       2       1
       1       3       2       1       1       3       2       1       1       3
       2       1       1       3       2       1       1       3       2       1
       1       3       2       1       1       3       2       1       1       3
       2       1       1       3       2       1       1       3       2       1
       1       3       2       1       1       3       2       1       1       3
       2       1       1       3       2       1       1       3       2       1
       1       3       2       1       1       3       2       1       1       3
       2       1       1       3       2       1       1       3       2       1
       1       3       2       1       1       3       2       1       1       3
       2       1       1       3       2       1       1       3       2       1
       1       3       2       1       1       3       2       1       1       3
       2       1       1       3       2       1       1       3       2       1
       1       3       2       1       1       3       2       1       1       3
       2       1       1       3       2       1       1       3       2       1
       1       3       2       1       1       3       2       1       1       3
       2       1       1       3       2       1       1       3       2       1
       1       3       2       1       1       3       2       1       1       3
       2       1       1       3       2       1       1       3       2       1
       1       3       2       1       1       3       2       1       1       3
       2       1       1       3       2       1       1       3       2       1
       1       3       2       1       1       3       2       1       1       3
       2       1       1       3       2       1       1       3       2       1
       1       3       2       1       1       3       2       1       1       3
       2       1       1       3       2       1       1       3       2       1
       1       3       2       1       1       3       2       1       1       3
       2       1       1       3       2       1       1       3       2       1
       1       3       2       1       1       3       2       1       1       3
       2       1       1       3       2       1       1       3       2       1
       1       3       2       1       1       3       2       1       1       3
       2       1       1       3       2       1       1       3       2       1
       1       3       2       1       1       3       2       1       1       3
       2       1       1       3       2       1       1       3       2       1
       1       3       2       1       1       3       2       1       1       3
       2       1       1       3       2       1       1       3       2       1
       1       3       2       1       1       3       2       1       1       3
       2       1       1       3       2       1       1       3       2       1
       1       3       2       1       1       3       2       1       1       3
       2       1       1       3       2       1       1       3       2       1
       1       3       2       1       1       3       2       1       1       3
       2       1       1       3       2       1       1       3       2       1
       1       3       2       1       1       3       2       1       1       3
       2       1       1       3       2       1       1       3       2       1
       1       3       2       1       1       3       2       1       1       3
       2       1       1       3       2       1       1       3       2       1
       1       3       2       1       1       3       2       1       1       3
       2       1       1       3       2       1       1       3       2       1
       1       3       2       1       1       3       2       1       1       3
       2       1       1       3       2       1       1       3       2       1
       1       3       2       1       1       3       2       1       1       3
       2       1       1       3       2       1       1       3       2       1
       1       3       2       1       1       3       2       1       1       3
       2       1       1       3       2       1       1       3       2       1
       1       3       2       1       1       3       2       1       1       3
       2       1       1       3       2       1       1       3       2       1
       1       3       2       1       1       3       2       1       1       3
       2       1       1       3       2       1       1       3       2       1
       1       3       2       1       1       3       2       1       1       3
       2       1       1       3       2       1       1       3       2       1
       1       3       2       1       1       3       2       1       1       3
       2       1       1       3       2       1       1       3       2       1
       1       3       2       1       1       3       2       1       1       3
       2       1       1       3       2       1       1       3       2       1
       1       3       2       1       1       3       2       1       1       3
       2       1       1       3       2       1       1       3       2       1
       1       3       2       1       1       3       2       1       1       3
       2       1       1       3       2       1       1       3       2       1
       1       3       2       1       1       3       2       1       1       3
       2       1       1       3       2       1       1       3       2       1
       1       3       2       1       1       3       2       1       1       3
       2       1       1       3       2       1       1       3       2       1
       1       3       2       1       1       3       2       1       1       3
       2       1       1       3       2       1       1       3       2       1
       1       3       2       1       1       3       2       1       1       3
       2       1       1       3       2       1       1       3       2       1
       1       3       2       1       1       3       2       1       1       3
       2       1       1       3       2       1       1       3       2       1
       1       3       2       1       1       3       2       1       1       3
       2       1       1       3       2       1       1       3       2       1
       1       3       2       1       1       3       2       1       1       3
       2       1       1       3       2       1       1       3       2       1
       1       3       2       1       1       3       2       1       1       3
       2       1       1       3       2       1       1       3       2       1
       1       3       2       1       1       3       2       1       1       3
       2       1       1       3       2       1       1       3       2       1
       1       3       2       1       1       3       2       1       1       3
       2       1       1       3       2       1       1       3       2       1
       1       3       2       1       1       3       2       1       1       3
       2       1       1       3       2       1       1       3       2       1
       1       3       2       1       1       3       2       1       1       3
       2       1       1       3       2       1       1       3       2       1
       1       3       2       1       1       3       2       1       1       3
       2       1       1       3       2       1       1       3       2       1
       1       3       2       1       1       3       2       1       1       3
       2       1       1       3       2       1       1       3       2       1
       1       3       2       1       1       3       2       1       1       3
       2       1       1       3       2       1       1       3       2       1
       1       3       2       1       1       3       2       1       1       3
       2       1       1       3       2       1       1       3       2       1
       1       3       2       1       1       3       2       1       1       3
       2       1       1       3       2       1       1       3       2       1
       1       3       2       1       1       3       2       1       1       3
       2       1       1       3       2       1       1       3       2       1
       1       3       2       1       1       3       2       1       1       3
       2       1       1       3       2       1       1       3       2       1
       1       3       2       1       1       3       2       1       1       3
       2       1       1       3       2       1       1       3       2       1
       1       3       2       1       1       3       2       1       1       3
       2       1       1       3       2       1       1       3       2       1
       1       3       2       1       1       3       2       1       1       3
       2       1       1       3       2       1       1       3       2       1
       1       3       2       1       1       3       2       1       1       3
       2       1       1       3       2       1       1       3       2       1
       1       3       2       1       1       3       2       1       1       3
       2       1       1       3       2       1       1       3       2       1
       1       3       2       1       1       3       2       1       1       3
       2       1       1       3       2       1       1       3       2       1
       1       3       2       1       1       3       2       1       1       3
       2       1       1       3       2       1       1       3       2       1
       1       3       2       1       1       3       2       1       1       3
       2       1       1       3       2       1       1       3       2       1
       1       3       2       1       1       3       2       1       1       3
       2       1       1       3       2       1       1       3       2       1
       1       3       2       1       1       3       2       1       1       3
       2       1       1       3       2       1       1       3       2       1
       1       3       2       1       1       3       2       1       1       3
       2       1       1       3       2       1       1       3       2       1
       1       3       2       1       1       3       2       1       1       3
       2       1       1       3       2       1       1       3       2       1
       1       3       2       1       1       3       2       1       1       3
       2       1       1       3       2       1       1       3       2       1
       1       3       2       1       1       3       2       1       1       3
       2       1       1       3       2       1       1       3       2       1
       1       3       2       1       1       3       2       1       1       3
       2       1       1       3       2       1       1       3       2       1
       1       3       2       1       1       3       2       1       1       3
       2       1       1       3       2       1       1       3       2       1
       1       3       2       1       1       3       2       1       1       3
       2       1       1       3       2       1       1       3       2       1
       1       3       2       1       1       3       2       1       1       3
       2       1       1       3       2       1       1       3       2       1
       1       3       2       1       1       3       2       1       1       3
       2       1       1       3       2       1       1       3       2       1
       1       3       2       1       1       3       2       1       1       3
       2       1       1       3       2       1       1       3       2       1
       1       3       2       1       1       3       2       1       1       3
       2       1       1       3       2       1       1       3       2       1
       1       3       2       1       1       3       2       1       1       3
       2       1       1       3       2       1       1       3       2       1
       1       3       2       1       1       3       2       1       1       3
       2       1       1       3       2       1       1       3       2       1
       1       3       2       1       1       3       2       1       1       3
       2       1       1       3       2       1       1       3       2       1
       1       3       2       1       1       3       2       1       1       3
       2       1       1       3       2       1       1       3       2       1
       1       3       2       1       1       3       2       1       1       3
       2       1       1       3       2       1       1       3       2       1
       1       3       2       1       1       3       2       1       1       3
       2       1       1       3       2       1       1       3       2       1
       1       3       2       1       1       3       2       1       1       3
       2       1       1       3       2       1       1       3       2       1
       1       3       2       1       1       3       2       1       1       3
       2       1       1       3       2       1       1       3       2       1
       1       3       2       1       1       3       2       1       1       3
       2       1       1       3       2       1       1       3       2       1
       1       3       2       1       1       3       2       1       1       3
       2       1       1       3       2       1       1       3       2       1
       1       3       2       1       1       3       2       1       1       3
       2       1       1       3       2       1       1       3       2       1
       1       3       2       1       1       3       2       1       1       3
       2       1       1       3       2       1       1       3       2       1
       1       3       2       1       1       3       2       1       1       3
       2       1       1       3       2       1       1       3       2       1
       1       3       2       1       1       3       2       1       1       3
       2       1       1       3       2       1       1       3       2       1
       1       3       2       1       1       3       2       1       1       3
       2       1       1       3       2       1       1       3       2       1
       1       3       2       1       1       3       2       1       1       3
       2       1       1       3       2       1       1       3       2       1
       1       3       2       1       1       3       2       1       1       3
       2       1       1       3       2       1       1       3       2       1
       1       3       2       1       1       3       2       1       1       3
       2       1       1       3       2       1       1       3       2       1
       1       3       2       1       1       3       2       1       1       3
       2       1       1       3       2       1       1       3       2       1
       1       3       2       1       1       3       2       1       1       3
       2       1       1       3       2       1       1       3       2       1
       1       3       2       1       1       3       2       1       1       3
       2       1       1       3       2       1       1       3       2       1
       1       3       2       1       1       3       2       1       1       3
       2       1       1       3       2       1       1       3       2       1
       1       3       2       1       1       3       2       1       1       3
       2       1       1       3       2       1       1       3       2       1
       1       3       2       1       1       3       2       1       1       3
       2       1       1       3       2       1       1       3       2       1
       1       3       2       1       1       3       2       1       1       3
       2       1       1       3       2       1       1       3       2       1
       1       3       2       1       1       3       2       1       1       3
       2       1       1       3       2       1       1       3       2       1
       1       3       2       1       1       3       2       1       1       3
       2       1       1       3       2       1       1       3       2       1
       1       3       2       1       1       3       2       1       1       3
       2       1       1       3       2       1       1       3       2       1
       1       3       2       1       1       3       2       1       1       3
       2       1       1       3       2       1       1       3       2       1
       1       3       2       1       1       3       2       1       1       3
       2       1       1       3       2       1       1       3       2       1
       1       3       2       1       1       3       2       1       1       3
       2       1       1       3       2       1       1       3       2       1
       1       3       2       1       1       3       2       1       1       3
       2       1       1       3       2       1       1       3       2       1
       1       3       2       1       1       3       2       1       1       3
       2       1       1       3       2       1       1       3       2       1
       1       3       2       1       1       3       2       1       1       3
       2       1       1       3       2       1       1       3       2       1
       1       3       2       1       1       3       2       1       1       3
       2       1       1       3       2       1       1       3       2       1
       1       3       2       1       1       3       2       1       1       3
       2       1       1       3       2       1       1       3       2       1
       1       3       2       1       1       3       2       1       1       3
       2       1       1       3       2       1       1       3       2       1
       1       3       2       1       1       3       2       1       1       3
       2       1       1       3       2       1       1       3       2       1
       1       3       2       1       1       3       2       1       1       3
       2       1       1       3       2       1       1       3       2       1
       1       3       2       1       1       3       2       1       1       3
       2       1       1       3       2       1       1       3       2       1
       1       3       2       1       1       3       2       1       1       3
       2       1       1       3       2       1       1       3       2       1
       1       3       2       1       1       3       2       1       1       3
       2       1       1       3       2       1       1       3       2       1
       1       3       2       1       1       3       2       1       1       3
       2       1       1       3       2       1       1       3       2       1
       1       3       2       1       1       3       2       1       1       3
       2       1       1       3       2       1       1       3       2       1
       1       3       2       1       1       3       2       1       1       3
       2       1       1       3       2       1       1       3       2       1
       1       3       2       1       1       3       2       1       1       3
       2       1       1       3       2       1       1       3       2       1
       1       3       2       1       1       3       2       1       1       3
       2       1       1       3       2       1       1       3       2       1
       1       3       2       1       1       3       2       1       1       3
       2       1       1       3       2       1       1       3       2       1
       1       3       2       1       1       3       2       1       1       3
       2       1       1       3       2       1       1       3       2       1
       1       3       2       1       1       3       2       1       1       3
       2       1       1       3       2       1       1       3       2       1
       1       3       2       1       1       3       2       1       1       3
       2       1       1       3       2       1       1       3       2       1
       1       3       2       1       1       3       2       1       1       3
       2       1       1       3       2       1       1       3       2       1
       1       3       2       1       1       3       2       1       1       3
       2       1       1       3       2       1       1       3       2       1
       1       3       2       1       1       3       2       1       1       3
       2       1       1       3       2       1       1       3       2       1
       1       3       2       1       1       3       2       1       1       3
       2       1       1       3       2       1       1       3       2       1
       1       3       2       1       1       3       2       1       1       3
       2       1       1       3       2       1       1       3       2       1
       1       3       2       1       1       3       2       1       1       3
       2       1       1       3       2       1       1       3       2       1
       1       3       2       1       1       3       2       1       1       3
       2       1       1       3       2       1       1       3       2       1
       1       3       2       1       1       3       2       1       1       3
       2       1       1       3       2       1       1       3       2       1
       1       3       2       1       1       3       2       1       1       3
       2       1       1       3       2       1       1       3       2       1
       1       3       2       1       1       3       2       1       1       3
       2       1       1       3       2       1       1       3       2       1
       1       3       2       1       1       3       2       1       1       3
       2       1       1       3       2       1       1       3       2       1
       1       3       2       1       1       3       2       1       1       3
       2       1       1       3       2       1       1       3       2       1
       1       3       2       1       1       3       2       1       1       3
       2       1       1       3       2       1       1       3       2       1
       1       3       2       1       1       3       2       1       1       3
       2       1       1       3       2       1       1       3       2       1
       1       3       2       1       1       3       2       1       1       3
       2       1       1       3       2       1       1       3       2       1
       1       3       2       1       1       3       2       1       1       3
       2       1       1       3       2       1       1       3       2       1
       1       3       2       1       1       3       2       1       1       3
       2       1       1       3       2       1       1       3       2       1
       1       3       2       1       1       3       2       1       1       3
       2       1       1       3       2       1       1       3       2       1
       1       3       2       1       1       3       2       1       1       3
       2       1       1       3       2       1       1       3       2       1
       1       3       2       1       1       3       2       1       1       3
       2       1       1       3       2       1       1       3       2       1
       1       3       2       1       1       3       2       1       1       3
       2       1       1       3       2       1       1       3       2       1
       1       3       2       1       1       3       2       1       1       3
       2       1       1       3       2       1       1       3       2       1
       1       3       2       1       1       3       2       1       1       3
       2       1       1       3       2       1       1       3       2       1
       1       3       2       1       1       3       2       1       1       3
       2       1       1       3       2       1       1       3       2       1
       1       3       2       1       1       3       2       1       1       3
       2       1       1       3       2       1       1       3       2       1
       1       3       2       1       1       3       2       1       1       3
       2       1       1       3       2       1       1       3       2       1
       1       3       2       1       1       3       2       1       1       3
       2       1       1       3       2       1       1       3       2       1
       1       3       2       1       1       3       2       1       1       3
       2       1       1       3       2       1       1       3       2       1
       1       3       2       1       1       3       2       1       1       3
       2       1       1       3       2       1       1       3       2       1
       1       3       2       1       1       3       2       1       1       3
       2       1       1       3       2       1       1       3       2       1
       1       3       2       1       1       3       2       1       1       3
       2       1       1       3       2       1       1       3       2       1
       1       3       2       1       1       3       2       1       1       3
       2       1       1       3       2       1       1       3       2       1
       1       3       2       1       1       3       2       1       1       3
       2       1       1       3       2       1       1       3       2       1
       1       3       2       1       1       3       2       1       1       3
       2       1       1       3       2       1       1       3       2       1
       1       3       2       1       1       3       2       1       1       3
       2       1       1       3       2       1       1       3       2       1
       1       3       2       1       1       3       2       1       1       3
       2       1       1       3       2       1       1       3       2       1
       1       3       2       1       1       3       2       1       1       3
       2       1       1       3       2       1       1       3       2       1
       1       3       2       1       1       3       2       1       1       3
       2       1       1       3       2       1       1       3       2       1
       1       3       2       1       1       3       2       1       1       3
       2       1       1       3       2       1       1       3       2       1
       1       3       2       1       1       3       2       1       1       3
       2       1       1       3       2       1       1       3       2       1
       1       3       2       1       1       3       2       1       1       3
       2       1       1       3       2       1       1       3       2       1
       1       3       2       1       1       3       2       1       1       3
       2       1       1       3       2       1       1       3       2       1
       1       3       2       1       1       3       2       1       1       3
       2       1       1       3       2       1       1       3       2       1
       1       3       2       1       1       3       2       1       1       3
       2       1       1       3       2       1       1       3       2       1
       1       3       2       1       1       3       2       1       1       3
       2       1       1       3       2       1       1       3       2       1
       1       3       2       1       1       3       2       1       1       3
       2       1       1       3       2       1       1       3       2       1
       1       3       2       1       1       3       2       1       1       3
       2       1       1       3       2       1       1       3       2       1
       1       3       2       1       1       3       2       1       1       3
       2       1       1       3       2       1       1       3       2       1
       1       3       2       1       1       3       2       1       1       3
       2       1       1       3       2       1       1       3       2       1
       1       3       2       1       1       3       2       1       1       3
       2       1       1       3       2       1       1       3       2       1
       1       3       2       1       1       3       2       1       1       3
       2       1       1       3       2       1       1       3       2       1
       1       3       2       1       1       3       2       1       1       3
       2       1       1       3       2       1       1       3       2       1
       1       3       2       1       1       3       2       1       1       3
       2       1       1       3       2       1       1       3       2       1
       1       3       2       1       1       3       2       1       1       3
       2       1       1       3       2       1       1       3       2       1
       1       3       2       1       1       3       2       1       1       3
       2       1       1       3       2       1       1       3       2       1
       1       3       2       1       1       3       2       1       1       3
       2       1       1       3       2       1       1       3       2       1
       1       3       2       1       1       3       2       1       1       3
       2       1       1       3       2       1       1       3       2       1
       1       3       2       1       1       3       2       1       1       3
       2       1       1       3       2       1       1       3       2       1
       1       3       2       1       1       3       2       1       1       3
       2       1       1       3       2       1       1       3       2       1
       1       3       2       1       1       3       2       1       1       3
       2       1       1       3       2       1       1       3       2       1
       1       3       2       1       1       3       2       1       1       3
       2       1       1       3       2       1       1       3       2       1
       1       3       2       1       1       3       2       1       1       3
       2       1       1       3       2       1       1       3       2       1
       1       3       2       1       1       3       2       1       1       3
       2       1       1       3       2       1       1       3       2       1
       1       3       2       1       1       3       2       1       1       3
       2       1       1       3       2       1       1       3       2       1
       1       3       2       1       1       3       2       1       1       3
       2       1       1       3       2       1       1       3       2       1
       1       3       2       1       1       3       2       1       1       3
       2       1       1       3       2       1       1       3       2       1
       1       3       2       1       1       3       2       1       1       3
       2       1       1       3       2       1       1       3       2       1
       1       3       2       1       1       3       2       1       1       3
       2       1       1       3       2       1       1       3       2       1
       1       3       2       1       1       3       2       1       1       3
       2       1       1       3       2       1       1       3       2       1
       1       3       2       1       1       3       2       1       1       3
       2       1       1       3       2       1       1       3       2       1
       1       3       2       1       1       3       2       1       1       3
       2       1       1       3       2       1       1       3       2       1
       1       3       2       1       1       3       2       1       1       3
       2       1       1       3       2       1       1       3       2       1
       1       3       2       1       1       3       2       1       1       3
       2       1       1       3       2       1       1       3       2       1
       1       3       2       1       1       3       2       1       1       3
       2       1       1       3       2       1       1       3       2       1
       1       3       2       1       1       3       2       1       1       3
       2       1       1       3       2       1       1       3       2       1
       1       3       2       1       1       3       2       1       1       3
       2       1       1       3       2       1       1       3       2       1
       1       3       2       1       1       3       2       1       1       3
       2       1       1       3       2       1       1       3       2       1
       1       3       2       1       1       3       2       1       1       3
       2       1       1       3       2       1       1       3       2       1
       1       3       2       1       1       3       2       1       1       3
       2       1       1       3       2       1       1       3       2       1
       1       3       2       1       1       3       2       1       1       3
       2       1       1       3       2       1       1       3       2       1
       1       3       2       1       1       3       2       1       1       3
       2       1       1       3       2       1       1       3       2       1
       1       3       2       1       1       3       2       1       1       3
       2       1       1       3       2       1       1       3       2       1
       1       3       2       1       1       3       2       1       1       3
       2       1       1       3       2       1       1       3       2       1
       1       3       2       1       1       3       2       1       1       3
       2       1       1       3       2       1       1       3       2       1
       1       3       2       1       1       3       2       1       1       3
       2       1       1       3       2       1       1       3       2       1
       1       3       2       1       1       3       2       1       1       3
       2       1       1       3       2       1       1       3       2       1
       1       3       2       1       1       3       2       1       1       3
       2       1       1       3       2       1       1       3       2       1
       1       3       2       1       1       3       2       1       1       3
       2       1       1       3       2       1       1       3       2       1
       1       3       2       1       1       3       2       1       1       3
       2       1       1       3       2       1       1       3       2       1
       1       3       2       1       1       3       2       1       1       3
       2       1       1       3       2       1       1       3       2       1
       1       3       2       1       1       3       2       1       1       3
       2       1       1       3       2       1       1       3       2       1
       1       3       2       1       1       3       2       1       1       3
       2       1       1       3       2       1       1       3       2       1
       1       3       2       1       1       3       2       1       1       3
       2       1       1       3       2       1       1       3       2       1
       1       3       2       1       1       3       2       1       1       3
       2       1       1       3       2       1       1       3       2       1
       1       3       2       1       1       3       2       1       1       3
       2       1       1       3       2       1       1       3       2       1
       1       3       2       1       1       3       2       1       1       3
       2       1       1       3       2       1       1       3       2       1
       1       3       2       1       1       3       2       1       1       3
       2       1       1       3       2       1       1       3       2       1
       1       3       2       1       1       3       2       1       1       3
       2       1       1       3       2       1       1       3       2       1
       1       3       2       1       1       3       2       1       1       3
       2       1       1       3       2       1       1       3       2       1
       1       3       2       1       1       3       2       1       1       3
       2       1       1       3       2       1       1       3       2       1
       1       3       2       1       1       3       2       1       1       3
       2       1       1       3       2       1       1       3       2       1
       1       3       2       1       1       3       2       1       1       3
       2       1       1       3       2       1       1       3       2       1
       1       3       2       1       1       3       2       1       1       3
       2       1       1       3       2       1       1       3       2       1
       1       3       2       1       1       3       2       1       1       3
       2       1       1       3       2       1       1       3       2       1
       1       3       2       1       1       3       2       1       1       3
       2       1       1       3       2       1       1       3       2       1
       1       3       2       1       1       3       2       1       1       3
       2       1       1       3       2       1       1       3       2       1
       1       3       2       1       1       3       2       1       1       3
       2       1       1       3       2       1       1       3       2       1
       1       3       2       1       1       3       2       1       1       3
       2       1       1       3       2       1       1       3       2       1
       1       3       2       1       1       3       2       1       1       3
       2       1       1       3       2       1       1       3       2       1
       1       3       2       1       1       3       2       1       1       3
       2       1       1       3       2       1       1       3       2       1
       1       3       2       1       1       3       2       1       1       3
       2       1       1       3       2       1       1       3       2       1
       1       3       2       1       1       3       2       1       1       3
       2       1       1       3       2       1       1       3       2       1
       1       3       2       1       1       3       2       1       1       3
       2       1       1       3       2       1       1       3       2       1
       1       3       2       1       1       3       2       1       1       3
       2       1       1       3       2       1       1       3       2       1
       1       3       2       1       1       3       2       1       1       3
       2       1       1       3       2       1       1       3       2       1
       1       3       2       1       1       3       2       1       1       3
       2       1       1       3       2       1       1       3       2       1
       1       3       2       1       1       3       2       1       1       3
       2       1       1       3       2       1       1       3       2       1
       1       3       2       1       1       3       2       1       1       3
       2       1       1       3       2       1       1       3       2       1
       1       3       2       1       1       3       2       1       1       3
       2       1       1       3       2       1       1       3       2       1
       1       3       2       1       1       3       2       1       1       3
       2       1       1       3       2       1       1       3       2       1
       1       3       2       1       1       3       2       1       1       3
       2       1       1       3       2       1       1       3       2       1
       1       3       2       1       1       3       2       1       1       3
       2       1       1       3       2       1       1       3       2       1
       1       3       2       1       1       3       2       1       1       3
       2       1       1       3       2       1       1       3       2       1
       1       3       2       1       1       3       2       1       1       3
       2       1       1       3       2       1       1       3       2       1
       1       3       2       1       1       3       2       1       1       3
       2       1       1       3       2       1       1       3       2       1
       1       3       2       1       1       3       2       1       1       3
       2       1       1       3       2       1       1       3       2       1
       1       3       2       1       1       3       2       1       1       3
       2       1       1       3       2       1       1       3       2       1
       1       3       2       1       1       3       2       1       1       3
       2       1       1       3       2       1       1       3       2       1
       1       3       2       1       1       3       2       1       1       3
       2       1       1       3       2       1       1       3       2       1
       1       3       2       1       1       3       2       1       1       3
       2       1       1       3       2       1       1       3       2       1
       1       3       2       1       1       3       2       1       1       3
       2       1       1       3       2       1       1       3       2       1
       1       3       2       1       1       3       2       1       1       3
       2       1       1       3       2       1       1       3       2       1
       1       3       2       1       1       3       2       1       1       3
       2       1       1       3       2       1       1       3       2       1
       1       3       2       1       1       3       2       1       1       3
       2       1       1       3       2       1       1       3       2       1
       1       3       2       1       1       3       2       1       1       3
       2       1       1       3       2       1       1       3       2       1
       1       3       2       1       1       3       2       1       1       3
       2       1       1       3       2       1       1       3       2       1
       1       3       2       1       1       3       2       1       1       3
       2       1       1       3       2       1       1       3       2       1
       1       3       2       1       1       3       2       1       1       3
       2       1       1       3       2       1       1       3       2       1
       1       3       2       1       1       3       2       1       1       3
       2       1       1       3       2       1       1       3       2       1
       1       3       2       1       1       3       2       1       1       3
       2       1       1       3       2       1       1       3       2       1
       1       3       2       1       1       3       2       1       1       3
       2       1       1       3       2       1       1       3       2       1
       1       3       2       1       1       3       2       1       1       3
       2       1       1       3       2       1       1       3       2       1
       1       3       2       1       1       3       2       1       1       3
       2       1       1       3       2       1       1       3       2       1
       1       3       2       1       1       3       2       1       1       3
       2       1       1       3       2       1       1       3       2       1
       1       3       2       1       1       3       2       1       1       3
       2       1       1       3       2       1       1       3       2       1
       1       3       2       1       1       3       2       1       1       3
       2       1       1       3       2       1       1       3       2       1
       1       3       2       1       1       3       2       1       1       3
       2       1       1       3       2       1       1       3       2       1
       1       3       2       1       1       3       2       1       1       3
       2       1       1       3       2       1       1       3       2       1
       1       3       2       1       1       3       2       1       1       3
       2       1       1       3       2       1       1       3       2       1
       1       3       2       1       1       3       2       1       1       3
       2       1       1       3       2       1       1       3       2       1
       1       3       2       1       1       3       2       1       1       3
       2       1       1       3       2       1       1       3       2       1
       1       3       2       1       1       3       2       1       1       3
       2       1       1       3       2       1       1       3       2       1
       1       3       2       1       1       3       2       1       1       3
       2       1       1       3       2       1       1       3       2       1
       1       3       2       1       1       3       2       1       1       3
       2       1       1       3       2       1       1       3       2       1
       1       3       2       1       1       3       2       1       1       3
       2       1       1       3       2       1       1       3       2       1
       1       3       2       1       1       3       2       1       1       3
       2       1       1       3       2       1       1       3       2       1
       1       3       2       1       1       3       2       1       1       3
       2       1       1       3       2       1       1       3       2       1
       1       3       2       1       1       3       2       1       1       3
       2       1       1       3       2       1       1       3       2       1
       1       3       2       1       1       3       2       1       1       3
       2       1       1       3       2       1       1       3       2       1
       1       3       2       1       1       3       2       1       1       3
       2       1       1       3       2       1       1       3       2       1
       1       3       2       1       1       3       2       1       1       3
       2       1       1       3       2       1       1       3       2       1
       1       3       2       1       1       3       2       1       1       3
       2       1       1       3       2       1       1       3       2       1
       1       3       2       1       1       3       2       1       1       3
       2       1       1       3       2       1       1       3       2       1
       1       3       2       1       1       3       2       1       1       3
       2       1       1       3       2       1       1       3       2       1
       1       3       2       1       1       3       2       1       1       3
       2       1       1       3       2       1       1       3       2       1
       1       3       2       1       1       3       2       1       1       3
       2       1       1       3       2       1       1       3       2       1
       1       3       2       1       1       3       2       1       1       3
       2       1       1       3       2       1       1       3       2       1
       1       3       2       1       1       3       2       1       1       3
       2       1       1       3       2       1       1       3       2       1
       1       3       2       1       1       3       2       1       1       3
       2       1       1       3       2       1       1       3       2       1
       1       3       2       1       1       3       2       1       1       3
       2       1       1       3       2       1       1       3       2       1
       1       3       2       1       1       3       2       1       1       3
       2       1       1       3       2       1       1       3       2       1
       1       3       2       1       1       3       2       1       1       3
       2       1       1       3       2       1       1       3       2       1
       1       3       2       1       1       3       2       1       1       3
       2       1       1       3       2       1       1       3       2       1
       1       3       2       1       1       3       2       1       1       3
       2       1       1       3       2       1       1       3       2       1
       1       3       2       1       1       3       2       1       1       3
       2       1       1       3       2       1       1       3       2       1
       1       3       2       1       1       3       2       1       1       3
       2       1       1       3       2       1       1       3       2       1
       1       3       2       1       1       3       2       1       1       3
       2       1       1       3       2       1       1       3       2       1
       1       3       2       1       1       3       2       1       1       3
       2       1       1       3       2       1       1       3       2       1
       1       3       2       1       1       3       2       1       1       3
       2       1       1       3       2       1       1       3       2       1
       1       3       2       1       1       3       2       1       1       3
       2       1       1       3       2       1       1       3       2       1
       1       3       2       1       1       3       2       1       1       3
       2       1       1       3       2       1       1       3       2       1
       1       3       2       1       1       3       2       1       1       3
       2       1       1       3       2       1       1       3       2       1
       1       3       2       1       1       3       2       1       1       3
       2       1       1       3       2       1       1       3       2       1
       1       3       2       1       1       3       2       1       1       3
       2       1       1       3       2       1       1       3       2       1
       1       3       2       1       1       3       2       1       1       3
       2       1       1       3       2       1       1       3       2       1
       1       3       2       1       1       3       2       1       1       3
       2       1       1       3       2       1       1       3       2       1
       1       3       2       1       1       3       2       1       1       3
       2       1       1       3       2       1       1       3       2       1
       1       3       2       1       1       3       2       1       1       3
       2       1       1       3       2       1       1       3       2       1
       1       3       2       1       1       3       2       1       1       3
       2       1       1       3       2       1       1       3       2       1
       1       3       2       1       1       3       2       1       1       3
       2       1       1       3       2       1       1       3       2       1
       1       3       2       1       1       3       2       1       1       3
       2       1       1       3       2       1       1       3       2       1
       1       3       2       1       1       3       2       1       1       3
       2       1       1       3       2       1       1       3       2       1
       1       3       2       1       1       3       2       1       1       3
       2       1       1       3       2       1       1       3       2       1
       1       3       2       1       1       3       2       1       1       3
       2       1       1       3       2       1       1       3       2       1
       1       3       2       1       1       3       2       1       1       3
       2       1       1       3       2       1       1       3       2       1
       1       3       2       1       1       3       2       1       1       3
       2       1       1       3       2       1       1       3       2       1
       1       3       2       1       1       3       2       1       1       3
       2       1       1       3       2       1       1       3       2       1
       1       3       2       1       1       3       2       1       1       3
       2       1       1       3       2       1       1       3       2       1
       1       3       2       1       1       3       2       1       1       3
       2       1       1       3       2       1       1       3       2       1
       1       3       2       1       1       3       2       1       1       3
       2       1       1       3       2       1       1       3       2       1
       1       3       2       1       1       3       2       1       1       3
       2       1       1       3       2       1       1       3       2       1
       1       3       2       1       1       3       2       1       1       3
       2       1       1       3       2       1       1       3       2       1
       1       3       2       1       1       3       2       1       1       3
       2       1       1       3       2       1       1       3       2       1
       1       3       2       1       1       3       2       1       1       3
       2       1       1       3       2       1       1       3       2       1
       1       3       2       1       1       3       2       1       1       3
       2       1       1       3       2       1       1       3       2       1
       1       3       2       1       1       3       2       1       1       3
       2       1       1       3       2       1       1       3       2       1
       1       3       2       1       1       3       2       1       1       3
       2       1       1       3       2       1       1       3       2       1
       1       3       2       1       1       3       2       1       1       3
       2       1       1       3       2       1       1       3       2       1
       1       3       2       1       1       3       2       1       1       3
       2       1       1       3       2       1       1       3       2       1
       1       3       2       1       1       3       2       1       1       3
       2       1       1       3       2       1       1       3       2       1
       1       3       2       1       1       3       2       1       1       3
       2       1       1       3       2       1       1       3       2       1
       1       3       2       1       1       3       2       1       1       3
       2       1       1       3       2       1       1       3       2       1
       1       3       2       1       1       3       2       1       1       3
       2       1       1       3       2       1       1       3       2       1
       1       3       2       1       1       3       2       1       1       3
       2       1       1       3       2       1       1       3       2       1
       1       3       2       1       1       3       2       1       1       3
       2       1       1       3       2       1       1       3       2       1
       1       3       2       1       1       3       2       1       1       3
       2       1       1       3       2       1       1       3       2       1
       1       3       2       1       1       3       2       1       1       3
       2       1       1       3       2       1       1       3       2       1
       1       3       2       1       1       3       2       1       1       3
       2       1       1       3       2       1       1       3       2       1
       1       3       2       1       1       3       2       1       1       3
       2       1       1       3       2       1       1       3       2       1
       1       3       2       1       1       3       2       1       1       3
       2       1       1       3       2       1       1       3       2       1
       1       3       2       1       1       3       2       1       1       3
       2       1       1       3       2       1       1       3       2       1
       1       3       2       1       1       3       2       1       1       3
       2       1       1       3       2       1       1       3       2       1
       1       3       2       1       1       3       2       1       1       3
       2       1       1       3       2       1       1       3       2       1
       1       3       2       1       1       3       2       1       1       3
       2       1       1       3       2       1       1       3       2       1
       1       3       2       1       1       3       2       1       1       3
       2       1       1       3       2       1       1       3       2       1
       1       3       2       1       1       3       2       1       1       3
       2       1       1       3       2       1       1       3       2       1
       1       3       2       1       1       3       2       1       1       3
       2       1       1       3       2       1       1       3       2       1
       1       3       2       1       1       3       2       1       1       3
       2       1       1       3       2       1       1       3       2       1
       1       3       2       1       1       3       2       1       1       3
       2       1       1       3       2       1       1       3       2       1
       1       3       2       1       1       3       2       1       1       3
       2       1       1       3       2       1       1       3       2       1
       1       3       2       1       1       3       2       1       1       3
       2       1       1       3       2       1       1       3       2       1
       1       3       2       1       1       3       2       1       1       3
       2       1       1       3       2       1       1       3       2       1
       1       3       2       1       1       3       2       1       1       3
       2       1       1       3       2       1       1       3       2       1
       1       3       2       1       1       3       2       1       1       3
       2       1       1       3       2       1       1       3       2       1
       1       3       2       1       1       3       2       1       1       3
       2       1       1       3       2       1       1       3       2       1
       1       3       2       1       1       3       2       1       1       3
       2       1       1       3       2       1       1       3       2       1
       1       3       2       1       1       3       2       1       1       3
       2       1       1       3       2       1       1       3       2       1
       1       3       2       1       1       3       2       1       1       3
       2       1       1       3       2       1       1       3       2       1
       1       3       2       1       1       3       2       1       1       3
       2       1       1       3       2       1       1       3       2       1
       1       3       2       1       1       3       2       1       1       3
       2       1       1       3       2       1       1       3       2       1
       1       3       2       1       1       3       2       1       1       3
       2       1       1       3       2       1       1       3       2       1
       1       3       2       1       1       3       2       1       1       3
       2       1       1       3       2       1       1       3       2       1
       1       3       2       1       1       3       2       1       1       3
       2       1       1       3       2       1       1       3       2       1
       1       3       2       1       1       3       2       1       1       3
       2       1       1       3       2       1       1       3       2       1
       1       3       2       1       1       3       2       1       1       3
       2       1       1       3       2       1       1       3       2       1
       1       3       2       1       1       3       2       1       1       3
       2       1       1       3       2       1       1       3       2       1
       1       3       2       1       1       3       2       1       1       3
       2       1       1       3       2       1       1       3       2       1
       1       3       2       1       1       3       2       1       1       3
       2       1       1       3       2       1       1       3       2       1
       1       3       2       1       1       3       2       1       1       3
       2       1       1       3       2       1       1       3       2       1
       1       3       2       1       1       3       2       1       1       3
       2       1       1       3       2       1       1       3       2       1
       1       3       2       1       1       3       2       1       1       3
       2       1       1       3       2       1       1       3       2       1
       1       3       2       1       1       3       2       1       1       3
       2       1       1       3       2       1       1       3       2       1
       1       3       2       1       1       3       2       1       1       3
       2       1       1       3       2       1       1       3       2       1
       1       3       2       1       1       3       2       1       1       3
       2       1       1       3       2       1       1       3       2       1
       1       3       2       1       1       3       2       1       1       3
       2       1       1       3       2       1       1       3       2       1
       1       3       2       1       1       3       2       1       1       3
       2       1       1       3       2       1       1       3       2       1
       1       3       2       1       1       3       2       1       1       3
       2       1       1       3       2       1       1       3       2       1
       1       3       2       1       1       3       2       1       1       3
       2       1       1       3       2       1       1       3       2       1
       1       3       2       1       1       3       2       1       1       3
       2       1       1       3       2       1       1       3       2       1
       1       3       2       1       1       3       2       1       1       3
       2       1       1       3       2       1       1       3       2       1
       1       3       2       1       1       3       2       1       1       3
       2       1       1       3       2       1       1       3       2       1
       1       3       2       1       1       3       2       1       1       3
       2       1       1       3       2       1       1       3       2       1
       1       3       2       1       1       3       2       1       1       3
       2       1       1       3       2       1       1       3       2       1
       1       3       2       1       1       3       2       1       1       3
       2       1       1       3       2       1       1       3       2       1
       1       3       2       1       1       3       2       1       1       3
       2       1       1       3       2       1       1       3       2       1
       1       3       2       1       1       3       2       1       1       3
       2       1       1       3       2       1       1       3       2       1
       1       3       2       1       1       3       2       1       1       3
       2       1       1       3       2       1       1       3       2       1
       1       3       2       1       1       3       2       1       1       3
       2       1       1       3       2       1       1       3       2       1
       1       3       2       1       1       3       2       1       1       3
       2       1       1       3       2       1       1       3       2       1
       1       3       2       1       1       3       2       1       1       3
       2       1       1       3       2       1       1       3       2       1
       1       3       2       1       1       3       2       1       1       3
       2       1       1       3       2       1       1       3       2       1
       1       3       2       1       1       3       2       1       1       3
       2       1       1       3       2       1       1       3       2       1
       1       3       2       1       1       3       2       1       1       3
       2       1       1       3       2       1       1       3       2       1
       1       3       2       1       1       3       2       1       1       3
       2       1       1       3       2       1       1       3       2       1
       1       3       2       1       1       3       2       1       1       3
       2       1       1       3       2       1       1       3       2       1
       1       3       2       1       1       3       2       1       1       3
       2       1       1       3       2       1       1       3       2       1
       1       3       2       1       1       3       2       1       1       3
       2       1       1       3       2       1       1       3       2       1
       1       3       2       1       1       3       2       1       1       3
       2       1       1       3       2       1       1       3       2       1
       1       3       2       1       1       3       2       1       1       3
       2       1       1       3       2       1       1       3       2       1
       1       3       2       1       1       3       2       1       1       3
       2       1       1       3       2       1       1       3       2       1
       1       3       2       1       1       3       2       1       1       3
       2       1       1       3       2       1       1       3       2       1
       1       3       2       1       1       3       2       1       1       3
       2       1       1       3       2       1       1       3       2       1
       1       3       2       1       1       3       2       1       1       3
       2       1       1       3       2       1       1       3       2       1
       1       3       2       1       1       3       2       1       1       3
       2       1       1       3       2       1       1       3       2       1
       1       3       2       1       1       3       2       1       1       3
       2       1       1       3       2       1       1       3       2       1
       1       3       2       1       1       3       2       1       1       3
       2       1       1       3       2       1       1       3       2       1
       1       3       2       1       1       3       2       1       1       3
       2       1       1       3       2       1       1       3       2       1
       1       3       2       1       1       3       2       1       1       3
       2       1       1       3       2       1       1       3       2       1
       1       3       2       1       1       3       2       1       1       3
       2       1       1       3       2       1       1       3       2       1
       1       3       2       1       1       3       2       1       1       3
       2       1       1       3       2       1       1       3       2       1
       1       3       2       1       1       3       2       1       1       3
       2       1       1       3       2       1       1       3       2       1
       1       3       2       1       1       3       2       1       1       3
       2       1       1       3       2       1       1       3       2       1
       1       3       2       1       1       3       2       1       1       3
       2       1       1       3       2       1       1       3       2       1
       1       3       2       1       1       3       2       1       1       3
       2       1       1       3       2       1       1       3       2       1
       1       3       2       1       1       3       2       1       1       3
       2       1       1       3       2       1       1       3       2       1
       1       3       2       1       1       3       2       1       1       3
       2       1       1       3       2       1       1       3       2       1
       1       3       2       1       1       3       2       1       1       3
       2       1       1       3       2       1       1       3       2       1
       1       3       2       1       1       3       2       1       1       3
       2       1       1       3       2       1       1       3       2       1
       1       3       2       1       1       3       2       1       1       3
       2       1       1       3       2       1       1       3       2       1
       1       3       2       1       1       3       2       1       1       3
       2       1       1       3       2       1       1       3       2       1
       1       3       2       1       1       3       2       1       1       3
       2       1       1       3       2       1       1       3       2       1
       1       3       2       1       1       3       2       1       1       3
       2       1       1       3       2       1       1       3       2       1
       1       3       2       1       1       3       2       1       1       3
       2       1       1       3       2       1       1       3       2       1
       1       3       2       1       1       3       2       1       1       3
       2       1       1       3       2       1       1       3       2       1
       1       3       2       1       1       3       2       1       1       3
       2       1       1       3       2       1       1       3       2       1
       1       3       2       1       1       3       2       1       1       3
       2       1       1       3       2       1       1       3       2       1
       1       3       2       1       1       3       2       1       1       3
       2       1       1       3       2       1       1       3       2       1
       1       3       2       1       1       3       2       1       1       3
       2       1       1       3       2       1       1       3       2       1
       1       3       2       1       1       3       2       1       1       3
       2       1       1       3       2       1       1       3       2       1
       1       3       2       1       1       3       2       1       1       3
       2       1       1       3       2       1       1       3       2       1
       1       3       2       1       1       3       2       1       1       3
       2       1       1       3       2       1       1       3       2       1
       1       3       2       1       1       3       2       1       1       3
       2       1       1       3       2       1       1       3       2       1
       1       3       2       1       1       3       2       1       1       3
       2       1       1       3       2       1       1       3       2       1
       1       3       2       1       1       3       2       1       1       3
       2       1       1       3       2       1       1       3       2       1
       1       3       2       1       1       3       2       1       1       3
       2       1       1       3       2       1       1       3       2       1
       1       3       2       1       1       3       2       1       1       3
       2       1       1       3       2       1       1       3       2       1
       1       3       2       1       1       3       2       1       1       3
       2       1       1       3       2       1       1       3       2       1
       1       3       2       1       1       3       2       1       1       3
       2       1       1       3       2       1       1       3       2       1
       1       3       2       1       1       3       2       1       1       3
       2       1       1       3       2       1       1       3       2       1
       1       3       2       1       1       3       2       1       1       3
       2       1       1       3       2       1       1       3       2       1
       1       3       2       1       1       3       2       1       1       3
       2       1       1       3       2       1       1       3       2       1
       1       3       2       1       1       3       2       1       1       3
       2       1       1       3       2       1       1       3       2       1
       1       3       2       1       1       3       2       1       1       3
       2       1       1       3       2       1       1       3       2       1
       1       3       2       1       1       3       2       1       1       3
       2       1       1       3       2       1       1       3       2       1
       1       3       2       1       1       3       2       1       1       3
       2       1       1       3       2       1       1       3       2       1
       1       3       2       1       1       3       2       1       1       3
       2       1       1       3       2       1       1       3       2       1
       1       3       2       1       1       3       2       1       1       3
       2       1       1       3       2       1       1       3       2       1
       1       3       2       1       1       3       2       1       1       3
       2       1       1       3       2       1       1       3       2       1
       1       3       2       1       1       3       2       1       1       3
       2       1       1       3       2       1       1       3       2       1
       1       3       2       1       1       3       2       1       1       3
       2       1       1       3       2       1       1       3       2       1
       1       3       2       1       1       3       2       1       1       3
       2       1       1       3       2       1       1       3       2       1
       1       3       2       1       1       3       2       1       1       3
       2       1       1       3       2       1       1       3       2       1
       1       3       2       1       1       3       2       1       1       3
       2       1       1       3       2       1       1       3       2       1
       1       3       2       1       1       3       2       1       1       3
       2       1       1       3       2       1       1       3       2       1
       1       3       2       1       1       3       2       1       1       3
       2       1       1       3       2       1       1       3       2       1
       1       3       2       1       1       3       2       1       1       3
       2       1       1       3       2       1       1       3       2       1
       1       3       2       1       1       3       2       1       1       3
       2       1       1       3       2       1       1       3       2       1
       1       3       2       1       1       3       2       1       1       3
       2       1       1       3       2       1       1       3       2       1
       1       3       2       1       1       3       2       1       1       3
       2       1       1       3       2       1       1       3       2       1
       1       3       2       1       1       3       2       1       1       3
       2       1       1       3       2       1       1       3       2       1
       1       3       2       1       1       3       2       1       1       3
       2       1       1       3       2       1       1       3       2       1
       1       3       2       1       1       3       2       1       1       3
       2       1       1       3       2       1       1       3       2       1
       1       3       2       1       1       3       2       1       1       3
       2       1       1       3       2       1       1       3       2       1
       1       3       2       1       1       3       2       1       1       3
       2       1       1       3       2       1       1       3       2       1
       1       3       2       1       1       3       2       1       1       3
       2       1       1       3       2       1       1       3       2       1
       1       3       2       1       1       3       2       1       1       3
       2       1       1       3       2       1       1       3       2       1
       1       3       2       1       1       3       2       1       1       3
       2       1       1       3       2       1       1       3       2       1
       1       3       2       1       1       3       2       1       1       3
       2       1       1       3       2       1       1       3       2       1
       1       3       2       1       1       3       2       1       1       3
       2       1       1       3       2       1       1       3       2       1
       1       3       2       1       1       3       2       1       1       3
       2       1       1       3       2       1       1       3       2       1
       1       3       2       1       1       3       2       1       1       3
       2       1       1       3       2       1       1       3       2       1
       1       3       2       1       1       3       2       1       1       3
       2       1       1       3       2       1       1       3       2       1
       1       3       2       1       1       3       2       1       1       3
       2       1       1       3       2       1       1       3       2       1
       1       3       2       1       1       3       2       1       1       3
       2       1       1       3       2       1       1       3       2       1
       1       3       2       1       1       3       2       1       1       3
       2       1       1       3       2       1       1       3       2       1
       1       3       2       1       1       3       2       1       1       3
       2       1       1       3       2       1       1       3       2       1
       1       3       2       1       1       3       2       1       1       3
       2       1       1       3       2       1       1       3       2       1
       1       3       2       1       1       3       2       1       1       3
       2       1       1       3       2       1       1       3       2       1
       1       3       2       1       1       3       2       1       1       3
       2       1       1       3       2       1       1       3       2       1
       1       3       2       1       1       3       2       1       1       3
       2       1       1       3       2       1       1       3       2       1
       1       3       2       1       1       3       2       1       1       3
       2       1       1       3       2       1       1       3       2       1
       1       3       2       1       1       3       2       1       1       3
       2       1       1       3       2       1       1       3       2       1
       1       3       2       1       1       3       2       1       1       3
       2       1       1       3       2       1       1       3       2       1
       1       3       2       1       1       3       2       1       1       3
       2       1       1       3       2       1       1       3       2       1
       1       3       2       1       1       3       2       1       1       3
       2       1       1       3       2       1       1       3       2       1
       1       3       2       1       1       3       2       1       1       3
       2       1       1       3       2       1       1       3       2       1
       1       3       2       1       1       3       2       1       1       3
       2       1       1       3       2       1       1       3       2       1
       1       3       2       1       1       3       2       1       1       3
       2       1       1       3       2       1       1       3       2       1
       1       3       2       1       1       3       2       1       1       3
       2       1       1       3       2       1       1       3       2       1
       1       3       2       1       1       3       2       1       1       3
       2       1       1       3       2       1       1       3       2       1
       1       3       2       1       1       3       2       1       1       3
       2       1       1       3       2       1       1       3       2       1
       1       3       2       1       1       3       2       1       1       3
       2       1       1       3       2       1       1       3       2       1
       1       3       2       1       1       3       2       1       1       3
       2       1       1       3       2       1       1       3       2       1
       1       3       2       1       1       3       2       1       1       3
       2       1       1       3       2       1       1       3       2       1
       1       3       2       1       1       3       2       1       1       3
       2       1       1       3       2       1       1       3       2       1
       1       3       2       1       1       3       2       1       1       3
       2       1       1       3       2       1       1       3       2       1
       1       3       2       1       1       3       2       1       1       3
       2       1       1       3       2       1       1       3       2       1
       1       3       2       1       1       3       2       1       1       3
       2       1       1       3       2       1       1       3       2       1
       1       3       2       1       1       3       2       1       1       3
       2       1       1       3       2       1       1       3       2       1
       1       3       2       1       1       3       2       1       1       3
       2       1       1       3       2       1       1       3       2       1
       1       3       2       1       1       3       2       1       1       3
       2       1       1       3       2       1       1       3       2       1
       1       3       2       1       1       3       2       1       1       3
       2       1       1       3       2       1       1       3       2       1
       1       3       2       1       1       3       2       1       1       3
       2       1       1       3       2       1       1       3       2       1
       1       3       2       1       1       3       2       1       1       3
       2       1       1       3       2       1       1       3       2       1
       1       3       2       1       1       3       2       1       1       3
       2       1       1       3       2       1       1       3       2       1
       1       3       2       1       1       3       2       1       1       3
       2       1       1       3       2       1       1       3       2       1
       1
%FLAG NONBONDED_PARM_INDEX                                                      
%FORMAT(10I8)                                                                   
       1       2       4       7      11      16      22      29      37      46
      56      67      79      92     106     121     137     154     172     191
     211     232       2       3       5       8      12      17      23      30
      38      47      57      68      80      93     107     122     138     155
     173     192     212     233       4       5       6       9      13      18
      24      31      39      48      58      69      81      94     108     123
     139     156     174     193     213     234       7       8       9      10
      14      19      25      32      40      49      59      70      82      95
     109     124     140     157     175     194     214     235      11      12
      13      14      15      20      26      33      41      50      60      71
      83      96     110     125     141     158     176     195     215     236
      16      17      18      19      20      21      27      34      42      51
      61      72      84      97     111     126     142     159     177     196
     216     237      22      23      24      25      26      27      28      35
      43      52      62      73      85      98     112     127     143     160
     178     197     217     238      29      30      31      32      33      34
      35      36      44      53      63      74      86      99     113     128
     144     161     179     198     218     239      37      38      39      40
      41      42      43      44      45      54      64      75      87     100
     114     129     145     162     180     199     219     240      46      47
      48      49      50      51      52      53      54      55      65      76
      88     101     115     130     146     163     181     200     220     241
      56      57      58      59      60      61      62      63      64      65
      66      77      89     102     116     131     147     164     182     201
     221     242      67      68      69      70      71      72      73      74
      75      76      77      78      90     103     117     132     148     165
     183     202     222     243      79      80      81      82      83      84
      85      86      87      88      89      90      91     104     118     133
     149     166     184     203     223     244      92      93      94      95
      96      97      98      99     100     101     102     103     104     105
     119     134     150     167     185     204     224     245     106     107
     108     109     110     111     112     113     114     115     116     117
     118     119     120     135     151     168     186     205     225     246
     121     122     123     124     125     126     127     128     129     130
     131     132     133     134     135     136     152     169     187     206
     226     247     137     138     139     140     141     142     143     144
     145     146     147     148     149     150     151     152     153     170
     188     207     227     248     154     155     156     157     158     159
     160     161     162     163     164     165     166     167     168     169
     170     171     189     208     228     249     172     173     174     175
     176     177     178     179     180     181     182     183     184     185
     186     187     188     189     190     209     229     250     191     192
     193     194     195     196     197     198     199     200     201     202
     203     204     205     206     207     208     209     210      -1     251
     211     212     213     214     215     216     217     218     219     220
     221     222     223     224     225     226     227     228     229      -1
     231     252     232     233     234     235     236     237     238     239
     240     241     242     243     244     245     246     247     248     249
     250     251     252     253
%FLAG RESIDUE_LABEL                                                             
%FORMAT(20a4)                                                                   
ACE TRP VAL THR HID ARG R51 ALA GLY LEU S52 SER ARG SER GLY GLY VAL VAL LYS ASN 
ASN PHE VAL PRO THR ASP VAL GLY PRO PHE ALA PHE NHE Na+ Na+ Na+ Na+ Na+ Na+ Na+ 
Na+ Na+ Na+ Na+ Na+ Na+ Na+ Na+ Na+ Na+ Na+ Na+ Na+ Cl- Cl- Cl- Cl- Cl- Cl- Cl- 
Cl- Cl- Cl- Cl- Cl- Cl- Cl- Cl- Cl- Cl- Cl- Cl- Cl- Cl- Cl- WAT WAT WAT WAT WAT 
WAT WAT WAT WAT WAT WAT WAT WAT WAT WAT WAT WAT WAT WAT WAT WAT WAT WAT WAT WAT 
WAT WAT WAT WAT WAT WAT WAT WAT WAT WAT WAT WAT WAT WAT WAT WAT WAT WAT WAT WAT 
WAT WAT WAT WAT WAT WAT WAT WAT WAT WAT WAT WAT WAT WAT WAT WAT WAT WAT WAT WAT 
WAT WAT WAT WAT WAT WAT WAT WAT WAT WAT WAT WAT WAT WAT WAT WAT WAT WAT WAT WAT 
WAT WAT WAT WAT WAT WAT WAT WAT WAT WAT WAT WAT WAT WAT WAT WAT WAT WAT WAT WAT 
WAT WAT WAT WAT WAT WAT WAT WAT WAT WAT WAT WAT WAT WAT WAT WAT WAT WAT WAT WAT 
WAT WAT WAT WAT WAT WAT WAT WAT WAT WAT WAT WAT WAT WAT WAT WAT WAT WAT WAT WAT 
WAT WAT WAT WAT WAT WAT WAT WAT WAT WAT WAT WAT WAT WAT WAT WAT WAT WAT WAT WAT 
WAT WAT WAT WAT WAT WAT WAT WAT WAT WAT WAT WAT WAT WAT WAT WAT WAT WAT WAT WAT 
WAT WAT WAT WAT WAT WAT WAT WAT WAT WAT WAT WAT WAT WAT WAT WAT WAT WAT WAT WAT 
WAT WAT WAT WAT WAT WAT WAT WAT WAT WAT WAT WAT WAT WAT WAT WAT WAT WAT WAT WAT 
WAT WAT WAT WAT WAT WAT WAT WAT WAT WAT WAT WAT WAT WAT WAT WAT WAT WAT WAT WAT 
WAT WAT WAT WAT WAT WAT WAT WAT WAT WAT WAT WAT WAT WAT WAT WAT WAT WAT WAT WAT 
WAT WAT WAT WAT WAT WAT WAT WAT WAT WAT WAT WAT WAT WAT WAT WAT WAT WAT WAT WAT 
WAT WAT WAT WAT WAT WAT WAT WAT WAT WAT WAT WAT WAT WAT WAT WAT WAT WAT WAT WAT 
WAT WAT WAT WAT WAT WAT WAT WAT WAT WAT WAT WAT WAT WAT WAT WAT WAT WAT WAT WAT 
WAT WAT WAT WAT WAT WAT WAT WAT WAT WAT WAT WAT WAT WAT WAT WAT WAT WAT WAT WAT 
WAT WAT WAT WAT WAT WAT WAT WAT WAT WAT WAT WAT WAT WAT WAT WAT WAT WAT WAT WAT 
WAT WAT WAT WAT WAT WAT WAT WAT WAT WAT WAT WAT WAT WAT WAT WAT WAT WAT WAT WAT 
WAT WAT WAT WAT WAT WAT WAT WAT WAT WAT WAT WAT WAT WAT WAT WAT WAT WAT WAT WAT 
WAT WAT WAT WAT WAT WAT WAT WAT WAT WAT WAT WAT WAT WAT WAT WAT WAT WAT WAT WAT 
WAT WAT WAT WAT WAT WAT WAT WAT WAT WAT WAT WAT WAT WAT WAT WAT WAT WAT WAT WAT 
WAT WAT WAT WAT WAT WAT WAT WAT WAT WAT WAT WAT WAT WAT WAT WAT WAT WAT WAT WAT 
WAT WAT WAT WAT WAT WAT WAT WAT WAT WAT WAT WAT WAT WAT WAT WAT WAT WAT WAT WAT 
WAT WAT WAT WAT WAT WAT WAT WAT WAT WAT WAT WAT WAT WAT WAT WAT WAT WAT WAT WAT 
WAT WAT WAT WAT WAT WAT WAT WAT WAT WAT WAT WAT WAT WAT WAT WAT WAT WAT WAT WAT 
WAT WAT WAT WAT WAT WAT WAT WAT WAT WAT WAT WAT WAT WAT WAT WAT WAT WAT WAT WAT 
WAT WAT WAT WAT WAT WAT WAT WAT WAT WAT WAT WAT WAT WAT WAT WAT WAT WAT WAT WAT 
WAT WAT WAT WAT WAT WAT WAT WAT WAT WAT WAT WAT WAT WAT WAT WAT WAT WAT WAT WAT 
WAT WAT WAT WAT WAT WAT WAT WAT WAT WAT WAT WAT WAT WAT WAT WAT WAT WAT WAT WAT 
WAT WAT WAT WAT WAT WAT WAT WAT WAT WAT WAT WAT WAT WAT WAT WAT WAT WAT WAT WAT 
WAT WAT WAT WAT WAT WAT WAT WAT WAT WAT WAT WAT WAT WAT WAT WAT WAT WAT WAT WAT 
WAT WAT WAT WAT WAT WAT WAT WAT WAT WAT WAT WAT WAT WAT WAT WAT WAT WAT WAT WAT 
WAT WAT WAT WAT WAT WAT WAT WAT WAT WAT WAT WAT WAT WAT WAT WAT WAT WAT WAT WAT 
WAT WAT WAT WAT WAT WAT WAT WAT WAT WAT WAT WAT WAT WAT WAT WAT WAT WAT WAT WAT 
WAT WAT WAT WAT WAT WAT WAT WAT WAT WAT WAT WAT WAT WAT WAT WAT WAT WAT WAT WAT 
WAT WAT WAT WAT WAT WAT WAT WAT WAT WAT WAT WAT WAT WAT WAT WAT WAT WAT WAT WAT 
WAT WAT WAT WAT WAT WAT WAT WAT WAT WAT WAT WAT WAT WAT WAT WAT WAT WAT WAT WAT 
WAT WAT WAT WAT WAT WAT WAT WAT WAT WAT WAT WAT WAT WAT WAT WAT WAT WAT WAT WAT 
WAT WAT WAT WAT WAT WAT WAT WAT WAT WAT WAT WAT WAT WAT WAT WAT WAT WAT WAT WAT 
WAT WAT WAT WAT WAT WAT WAT WAT WAT WAT WAT WAT WAT WAT WAT WAT WAT WAT WAT WAT 
WAT WAT WAT WAT WAT WAT WAT WAT WAT WAT WAT WAT WAT WAT WAT WAT WAT WAT WAT WAT 
WAT WAT WAT WAT WAT WAT WAT WAT WAT WAT WAT WAT WAT WAT WAT WAT WAT WAT WAT WAT 
WAT WAT WAT WAT WAT WAT WAT WAT WAT WAT WAT WAT WAT WAT WAT WAT WAT WAT WAT WAT 
WAT WAT WAT WAT WAT WAT WAT WAT WAT WAT WAT WAT WAT WAT WAT WAT WAT WAT WAT WAT 
WAT WAT WAT WAT WAT WAT WAT WAT WAT WAT WAT WAT WAT WAT WAT WAT WAT WAT WAT WAT 
WAT WAT WAT WAT WAT WAT WAT WAT WAT WAT WAT WAT WAT WAT WAT WAT WAT WAT WAT WAT 
WAT WAT WAT WAT WAT WAT WAT WAT WAT WAT WAT WAT WAT WAT WAT WAT WAT WAT WAT WAT 
WAT WAT WAT WAT WAT WAT WAT WAT WAT WAT WAT WAT WAT WAT WAT WAT WAT WAT WAT WAT 
WAT WAT WAT WAT WAT WAT WAT WAT WAT WAT WAT WAT WAT WAT WAT WAT WAT WAT WAT WAT 
WAT WAT WAT WAT WAT WAT WAT WAT WAT WAT WAT WAT WAT WAT WAT WAT WAT WAT WAT WAT 
WAT WAT WAT WAT WAT WAT WAT WAT WAT WAT WAT WAT WAT WAT WAT WAT WAT WAT WAT WAT 
WAT WAT WAT WAT WAT WAT WAT WAT WAT WAT WAT WAT WAT WAT WAT WAT WAT WAT WAT WAT 
WAT WAT WAT WAT WAT WAT WAT WAT WAT WAT WAT WAT WAT WAT WAT WAT WAT WAT WAT WAT 
WAT WAT WAT WAT WAT WAT WAT WAT WAT WAT WAT WAT WAT WAT WAT WAT WAT WAT WAT WAT 
WAT WAT WAT WAT WAT WAT WAT WAT WAT WAT WAT WAT WAT WAT WAT WAT WAT WAT WAT WAT 
WAT WAT WAT WAT WAT WAT WAT WAT WAT WAT WAT WAT WAT WAT WAT WAT WAT WAT WAT WAT 
WAT WAT WAT WAT WAT WAT WAT WAT WAT WAT WAT WAT WAT WAT WAT WAT WAT WAT WAT WAT 
WAT WAT WAT WAT WAT WAT WAT WAT WAT WAT WAT WAT WAT WAT WAT WAT WAT WAT WAT WAT 
WAT WAT WAT WAT WAT WAT WAT WAT WAT WAT WAT WAT WAT WAT WAT WAT WAT WAT WAT WAT 
WAT WAT WAT WAT WAT WAT WAT WAT WAT WAT WAT WAT WAT WAT WAT WAT WAT WAT WAT WAT 
WAT WAT WAT WAT WAT WAT WAT WAT WAT WAT WAT WAT WAT WAT WAT WAT WAT WAT WAT WAT 
WAT WAT WAT WAT WAT WAT WAT WAT WAT WAT WAT WAT WAT WAT WAT WAT WAT WAT WAT WAT 
WAT WAT WAT WAT WAT WAT WAT WAT WAT WAT WAT WAT WAT WAT WAT WAT WAT WAT WAT WAT 
WAT WAT WAT WAT WAT WAT WAT WAT WAT WAT WAT WAT WAT WAT WAT WAT WAT WAT WAT WAT 
WAT WAT WAT WAT WAT WAT WAT WAT WAT WAT WAT WAT WAT WAT WAT WAT WAT WAT WAT WAT 
WAT WAT WAT WAT WAT WAT WAT WAT WAT WAT WAT WAT WAT WAT WAT WAT WAT WAT WAT WAT 
WAT WAT WAT WAT WAT WAT WAT WAT WAT WAT WAT WAT WAT WAT WAT WAT WAT WAT WAT WAT 
WAT WAT WAT WAT WAT WAT WAT WAT WAT WAT WAT WAT WAT WAT WAT WAT WAT WAT WAT WAT 
WAT WAT WAT WAT WAT WAT WAT WAT WAT WAT WAT WAT WAT WAT WAT WAT WAT WAT WAT WAT 
WAT WAT WAT WAT WAT WAT WAT WAT WAT WAT WAT WAT WAT WAT WAT WAT WAT WAT WAT WAT 
WAT WAT WAT WAT WAT WAT WAT WAT WAT WAT WAT WAT WAT WAT WAT WAT WAT WAT WAT WAT 
WAT WAT WAT WAT WAT WAT WAT WAT WAT WAT WAT WAT WAT WAT WAT WAT WAT WAT WAT WAT 
WAT WAT WAT WAT WAT WAT WAT WAT WAT WAT WAT WAT WAT WAT WAT WAT WAT WAT WAT WAT 
WAT WAT WAT WAT WAT WAT WAT WAT WAT WAT WAT WAT WAT WAT WAT WAT WAT WAT WAT WAT 
WAT WAT WAT WAT WAT WAT WAT WAT WAT WAT WAT WAT WAT WAT WAT WAT WAT WAT WAT WAT 
WAT WAT WAT WAT WAT WAT WAT WAT WAT WAT WAT WAT WAT WAT WAT WAT WAT WAT WAT WAT 
WAT WAT WAT WAT WAT WAT WAT WAT WAT WAT WAT WAT WAT WAT WAT WAT WAT WAT WAT WAT 
WAT WAT WAT WAT WAT WAT WAT WAT WAT WAT WAT WAT WAT WAT WAT WAT WAT WAT WAT WAT 
WAT WAT WAT WAT WAT WAT WAT WAT WAT WAT WAT WAT WAT WAT WAT WAT WAT WAT WAT WAT 
WAT WAT WAT WAT WAT WAT WAT WAT WAT WAT WAT WAT WAT WAT WAT WAT WAT WAT WAT WAT 
WAT WAT WAT WAT WAT WAT WAT WAT WAT WAT WAT WAT WAT WAT WAT WAT WAT WAT WAT WAT 
WAT WAT WAT WAT WAT WAT WAT WAT WAT WAT WAT WAT WAT WAT WAT WAT WAT WAT WAT WAT 
WAT WAT WAT WAT WAT WAT WAT WAT WAT WAT WAT WAT WAT WAT WAT WAT WAT WAT WAT WAT 
WAT WAT WAT WAT WAT WAT WAT WAT WAT WAT WAT WAT WAT WAT WAT WAT WAT WAT WAT WAT 
WAT WAT WAT WAT WAT WAT WAT WAT WAT WAT WAT WAT WAT WAT WAT WAT WAT WAT WAT WAT 
WAT WAT WAT WAT WAT WAT WAT WAT WAT WAT WAT WAT WAT WAT WAT WAT WAT WAT WAT WAT 
WAT WAT WAT WAT WAT WAT WAT WAT WAT WAT WAT WAT WAT WAT WAT WAT WAT WAT WAT WAT 
WAT WAT WAT WAT WAT WAT WAT WAT WAT WAT WAT WAT WAT WAT WAT WAT WAT WAT WAT WAT 
WAT WAT WAT WAT WAT WAT WAT WAT WAT WAT WAT WAT WAT WAT WAT WAT WAT WAT WAT WAT 
WAT WAT WAT WAT WAT WAT WAT WAT WAT WAT WAT WAT WAT WAT WAT WAT WAT WAT WAT WAT 
WAT WAT WAT WAT WAT WAT WAT WAT WAT WAT WAT WAT WAT WAT WAT WAT WAT WAT WAT WAT 
WAT WAT WAT WAT WAT WAT WAT WAT WAT WAT WAT WAT WAT WAT WAT WAT WAT WAT WAT WAT 
WAT WAT WAT WAT WAT WAT WAT WAT WAT WAT WAT WAT WAT WAT WAT WAT WAT WAT WAT WAT 
WAT WAT WAT WAT WAT WAT WAT WAT WAT WAT WAT WAT WAT WAT WAT WAT WAT WAT WAT WAT 
WAT WAT WAT WAT WAT WAT WAT WAT WAT WAT WAT WAT WAT WAT WAT WAT WAT WAT WAT WAT 
WAT WAT WAT WAT WAT WAT WAT WAT WAT WAT WAT WAT WAT WAT WAT WAT WAT WAT WAT WAT 
WAT WAT WAT WAT WAT WAT WAT WAT WAT WAT WAT WAT WAT WAT WAT WAT WAT WAT WAT WAT 
WAT WAT WAT WAT WAT WAT WAT WAT WAT WAT WAT WAT WAT WAT WAT WAT WAT WAT WAT WAT 
WAT WAT WAT WAT WAT WAT WAT WAT WAT WAT WAT WAT WAT WAT WAT WAT WAT WAT WAT WAT 
WAT WAT WAT WAT WAT WAT WAT WAT WAT WAT WAT WAT WAT WAT WAT WAT WAT WAT WAT WAT 
WAT WAT WAT WAT WAT WAT WAT WAT WAT WAT WAT WAT WAT WAT WAT WAT WAT WAT WAT WAT 
WAT WAT WAT WAT WAT WAT WAT WAT WAT WAT WAT WAT WAT WAT WAT WAT WAT WAT WAT WAT 
WAT WAT WAT WAT WAT WAT WAT WAT WAT WAT WAT WAT WAT WAT WAT WAT WAT WAT WAT WAT 
WAT WAT WAT WAT WAT WAT WAT WAT WAT WAT WAT WAT WAT WAT WAT WAT WAT WAT WAT WAT 
WAT WAT WAT WAT WAT WAT WAT WAT WAT WAT WAT WAT WAT WAT WAT WAT WAT WAT WAT WAT 
WAT WAT WAT WAT WAT WAT WAT WAT WAT WAT WAT WAT WAT WAT WAT WAT WAT WAT WAT WAT 
WAT WAT WAT WAT WAT WAT WAT WAT WAT WAT WAT WAT WAT WAT WAT WAT WAT WAT WAT WAT 
WAT WAT WAT WAT WAT WAT WAT WAT WAT WAT WAT WAT WAT WAT WAT WAT WAT WAT WAT WAT 
WAT WAT WAT WAT WAT WAT WAT WAT WAT WAT WAT WAT WAT WAT WAT WAT WAT WAT WAT WAT 
WAT WAT WAT WAT WAT WAT WAT WAT WAT WAT WAT WAT WAT WAT WAT WAT WAT WAT WAT WAT 
WAT WAT WAT WAT WAT WAT WAT WAT WAT WAT WAT WAT WAT WAT WAT WAT WAT WAT WAT WAT 
WAT WAT WAT WAT WAT WAT WAT WAT WAT WAT WAT WAT WAT WAT WAT WAT WAT WAT WAT WAT 
WAT WAT WAT WAT WAT WAT WAT WAT WAT WAT WAT WAT WAT WAT WAT WAT WAT WAT WAT WAT 
WAT WAT WAT WAT WAT WAT WAT WAT WAT WAT WAT WAT WAT WAT WAT WAT WAT WAT WAT WAT 
WAT WAT WAT WAT WAT WAT WAT WAT WAT WAT WAT WAT WAT WAT WAT WAT WAT WAT WAT WAT 
WAT WAT WAT WAT WAT WAT WAT WAT WAT WAT WAT WAT WAT WAT WAT WAT WAT WAT WAT WAT 
WAT WAT WAT WAT WAT WAT WAT WAT WAT WAT WAT WAT WAT WAT WAT WAT WAT WAT WAT WAT 
WAT WAT WAT WAT WAT WAT WAT WAT WAT WAT WAT WAT WAT WAT WAT WAT WAT WAT WAT WAT 
WAT WAT WAT WAT WAT WAT WAT WAT WAT WAT WAT WAT WAT WAT WAT WAT WAT WAT WAT WAT 
WAT WAT WAT WAT WAT WAT WAT WAT WAT WAT WAT WAT WAT WAT WAT WAT WAT WAT WAT WAT 
WAT WAT WAT WAT WAT WAT WAT WAT WAT WAT WAT WAT WAT WAT WAT WAT WAT WAT WAT WAT 
WAT WAT WAT WAT WAT WAT WAT WAT WAT WAT WAT WAT WAT WAT WAT WAT WAT WAT WAT WAT 
WAT WAT WAT WAT WAT WAT WAT WAT WAT WAT WAT WAT WAT WAT WAT WAT WAT WAT WAT WAT 
WAT WAT WAT WAT WAT WAT WAT WAT WAT WAT WAT WAT WAT WAT WAT WAT WAT WAT WAT WAT 
WAT WAT WAT WAT WAT WAT WAT WAT WAT WAT WAT WAT WAT WAT WAT WAT WAT WAT WAT WAT 
WAT WAT WAT WAT WAT WAT WAT WAT WAT WAT WAT WAT WAT WAT WAT WAT WAT WAT WAT WAT 
WAT WAT WAT WAT WAT WAT WAT WAT WAT WAT WAT WAT WAT WAT WAT WAT WAT WAT WAT WAT 
WAT WAT WAT WAT WAT WAT WAT WAT WAT WAT WAT WAT WAT WAT WAT WAT WAT WAT WAT WAT 
WAT WAT WAT WAT WAT WAT WAT WAT WAT WAT WAT WAT WAT WAT WAT WAT WAT WAT WAT WAT 
WAT WAT WAT WAT WAT WAT WAT WAT WAT WAT WAT WAT WAT WAT WAT WAT WAT WAT WAT WAT 
WAT WAT WAT WAT WAT WAT WAT WAT WAT WAT WAT WAT WAT WAT WAT WAT WAT WAT WAT WAT 
WAT WAT WAT WAT WAT WAT WAT WAT WAT WAT WAT WAT WAT WAT WAT WAT WAT WAT WAT WAT 
WAT WAT WAT WAT WAT WAT WAT WAT WAT WAT WAT WAT WAT WAT WAT WAT WAT WAT WAT WAT 
WAT WAT WAT WAT WAT WAT WAT WAT WAT WAT WAT WAT WAT WAT WAT WAT WAT WAT WAT WAT 
WAT WAT WAT WAT WAT WAT WAT WAT WAT WAT WAT WAT WAT WAT WAT WAT WAT WAT WAT WAT 
WAT WAT WAT WAT WAT WAT WAT WAT WAT WAT WAT WAT WAT WAT WAT WAT WAT WAT WAT WAT 
WAT WAT WAT WAT WAT WAT WAT WAT WAT WAT WAT WAT WAT WAT WAT WAT WAT WAT WAT WAT 
WAT WAT WAT WAT WAT WAT WAT WAT WAT WAT WAT WAT WAT WAT WAT WAT WAT WAT WAT WAT 
WAT WAT WAT WAT WAT WAT WAT WAT WAT WAT WAT WAT WAT WAT WAT WAT WAT WAT WAT WAT 
WAT WAT WAT WAT WAT WAT WAT WAT WAT WAT WAT WAT WAT WAT WAT WAT WAT WAT WAT WAT 
WAT WAT WAT WAT WAT WAT WAT WAT WAT WAT WAT WAT WAT WAT WAT WAT WAT WAT WAT WAT 
WAT WAT WAT WAT WAT WAT WAT WAT WAT WAT WAT WAT WAT WAT WAT WAT WAT WAT WAT WAT 
WAT WAT WAT WAT WAT WAT WAT WAT WAT WAT WAT WAT WAT WAT WAT WAT WAT WAT WAT WAT 
WAT WAT WAT WAT WAT WAT WAT WAT WAT WAT WAT WAT WAT WAT WAT WAT WAT WAT WAT WAT 
WAT WAT WAT WAT WAT WAT WAT WAT WAT WAT WAT WAT WAT WAT WAT WAT WAT WAT WAT WAT 
WAT WAT WAT WAT WAT WAT WAT WAT WAT WAT WAT WAT WAT WAT WAT WAT WAT WAT WAT WAT 
WAT WAT WAT WAT WAT WAT WAT WAT WAT WAT WAT WAT WAT WAT WAT WAT WAT WAT WAT WAT 
WAT WAT WAT WAT WAT WAT WAT WAT WAT WAT WAT WAT WAT WAT WAT WAT WAT WAT WAT WAT 
WAT WAT WAT WAT WAT WAT WAT WAT WAT WAT WAT WAT WAT WAT WAT WAT WAT WAT WAT WAT 
WAT WAT WAT WAT WAT WAT WAT WAT WAT WAT WAT WAT WAT WAT WAT WAT WAT WAT WAT WAT 
WAT WAT WAT WAT WAT WAT WAT WAT WAT WAT WAT WAT WAT WAT WAT WAT WAT WAT WAT WAT 
WAT WAT WAT WAT WAT WAT WAT WAT WAT WAT WAT WAT WAT WAT WAT WAT WAT WAT WAT WAT 
WAT WAT WAT WAT WAT WAT WAT WAT WAT WAT WAT WAT WAT WAT WAT WAT WAT WAT WAT WAT 
WAT WAT WAT WAT WAT WAT WAT WAT WAT WAT WAT WAT WAT WAT WAT WAT WAT WAT WAT WAT 
WAT WAT WAT WAT WAT WAT WAT WAT WAT WAT WAT WAT WAT WAT WAT WAT WAT WAT WAT WAT 
WAT WAT WAT WAT WAT WAT WAT WAT WAT WAT WAT WAT WAT WAT WAT WAT WAT WAT WAT WAT 
WAT WAT WAT WAT WAT WAT WAT WAT WAT WAT WAT WAT WAT WAT WAT WAT WAT WAT WAT WAT 
WAT WAT WAT WAT WAT WAT WAT WAT WAT WAT WAT WAT WAT WAT WAT WAT WAT WAT WAT WAT 
WAT WAT WAT WAT WAT WAT WAT WAT WAT WAT WAT WAT WAT WAT WAT WAT WAT WAT WAT WAT 
WAT WAT WAT WAT WAT WAT WAT WAT WAT WAT WAT WAT WAT WAT WAT WAT WAT WAT WAT WAT 
WAT WAT WAT WAT WAT WAT WAT WAT WAT WAT WAT WAT WAT WAT WAT WAT WAT WAT WAT WAT 
WAT WAT WAT WAT WAT WAT WAT WAT WAT WAT WAT WAT WAT WAT WAT WAT WAT WAT WAT WAT 
WAT WAT WAT WAT WAT WAT WAT WAT WAT WAT WAT WAT WAT WAT WAT WAT WAT WAT WAT WAT 
WAT WAT WAT WAT WAT WAT WAT WAT WAT WAT WAT WAT WAT WAT WAT WAT WAT WAT WAT WAT 
WAT WAT WAT WAT WAT WAT WAT WAT WAT WAT WAT WAT WAT WAT WAT WAT WAT WAT WAT WAT 
WAT WAT WAT WAT WAT WAT WAT WAT WAT WAT WAT WAT WAT WAT WAT WAT WAT WAT WAT WAT 
WAT WAT WAT WAT WAT WAT WAT WAT WAT WAT WAT WAT WAT WAT WAT WAT WAT WAT WAT WAT 
WAT WAT WAT WAT WAT WAT WAT WAT WAT WAT WAT WAT WAT WAT WAT WAT WAT WAT WAT WAT 
WAT WAT WAT WAT WAT WAT WAT WAT WAT WAT WAT WAT WAT WAT WAT WAT WAT WAT WAT WAT 
WAT WAT WAT WAT WAT WAT WAT WAT WAT WAT WAT WAT WAT WAT WAT WAT WAT WAT WAT WAT 
WAT WAT WAT WAT WAT WAT WAT WAT WAT WAT WAT WAT WAT WAT WAT WAT WAT WAT WAT WAT 
WAT WAT WAT WAT WAT WAT WAT WAT WAT WAT WAT WAT WAT WAT WAT WAT WAT WAT WAT WAT 
WAT WAT WAT WAT WAT WAT WAT WAT WAT WAT WAT WAT WAT WAT WAT WAT WAT WAT WAT WAT 
WAT WAT WAT WAT WAT WAT WAT WAT WAT WAT WAT WAT WAT WAT WAT WAT WAT WAT WAT WAT 
WAT WAT WAT WAT WAT WAT WAT WAT WAT WAT WAT WAT WAT WAT WAT WAT WAT WAT WAT WAT 
WAT WAT WAT WAT WAT WAT WAT WAT WAT WAT WAT WAT WAT WAT WAT WAT WAT WAT WAT WAT 
WAT WAT WAT WAT WAT WAT WAT WAT WAT WAT WAT WAT WAT WAT WAT WAT WAT WAT WAT WAT 
WAT WAT WAT WAT WAT WAT WAT WAT WAT WAT WAT WAT WAT WAT WAT WAT WAT WAT WAT WAT 
WAT WAT WAT WAT WAT WAT WAT WAT WAT WAT WAT WAT WAT WAT WAT WAT WAT WAT WAT WAT 
WAT WAT WAT WAT WAT WAT WAT WAT WAT WAT WAT WAT WAT WAT WAT WAT WAT WAT WAT WAT 
WAT WAT WAT WAT WAT WAT WAT WAT WAT WAT WAT WAT WAT WAT WAT WAT WAT WAT WAT WAT 
WAT WAT WAT WAT WAT WAT WAT WAT WAT WAT WAT WAT WAT WAT WAT WAT WAT WAT WAT WAT 
WAT WAT WAT WAT WAT WAT WAT WAT WAT WAT WAT WAT WAT WAT WAT WAT WAT WAT WAT WAT 
WAT WAT WAT WAT WAT WAT WAT WAT WAT WAT WAT WAT WAT WAT WAT WAT WAT WAT WAT WAT 
WAT WAT WAT WAT WAT WAT WAT WAT WAT WAT WAT WAT WAT WAT WAT WAT WAT WAT WAT WAT 
WAT WAT WAT WAT WAT WAT WAT WAT WAT WAT WAT WAT WAT WAT WAT WAT WAT WAT WAT WAT 
WAT WAT WAT WAT WAT WAT WAT WAT WAT WAT WAT WAT WAT WAT WAT WAT WAT WAT WAT WAT 
WAT WAT WAT WAT WAT WAT WAT WAT WAT WAT WAT WAT WAT WAT WAT WAT WAT WAT WAT WAT 
WAT WAT WAT WAT WAT WAT WAT WAT WAT WAT WAT WAT WAT WAT WAT WAT WAT WAT WAT WAT 
WAT WAT WAT WAT WAT WAT WAT WAT WAT WAT WAT WAT WAT WAT WAT WAT WAT WAT WAT WAT 
WAT WAT WAT WAT WAT WAT WAT WAT WAT WAT WAT WAT WAT WAT WAT WAT WAT WAT WAT WAT 
WAT WAT WAT WAT WAT WAT WAT WAT WAT WAT WAT WAT WAT WAT WAT WAT WAT WAT WAT WAT 
WAT WAT WAT WAT WAT WAT WAT WAT WAT WAT WAT WAT WAT WAT WAT WAT WAT WAT WAT WAT 
WAT WAT WAT WAT WAT WAT WAT WAT WAT WAT WAT WAT WAT WAT WAT WAT WAT WAT WAT WAT 
WAT WAT WAT WAT WAT WAT WAT WAT WAT WAT WAT WAT WAT WAT WAT WAT WAT WAT WAT WAT 
WAT WAT WAT WAT WAT WAT WAT WAT WAT WAT WAT WAT WAT WAT WAT WAT WAT WAT WAT WAT 
WAT WAT WAT WAT WAT WAT WAT WAT WAT WAT WAT WAT WAT WAT WAT WAT WAT WAT WAT WAT 
WAT WAT WAT WAT WAT WAT WAT WAT WAT WAT WAT WAT WAT WAT WAT WAT WAT WAT WAT WAT 
WAT WAT WAT WAT WAT WAT WAT WAT WAT WAT WAT WAT WAT WAT WAT WAT WAT WAT WAT WAT 
WAT WAT WAT WAT WAT WAT WAT WAT WAT WAT WAT WAT WAT WAT WAT WAT WAT WAT WAT WAT 
WAT WAT WAT WAT WAT WAT WAT WAT WAT WAT WAT WAT WAT WAT WAT WAT WAT WAT WAT WAT 
WAT WAT WAT WAT WAT WAT WAT WAT WAT WAT WAT WAT WAT WAT WAT WAT WAT WAT WAT WAT 
WAT WAT WAT WAT WAT WAT WAT WAT WAT WAT WAT WAT WAT WAT WAT WAT WAT WAT WAT WAT 
WAT WAT WAT WAT WAT WAT WAT WAT WAT WAT WAT WAT WAT WAT WAT WAT WAT WAT WAT WAT 
WAT WAT WAT WAT WAT WAT WAT WAT WAT WAT WAT WAT WAT WAT WAT WAT WAT WAT WAT WAT 
WAT WAT WAT WAT WAT WAT WAT WAT WAT WAT WAT WAT WAT WAT WAT WAT WAT WAT WAT WAT 
WAT WAT WAT WAT WAT WAT WAT WAT WAT WAT WAT WAT WAT WAT WAT WAT WAT WAT WAT WAT 
WAT WAT WAT WAT WAT WAT WAT WAT WAT WAT WAT WAT WAT WAT WAT WAT WAT WAT WAT WAT 
WAT WAT WAT WAT WAT WAT WAT WAT WAT WAT WAT WAT WAT WAT WAT WAT WAT WAT WAT WAT 
WAT WAT WAT WAT WAT WAT WAT WAT WAT WAT WAT WAT WAT WAT WAT WAT WAT WAT WAT WAT 
WAT WAT WAT WAT WAT WAT WAT WAT WAT WAT WAT WAT WAT WAT WAT WAT WAT WAT WAT WAT 
WAT WAT WAT WAT WAT WAT WAT WAT WAT WAT WAT WAT WAT WAT WAT WAT WAT WAT WAT WAT 
WAT WAT WAT WAT WAT WAT WAT WAT WAT WAT WAT WAT WAT WAT WAT WAT WAT WAT WAT WAT 
WAT WAT WAT WAT WAT WAT WAT WAT WAT WAT WAT WAT WAT WAT WAT WAT WAT WAT WAT WAT 
WAT WAT WAT WAT WAT WAT WAT WAT WAT WAT WAT WAT WAT WAT WAT WAT WAT WAT WAT WAT 
WAT WAT WAT WAT WAT WAT WAT WAT WAT WAT WAT WAT WAT WAT WAT WAT WAT WAT WAT WAT 
WAT WAT WAT WAT WAT WAT WAT WAT WAT WAT WAT WAT WAT WAT WAT WAT WAT WAT WAT WAT 
WAT WAT WAT WAT WAT WAT WAT WAT WAT WAT WAT WAT WAT WAT WAT WAT WAT WAT WAT WAT 
WAT WAT WAT WAT WAT WAT WAT WAT WAT WAT WAT WAT WAT WAT WAT WAT WAT WAT WAT WAT 
WAT WAT WAT WAT WAT WAT WAT WAT WAT WAT WAT WAT WAT WAT WAT WAT WAT WAT WAT WAT 
WAT WAT WAT WAT WAT WAT WAT WAT WAT WAT WAT WAT WAT WAT WAT WAT WAT WAT WAT WAT 
WAT WAT WAT WAT WAT WAT WAT WAT WAT WAT WAT WAT WAT WAT WAT WAT WAT WAT WAT WAT 
WAT WAT WAT WAT WAT WAT WAT WAT WAT WAT WAT WAT WAT WAT WAT WAT WAT WAT WAT WAT 
WAT WAT WAT WAT WAT WAT WAT WAT WAT WAT WAT WAT WAT WAT WAT WAT WAT WAT WAT WAT 
WAT WAT WAT WAT WAT WAT WAT WAT WAT WAT WAT WAT WAT WAT WAT WAT WAT WAT WAT WAT 
WAT WAT WAT WAT WAT WAT WAT WAT WAT WAT WAT WAT WAT WAT WAT WAT WAT WAT WAT WAT 
WAT WAT WAT WAT WAT WAT WAT WAT WAT WAT WAT WAT WAT WAT WAT WAT WAT WAT WAT WAT 
WAT WAT WAT WAT WAT WAT WAT WAT WAT WAT WAT WAT WAT WAT WAT WAT WAT WAT WAT WAT 
WAT WAT WAT WAT WAT WAT WAT WAT WAT WAT WAT WAT WAT WAT WAT WAT WAT WAT WAT WAT 
WAT WAT WAT WAT WAT WAT WAT WAT WAT WAT WAT WAT WAT WAT WAT WAT WAT WAT WAT WAT 
WAT WAT WAT WAT WAT WAT WAT WAT WAT WAT WAT WAT WAT WAT WAT WAT WAT WAT WAT WAT 
WAT WAT WAT WAT WAT WAT WAT WAT WAT WAT WAT WAT WAT WAT WAT WAT WAT WAT WAT WAT 
WAT WAT WAT WAT WAT WAT WAT WAT WAT WAT WAT WAT WAT WAT WAT WAT WAT WAT WAT WAT 
WAT WAT WAT WAT WAT WAT WAT WAT WAT WAT WAT WAT WAT WAT WAT WAT WAT WAT WAT WAT 
WAT WAT WAT WAT WAT WAT WAT WAT WAT WAT WAT WAT WAT WAT WAT WAT WAT WAT WAT WAT 
WAT WAT WAT WAT WAT WAT WAT WAT WAT WAT WAT WAT WAT WAT WAT WAT WAT WAT WAT WAT 
WAT WAT WAT WAT WAT WAT WAT WAT WAT WAT WAT WAT WAT WAT WAT WAT WAT WAT WAT WAT 
WAT WAT WAT WAT WAT WAT WAT WAT WAT WAT WAT WAT WAT WAT WAT WAT WAT WAT WAT WAT 
WAT WAT WAT WAT WAT WAT WAT WAT WAT WAT WAT WAT WAT WAT WAT WAT WAT WAT WAT WAT 
WAT WAT WAT WAT WAT WAT WAT WAT WAT WAT WAT WAT WAT WAT WAT WAT WAT WAT WAT WAT 
WAT WAT WAT WAT WAT WAT WAT WAT WAT WAT WAT WAT WAT WAT WAT WAT WAT WAT WAT WAT 
WAT WAT WAT WAT WAT WAT WAT WAT WAT WAT WAT WAT WAT WAT WAT WAT WAT WAT WAT WAT 
WAT WAT WAT WAT WAT WAT WAT WAT WAT WAT WAT WAT WAT WAT WAT WAT WAT WAT WAT WAT 
WAT WAT WAT WAT WAT WAT WAT WAT WAT WAT WAT WAT WAT WAT WAT WAT WAT WAT WAT WAT 
WAT WAT WAT WAT WAT WAT WAT WAT WAT WAT WAT WAT WAT WAT WAT WAT WAT WAT WAT WAT 
WAT WAT WAT WAT WAT WAT WAT WAT WAT WAT WAT WAT WAT WAT WAT WAT WAT WAT WAT WAT 
WAT WAT WAT WAT WAT WAT WAT WAT WAT WAT WAT WAT WAT WAT WAT WAT WAT WAT WAT WAT 
WAT WAT WAT WAT WAT WAT WAT WAT WAT WAT WAT WAT WAT WAT WAT WAT WAT WAT WAT WAT 
WAT WAT WAT WAT WAT WAT WAT WAT WAT WAT WAT WAT WAT WAT WAT WAT WAT WAT WAT WAT 
WAT WAT WAT WAT WAT WAT WAT WAT WAT WAT WAT WAT WAT WAT WAT WAT WAT WAT WAT WAT 
WAT WAT WAT WAT WAT WAT WAT WAT WAT WAT WAT WAT WAT WAT WAT WAT WAT WAT WAT WAT 
WAT WAT WAT WAT WAT WAT WAT WAT WAT WAT WAT WAT WAT WAT WAT WAT WAT WAT WAT WAT 
WAT WAT WAT WAT WAT WAT WAT WAT WAT WAT WAT WAT WAT WAT WAT WAT WAT WAT WAT WAT 
WAT WAT WAT WAT WAT WAT WAT WAT WAT WAT WAT WAT WAT WAT WAT WAT WAT WAT WAT WAT 
WAT WAT WAT WAT WAT WAT WAT WAT WAT WAT WAT WAT WAT WAT WAT WAT WAT WAT WAT WAT 
WAT WAT WAT WAT WAT WAT WAT WAT WAT WAT WAT WAT WAT WAT WAT WAT WAT WAT WAT WAT 
WAT WAT WAT WAT WAT WAT WAT WAT WAT WAT WAT WAT WAT WAT WAT WAT WAT WAT WAT WAT 
WAT WAT WAT WAT WAT WAT WAT WAT WAT WAT WAT WAT WAT WAT WAT WAT WAT WAT WAT WAT 
WAT WAT WAT WAT WAT WAT WAT WAT WAT WAT WAT WAT WAT WAT WAT WAT WAT WAT WAT WAT 
WAT WAT WAT WAT WAT WAT WAT WAT WAT WAT WAT WAT WAT WAT WAT WAT WAT WAT WAT WAT 
WAT WAT WAT WAT WAT WAT WAT WAT WAT WAT WAT WAT WAT WAT WAT WAT WAT WAT WAT WAT 
WAT WAT WAT WAT WAT WAT WAT WAT WAT WAT WAT WAT WAT WAT WAT WAT WAT WAT WAT WAT 
WAT WAT WAT WAT WAT WAT WAT WAT WAT WAT WAT WAT WAT WAT WAT WAT WAT WAT WAT WAT 
WAT WAT WAT WAT WAT WAT WAT WAT WAT WAT WAT WAT WAT WAT WAT WAT WAT WAT WAT WAT 
WAT WAT WAT WAT WAT WAT WAT WAT WAT WAT WAT WAT WAT WAT WAT WAT WAT WAT WAT WAT 
WAT WAT WAT WAT WAT WAT WAT WAT WAT WAT WAT WAT WAT WAT WAT WAT WAT WAT WAT WAT 
WAT WAT WAT WAT WAT WAT WAT WAT WAT WAT WAT WAT WAT WAT WAT WAT WAT WAT WAT WAT 
WAT WAT WAT WAT WAT WAT WAT WAT WAT WAT WAT WAT WAT WAT WAT WAT WAT WAT WAT WAT 
WAT WAT WAT WAT WAT WAT WAT WAT WAT WAT WAT WAT WAT WAT WAT WAT WAT WAT WAT WAT 
WAT WAT WAT WAT WAT WAT WAT WAT WAT WAT WAT WAT WAT WAT WAT WAT WAT WAT WAT WAT 
WAT WAT WAT WAT WAT WAT WAT WAT WAT WAT WAT WAT WAT WAT WAT WAT WAT WAT WAT WAT 
WAT WAT WAT WAT WAT WAT WAT WAT WAT WAT WAT WAT WAT WAT WAT WAT WAT WAT WAT WAT 
WAT WAT WAT WAT WAT WAT WAT WAT WAT WAT WAT WAT WAT WAT WAT WAT WAT WAT WAT WAT 
WAT WAT WAT WAT WAT WAT WAT WAT WAT WAT WAT WAT WAT WAT WAT WAT WAT WAT WAT WAT 
WAT WAT WAT WAT WAT WAT WAT WAT WAT WAT WAT WAT WAT WAT WAT WAT WAT WAT WAT WAT 
WAT WAT WAT WAT WAT WAT WAT WAT WAT WAT WAT WAT WAT WAT WAT WAT WAT WAT WAT WAT 
WAT WAT WAT WAT WAT WAT WAT WAT WAT WAT WAT WAT WAT WAT WAT WAT WAT WAT WAT WAT 
WAT WAT WAT WAT WAT WAT WAT WAT WAT WAT WAT WAT WAT WAT WAT WAT WAT WAT WAT WAT 
WAT WAT WAT WAT WAT WAT WAT WAT WAT WAT WAT WAT WAT WAT WAT WAT WAT WAT WAT WAT 
WAT WAT WAT WAT WAT WAT WAT WAT WAT WAT WAT WAT WAT WAT WAT WAT WAT WAT WAT WAT 
WAT WAT WAT WAT WAT WAT WAT WAT WAT WAT WAT WAT WAT WAT WAT WAT WAT WAT WAT WAT 
WAT WAT WAT WAT WAT WAT WAT WAT WAT WAT WAT WAT WAT WAT WAT WAT WAT WAT WAT WAT 
WAT WAT WAT WAT WAT WAT WAT WAT WAT WAT WAT WAT WAT WAT WAT WAT WAT WAT WAT WAT 
WAT WAT WAT WAT WAT WAT WAT WAT WAT WAT WAT WAT WAT WAT WAT WAT WAT WAT WAT WAT 
WAT WAT WAT WAT WAT WAT WAT WAT WAT WAT WAT WAT WAT WAT WAT WAT WAT WAT WAT WAT 
WAT WAT WAT WAT WAT WAT WAT WAT WAT WAT WAT WAT WAT WAT WAT WAT WAT WAT WAT WAT 
WAT WAT WAT WAT WAT WAT WAT WAT WAT WAT WAT WAT WAT WAT WAT WAT WAT WAT WAT WAT 
WAT WAT WAT WAT WAT WAT WAT WAT WAT WAT WAT WAT WAT WAT WAT WAT WAT WAT WAT WAT 
WAT WAT WAT WAT WAT WAT WAT WAT WAT WAT WAT WAT WAT WAT WAT WAT WAT WAT WAT WAT 
WAT WAT WAT WAT WAT WAT WAT WAT WAT WAT WAT WAT WAT WAT WAT WAT WAT WAT WAT WAT 
WAT WAT WAT WAT WAT WAT WAT WAT WAT WAT WAT WAT WAT WAT WAT WAT WAT WAT WAT WAT 
WAT WAT WAT WAT WAT WAT WAT WAT WAT WAT WAT WAT WAT WAT WAT WAT WAT WAT WAT WAT 
WAT WAT WAT WAT WAT WAT WAT WAT WAT WAT WAT WAT WAT WAT WAT WAT WAT WAT WAT WAT 
WAT WAT WAT WAT WAT WAT WAT WAT WAT WAT WAT WAT WAT WAT WAT WAT WAT WAT WAT WAT 
WAT WAT WAT WAT WAT WAT WAT WAT WAT WAT WAT WAT WAT WAT WAT WAT WAT WAT WAT WAT 
WAT WAT WAT WAT WAT WAT WAT WAT WAT WAT WAT WAT WAT WAT WAT WAT WAT WAT WAT WAT 
WAT WAT WAT WAT WAT WAT WAT WAT WAT WAT WAT WAT WAT WAT WAT WAT WAT WAT WAT WAT 
WAT WAT WAT WAT WAT WAT WAT WAT WAT WAT WAT WAT WAT WAT WAT WAT WAT WAT WAT WAT 
WAT WAT WAT WAT WAT WAT WAT WAT WAT WAT WAT WAT WAT WAT WAT WAT WAT WAT WAT WAT 
WAT WAT WAT WAT WAT WAT WAT WAT WAT WAT WAT WAT WAT WAT WAT WAT WAT WAT WAT WAT 
WAT WAT WAT WAT WAT WAT WAT WAT WAT WAT WAT WAT WAT WAT WAT WAT WAT WAT WAT WAT 
WAT WAT WAT WAT WAT WAT WAT WAT WAT WAT WAT WAT WAT WAT WAT WAT WAT WAT WAT WAT 
WAT WAT WAT WAT WAT WAT WAT WAT WAT WAT WAT WAT WAT WAT WAT WAT WAT WAT WAT WAT 
WAT WAT WAT WAT WAT WAT WAT WAT WAT WAT WAT WAT WAT WAT WAT WAT WAT WAT WAT WAT 
WAT WAT WAT WAT WAT WAT WAT WAT WAT WAT WAT WAT WAT WAT WAT WAT WAT WAT WAT WAT 
WAT WAT WAT WAT WAT WAT WAT WAT WAT WAT WAT WAT WAT WAT WAT WAT WAT WAT WAT WAT 
WAT WAT WAT WAT WAT WAT WAT WAT WAT WAT WAT WAT WAT WAT WAT WAT WAT WAT WAT WAT 
WAT WAT WAT WAT WAT WAT WAT WAT WAT WAT WAT WAT WAT WAT WAT WAT WAT WAT WAT WAT 
WAT WAT WAT WAT WAT WAT WAT WAT WAT WAT WAT WAT WAT WAT WAT WAT WAT WAT WAT WAT 
WAT WAT WAT WAT WAT WAT WAT WAT WAT WAT WAT WAT WAT WAT WAT WAT WAT WAT WAT WAT 
WAT WAT WAT WAT WAT WAT WAT WAT WAT WAT WAT WAT WAT WAT WAT WAT WAT WAT WAT WAT 
WAT WAT WAT WAT WAT WAT WAT WAT WAT WAT WAT WAT WAT WAT WAT WAT WAT WAT WAT WAT 
WAT WAT WAT WAT WAT WAT WAT WAT WAT WAT WAT WAT WAT WAT WAT WAT WAT WAT WAT WAT 
WAT WAT WAT WAT WAT WAT WAT WAT WAT WAT WAT WAT WAT WAT WAT WAT WAT WAT WAT WAT 
WAT WAT WAT WAT WAT WAT WAT WAT WAT WAT WAT WAT WAT WAT WAT WAT WAT WAT WAT WAT 
WAT WAT WAT WAT WAT WAT WAT WAT WAT WAT WAT WAT WAT WAT WAT WAT WAT WAT WAT WAT 
WAT WAT WAT WAT WAT WAT WAT WAT WAT WAT WAT WAT WAT WAT WAT WAT WAT WAT WAT WAT 
WAT WAT WAT WAT WAT WAT WAT WAT WAT WAT WAT WAT WAT WAT WAT WAT WAT WAT WAT WAT 
WAT WAT WAT WAT WAT WAT WAT WAT WAT WAT WAT WAT WAT WAT WAT WAT WAT WAT WAT WAT 
WAT WAT WAT WAT WAT WAT WAT WAT WAT WAT WAT WAT WAT WAT WAT WAT WAT WAT WAT WAT 
WAT WAT WAT WAT WAT WAT WAT WAT WAT WAT WAT WAT WAT WAT WAT WAT WAT WAT WAT WAT 
WAT WAT WAT WAT WAT WAT WAT WAT WAT WAT WAT WAT WAT WAT WAT WAT WAT WAT WAT WAT 
WAT WAT WAT WAT WAT WAT WAT WAT WAT WAT WAT WAT WAT WAT WAT WAT WAT WAT WAT WAT 
WAT WAT WAT WAT WAT WAT WAT WAT WAT WAT WAT WAT WAT WAT WAT WAT WAT WAT WAT WAT 
WAT WAT WAT WAT WAT WAT WAT WAT WAT WAT WAT WAT WAT WAT WAT WAT WAT WAT WAT WAT 
WAT WAT WAT WAT WAT WAT WAT WAT WAT WAT WAT WAT WAT WAT WAT WAT WAT WAT WAT WAT 
WAT WAT WAT WAT WAT WAT WAT WAT WAT WAT WAT WAT WAT WAT WAT WAT WAT WAT WAT WAT 
WAT WAT WAT WAT WAT WAT WAT WAT WAT WAT WAT WAT WAT WAT WAT WAT WAT WAT WAT WAT 
WAT WAT WAT WAT WAT WAT WAT WAT WAT WAT WAT WAT WAT WAT WAT WAT WAT WAT WAT WAT 
WAT WAT WAT WAT WAT WAT WAT WAT WAT WAT WAT WAT WAT WAT WAT WAT WAT WAT WAT WAT 
WAT WAT WAT WAT WAT WAT WAT WAT WAT WAT WAT WAT WAT WAT WAT WAT WAT WAT WAT WAT 
WAT WAT WAT WAT WAT WAT WAT WAT WAT WAT WAT WAT WAT WAT WAT WAT WAT WAT WAT WAT 
WAT WAT WAT WAT WAT WAT WAT WAT WAT WAT WAT WAT WAT WAT WAT WAT WAT WAT WAT WAT 
WAT WAT WAT WAT WAT WAT WAT WAT WAT WAT WAT WAT WAT WAT WAT WAT WAT WAT WAT WAT 
WAT WAT WAT WAT WAT WAT WAT WAT WAT WAT WAT WAT WAT WAT WAT WAT WAT WAT WAT WAT 
WAT WAT WAT WAT WAT WAT WAT WAT WAT WAT WAT WAT WAT WAT WAT WAT WAT WAT WAT WAT 
WAT WAT WAT WAT WAT WAT WAT WAT WAT WAT WAT WAT WAT WAT WAT WAT WAT WAT WAT WAT 
WAT WAT WAT WAT WAT WAT WAT WAT WAT WAT WAT WAT WAT WAT WAT WAT WAT WAT WAT WAT 
WAT WAT WAT WAT WAT WAT WAT WAT WAT WAT WAT WAT WAT WAT WAT WAT WAT WAT WAT WAT 
WAT WAT WAT WAT WAT WAT WAT WAT WAT WAT WAT WAT WAT WAT WAT WAT WAT WAT WAT WAT 
WAT WAT WAT WAT WAT WAT WAT WAT WAT WAT WAT WAT WAT WAT WAT WAT WAT WAT WAT WAT 
WAT WAT WAT WAT WAT WAT WAT WAT WAT WAT WAT WAT WAT WAT WAT WAT WAT WAT WAT WAT 
WAT WAT WAT WAT WAT WAT WAT WAT WAT WAT WAT WAT WAT WAT WAT WAT WAT WAT WAT WAT 
WAT WAT WAT WAT WAT WAT WAT WAT WAT WAT WAT WAT WAT WAT WAT WAT WAT WAT WAT WAT 
WAT WAT WAT WAT WAT WAT WAT WAT WAT WAT WAT WAT WAT WAT WAT WAT WAT WAT WAT WAT 
WAT WAT WAT WAT WAT WAT WAT WAT WAT WAT WAT WAT WAT WAT WAT WAT WAT WAT WAT WAT 
WAT WAT WAT WAT WAT WAT WAT WAT WAT WAT WAT WAT WAT WAT WAT WAT WAT WAT WAT WAT 
WAT WAT WAT WAT WAT WAT WAT WAT WAT WAT WAT WAT WAT WAT WAT WAT WAT WAT WAT WAT 
WAT WAT WAT WAT WAT WAT WAT WAT WAT WAT WAT WAT WAT WAT WAT WAT WAT WAT WAT WAT 
WAT WAT WAT WAT WAT WAT WAT WAT WAT WAT WAT WAT WAT WAT WAT WAT WAT WAT WAT WAT 
WAT WAT WAT WAT WAT WAT WAT WAT WAT WAT WAT WAT WAT WAT WAT WAT WAT WAT WAT WAT 
WAT WAT WAT WAT WAT WAT WAT WAT WAT WAT WAT WAT WAT WAT WAT WAT WAT WAT WAT WAT 
WAT WAT WAT WAT WAT WAT WAT WAT WAT WAT WAT WAT WAT WAT WAT WAT WAT WAT WAT WAT 
WAT WAT WAT WAT WAT WAT WAT WAT WAT WAT WAT WAT WAT WAT WAT WAT WAT WAT WAT WAT 
WAT WAT WAT WAT WAT WAT WAT WAT WAT WAT WAT WAT WAT WAT WAT WAT WAT WAT WAT WAT 
WAT WAT WAT WAT WAT WAT WAT WAT WAT WAT WAT WAT WAT WAT WAT WAT WAT WAT WAT WAT 
WAT WAT WAT WAT WAT WAT WAT WAT WAT WAT WAT WAT WAT WAT WAT WAT WAT WAT WAT WAT 
WAT WAT WAT WAT WAT WAT WAT WAT WAT WAT WAT WAT WAT WAT WAT WAT WAT WAT WAT WAT 
WAT WAT WAT WAT WAT WAT WAT WAT WAT WAT WAT WAT WAT WAT WAT WAT WAT WAT WAT WAT 
WAT WAT WAT WAT WAT WAT WAT WAT WAT WAT WAT WAT WAT WAT WAT WAT WAT WAT WAT WAT 
WAT WAT WAT WAT WAT WAT WAT WAT WAT WAT WAT WAT WAT WAT WAT WAT WAT WAT WAT WAT 
WAT WAT WAT WAT WAT WAT WAT WAT WAT WAT WAT WAT WAT WAT WAT WAT WAT WAT WAT WAT 
WAT WAT WAT WAT WAT WAT WAT WAT WAT WAT WAT WAT WAT WAT WAT WAT WAT WAT WAT WAT 
WAT WAT WAT WAT WAT WAT WAT WAT WAT WAT WAT WAT WAT WAT WAT WAT WAT WAT WAT WAT 
WAT WAT WAT WAT WAT WAT WAT WAT WAT WAT WAT WAT WAT WAT WAT WAT WAT WAT WAT WAT 
WAT WAT WAT WAT WAT WAT WAT WAT WAT WAT WAT WAT WAT WAT WAT WAT WAT WAT WAT WAT 
WAT WAT WAT WAT WAT WAT WAT WAT WAT WAT WAT WAT WAT WAT WAT WAT WAT WAT WAT WAT 
WAT WAT WAT WAT WAT WAT WAT WAT WAT WAT WAT WAT WAT WAT WAT WAT WAT WAT WAT WAT 
WAT WAT WAT WAT WAT WAT WAT WAT WAT WAT WAT WAT WAT WAT WAT WAT WAT WAT WAT WAT 
WAT WAT WAT WAT WAT WAT WAT WAT WAT WAT WAT WAT WAT WAT WAT WAT WAT WAT WAT WAT 
WAT WAT WAT WAT WAT WAT WAT WAT WAT WAT WAT WAT WAT WAT WAT WAT WAT WAT WAT WAT 
WAT WAT WAT WAT WAT WAT WAT WAT WAT WAT WAT WAT WAT WAT WAT WAT WAT WAT WAT WAT 
WAT WAT WAT WAT WAT WAT WAT WAT WAT WAT WAT WAT WAT WAT WAT WAT WAT WAT WAT WAT 
WAT WAT WAT WAT WAT WAT WAT WAT WAT WAT WAT WAT WAT WAT WAT WAT WAT WAT WAT WAT 
WAT WAT WAT WAT WAT WAT WAT WAT WAT WAT WAT WAT WAT WAT WAT WAT WAT WAT WAT WAT 
WAT WAT WAT WAT WAT WAT WAT WAT WAT WAT WAT WAT WAT WAT WAT WAT WAT WAT WAT WAT 
WAT WAT WAT WAT WAT WAT WAT WAT WAT WAT WAT WAT WAT WAT WAT WAT WAT WAT WAT WAT 
WAT WAT WAT WAT WAT WAT WAT WAT WAT WAT WAT WAT WAT WAT WAT WAT WAT WAT WAT WAT 
WAT WAT WAT WAT WAT WAT WAT WAT WAT WAT WAT WAT WAT WAT WAT WAT WAT WAT WAT WAT 
WAT WAT WAT WAT WAT WAT WAT WAT WAT WAT WAT WAT WAT WAT WAT WAT WAT WAT WAT WAT 
WAT WAT WAT WAT WAT WAT WAT WAT WAT WAT WAT WAT WAT WAT WAT WAT WAT WAT WAT WAT 
WAT WAT WAT WAT WAT WAT WAT WAT WAT WAT WAT WAT WAT WAT WAT WAT WAT WAT WAT WAT 
WAT WAT WAT WAT WAT WAT WAT WAT WAT WAT WAT WAT WAT WAT WAT WAT WAT WAT WAT WAT 
WAT WAT WAT WAT WAT WAT WAT WAT WAT WAT WAT WAT WAT WAT WAT WAT WAT WAT WAT WAT 
WAT WAT WAT WAT WAT WAT WAT WAT WAT WAT WAT WAT WAT WAT WAT WAT WAT WAT WAT WAT 
WAT WAT WAT WAT WAT WAT WAT WAT WAT WAT WAT WAT WAT WAT WAT WAT WAT WAT WAT WAT 
WAT WAT WAT WAT WAT WAT WAT WAT WAT WAT WAT WAT WAT WAT WAT WAT WAT WAT WAT WAT 
WAT WAT WAT WAT WAT WAT WAT WAT WAT WAT WAT WAT WAT WAT WAT WAT WAT WAT WAT WAT 
WAT WAT WAT WAT WAT WAT WAT WAT WAT WAT WAT WAT WAT WAT WAT WAT WAT WAT WAT WAT 
WAT WAT WAT WAT WAT WAT WAT WAT WAT WAT WAT WAT WAT WAT WAT WAT WAT WAT WAT WAT 
WAT WAT WAT WAT WAT WAT WAT WAT WAT WAT WAT WAT WAT WAT WAT WAT WAT WAT WAT WAT 
WAT WAT WAT WAT WAT WAT WAT WAT WAT WAT WAT WAT WAT WAT WAT WAT WAT WAT WAT WAT 
WAT WAT WAT WAT WAT WAT WAT WAT WAT WAT WAT WAT WAT WAT WAT WAT WAT WAT WAT WAT 
WAT WAT WAT WAT WAT WAT WAT WAT WAT WAT WAT WAT WAT WAT WAT WAT WAT WAT WAT WAT 
WAT WAT WAT WAT WAT WAT WAT WAT WAT WAT WAT WAT WAT WAT WAT WAT WAT WAT WAT WAT 
WAT WAT WAT WAT WAT WAT WAT WAT WAT WAT WAT WAT WAT WAT WAT WAT WAT WAT WAT WAT 
WAT WAT WAT WAT WAT WAT WAT WAT WAT WAT WAT WAT WAT WAT WAT WAT WAT WAT WAT WAT 
WAT WAT WAT WAT WAT WAT WAT WAT WAT WAT WAT WAT WAT WAT WAT WAT WAT WAT WAT WAT 
WAT WAT WAT WAT WAT WAT WAT WAT WAT WAT WAT WAT WAT WAT WAT WAT WAT WAT WAT WAT 
WAT WAT WAT WAT WAT WAT WAT WAT WAT WAT WAT WAT WAT WAT WAT WAT WAT WAT WAT WAT 
WAT WAT WAT WAT WAT WAT WAT WAT WAT WAT WAT WAT WAT WAT WAT WAT WAT WAT WAT WAT 
WAT WAT WAT WAT WAT WAT WAT WAT WAT WAT WAT WAT WAT WAT WAT WAT WAT WAT WAT WAT 
WAT WAT WAT WAT WAT WAT WAT WAT WAT WAT WAT WAT WAT WAT WAT WAT WAT WAT WAT WAT 
WAT WAT WAT WAT WAT WAT WAT WAT WAT WAT WAT WAT WAT WAT WAT WAT WAT WAT WAT WAT 
WAT WAT WAT WAT WAT WAT WAT WAT WAT WAT WAT WAT WAT WAT WAT WAT WAT WAT WAT WAT 
WAT WAT WAT WAT WAT WAT WAT WAT WAT WAT WAT WAT WAT WAT WAT WAT WAT WAT WAT WAT 
WAT WAT WAT WAT WAT WAT WAT WAT WAT WAT WAT WAT WAT WAT WAT WAT WAT WAT WAT WAT 
WAT WAT WAT WAT WAT WAT WAT WAT WAT WAT WAT WAT WAT WAT WAT WAT WAT WAT WAT WAT 
WAT WAT WAT WAT WAT WAT WAT WAT WAT WAT WAT WAT WAT WAT WAT WAT WAT WAT WAT WAT 
WAT WAT WAT WAT WAT WAT WAT WAT WAT WAT WAT WAT WAT WAT WAT WAT WAT WAT WAT WAT 
WAT WAT WAT WAT WAT WAT WAT WAT WAT WAT WAT WAT WAT WAT WAT WAT WAT WAT WAT WAT 
WAT WAT WAT WAT WAT WAT WAT WAT WAT WAT WAT WAT WAT WAT WAT WAT WAT WAT WAT WAT 
WAT WAT WAT WAT WAT WAT WAT WAT WAT WAT WAT WAT WAT WAT WAT WAT WAT WAT WAT WAT 
WAT WAT WAT WAT WAT WAT WAT WAT WAT WAT WAT WAT WAT WAT WAT WAT WAT WAT WAT WAT 
WAT WAT WAT WAT WAT WAT WAT WAT WAT WAT WAT WAT WAT WAT WAT WAT WAT WAT WAT WAT 
WAT WAT WAT WAT WAT WAT WAT WAT WAT WAT WAT WAT WAT WAT WAT WAT WAT WAT WAT WAT 
WAT WAT WAT WAT WAT WAT WAT WAT WAT WAT WAT WAT WAT WAT WAT WAT WAT WAT WAT WAT 
WAT WAT WAT WAT WAT WAT WAT WAT WAT WAT WAT WAT WAT WAT WAT WAT WAT WAT WAT WAT 
WAT WAT WAT WAT WAT WAT WAT WAT WAT WAT WAT WAT WAT WAT WAT WAT WAT WAT WAT WAT 
WAT WAT WAT WAT WAT WAT WAT WAT WAT WAT WAT WAT WAT WAT WAT WAT WAT WAT WAT WAT 
WAT WAT WAT WAT WAT WAT WAT WAT WAT WAT WAT WAT WAT WAT WAT WAT WAT WAT WAT WAT 
WAT WAT WAT WAT WAT WAT WAT WAT WAT WAT WAT WAT WAT WAT WAT WAT WAT WAT WAT WAT 
WAT WAT WAT WAT WAT WAT WAT WAT WAT WAT WAT WAT WAT WAT WAT WAT WAT WAT WAT WAT 
WAT WAT WAT WAT WAT WAT WAT WAT WAT WAT WAT WAT WAT WAT WAT WAT WAT WAT WAT WAT 
WAT WAT WAT WAT WAT WAT WAT WAT WAT WAT WAT WAT WAT WAT WAT WAT WAT WAT WAT WAT 
WAT WAT WAT WAT WAT WAT WAT WAT WAT WAT WAT WAT WAT WAT WAT WAT WAT WAT WAT WAT 
WAT WAT WAT WAT WAT WAT WAT WAT WAT WAT WAT WAT WAT WAT WAT WAT WAT WAT WAT WAT 
WAT WAT WAT WAT WAT WAT WAT WAT WAT WAT WAT WAT WAT WAT WAT WAT WAT WAT WAT WAT 
WAT WAT WAT WAT WAT WAT WAT WAT WAT WAT WAT WAT WAT WAT WAT WAT WAT WAT WAT WAT 
WAT WAT WAT WAT WAT WAT WAT WAT WAT WAT WAT WAT WAT WAT WAT WAT WAT WAT WAT WAT 
WAT WAT WAT WAT WAT WAT WAT WAT WAT WAT WAT WAT WAT WAT WAT WAT WAT WAT WAT WAT 
WAT WAT WAT WAT WAT WAT WAT WAT WAT WAT WAT WAT WAT WAT WAT WAT WAT WAT WAT WAT 
WAT WAT WAT WAT WAT WAT WAT WAT WAT WAT WAT WAT WAT WAT WAT WAT WAT WAT WAT WAT 
WAT WAT WAT WAT WAT WAT WAT WAT WAT WAT WAT WAT WAT WAT WAT WAT WAT WAT WAT WAT 
WAT WAT WAT WAT WAT WAT WAT WAT WAT WAT WAT WAT WAT WAT WAT WAT WAT WAT WAT WAT 
WAT WAT WAT WAT WAT WAT WAT WAT WAT WAT WAT WAT WAT WAT WAT WAT WAT WAT WAT WAT 
WAT WAT WAT WAT WAT WAT WAT WAT WAT WAT WAT WAT WAT WAT WAT WAT WAT WAT WAT WAT 
WAT WAT WAT WAT WAT WAT WAT WAT WAT WAT WAT WAT WAT WAT WAT WAT WAT WAT WAT WAT 
WAT WAT WAT WAT WAT WAT WAT WAT WAT WAT WAT WAT WAT WAT WAT WAT WAT WAT WAT WAT 
WAT WAT WAT WAT WAT WAT WAT WAT WAT WAT WAT WAT WAT WAT WAT WAT WAT WAT WAT WAT 
WAT WAT WAT WAT WAT WAT WAT WAT WAT WAT WAT WAT WAT WAT WAT WAT WAT WAT WAT WAT 
WAT WAT WAT WAT WAT WAT WAT WAT WAT WAT WAT WAT WAT WAT WAT WAT WAT WAT WAT WAT 
WAT WAT WAT WAT WAT WAT WAT WAT WAT WAT WAT WAT WAT WAT WAT WAT WAT WAT WAT WAT 
WAT WAT WAT WAT WAT WAT WAT WAT WAT WAT WAT WAT WAT WAT WAT WAT WAT WAT WAT WAT 
WAT WAT WAT WAT WAT WAT WAT WAT WAT WAT WAT WAT WAT WAT WAT WAT WAT WAT WAT WAT 
WAT WAT WAT WAT WAT WAT WAT WAT WAT WAT WAT WAT WAT WAT WAT WAT WAT WAT WAT WAT 
WAT WAT WAT WAT WAT WAT WAT WAT WAT WAT WAT WAT WAT WAT WAT WAT WAT WAT WAT WAT 
WAT WAT WAT WAT WAT WAT WAT WAT WAT WAT WAT WAT WAT WAT WAT WAT WAT WAT WAT WAT 
WAT WAT WAT WAT WAT WAT WAT WAT WAT WAT WAT WAT WAT WAT WAT WAT WAT WAT WAT WAT 
WAT WAT WAT WAT WAT WAT WAT WAT WAT WAT WAT WAT WAT WAT WAT WAT WAT WAT WAT WAT 
WAT WAT WAT WAT WAT WAT WAT WAT WAT WAT WAT WAT WAT WAT WAT WAT WAT WAT WAT WAT 
WAT WAT WAT WAT WAT WAT WAT WAT WAT WAT WAT WAT WAT WAT WAT WAT WAT WAT WAT WAT 
WAT WAT WAT WAT WAT WAT WAT WAT WAT WAT WAT WAT WAT WAT WAT WAT WAT WAT WAT WAT 
WAT WAT WAT WAT WAT WAT WAT WAT WAT WAT WAT WAT WAT WAT WAT WAT WAT WAT WAT WAT 
WAT WAT WAT WAT WAT WAT WAT WAT WAT WAT WAT WAT WAT WAT WAT WAT WAT WAT WAT WAT 
WAT WAT WAT WAT WAT WAT WAT WAT WAT WAT WAT WAT WAT WAT WAT WAT WAT WAT WAT WAT 
WAT WAT WAT WAT WAT WAT WAT WAT WAT WAT WAT WAT WAT WAT WAT WAT WAT WAT WAT WAT 
WAT WAT WAT WAT WAT WAT WAT WAT WAT WAT WAT WAT WAT WAT WAT WAT WAT WAT WAT WAT 
WAT WAT WAT WAT WAT WAT WAT WAT WAT WAT WAT WAT WAT WAT WAT WAT WAT WAT WAT WAT 
WAT WAT WAT WAT WAT WAT WAT WAT WAT WAT WAT WAT WAT WAT WAT WAT WAT WAT WAT WAT 
WAT WAT WAT WAT WAT WAT WAT WAT WAT WAT WAT WAT WAT WAT WAT WAT WAT WAT WAT WAT 
WAT WAT WAT WAT WAT WAT WAT WAT WAT WAT WAT WAT WAT WAT WAT WAT WAT WAT WAT WAT 
WAT WAT WAT WAT WAT WAT WAT WAT WAT WAT WAT WAT WAT WAT WAT WAT WAT WAT WAT WAT 
WAT WAT WAT WAT WAT WAT WAT WAT WAT WAT WAT WAT WAT WAT WAT WAT WAT WAT WAT WAT 
WAT WAT WAT WAT WAT WAT WAT WAT WAT WAT WAT WAT WAT WAT WAT WAT WAT WAT WAT WAT 
WAT WAT WAT WAT WAT WAT WAT WAT WAT WAT WAT WAT WAT WAT WAT WAT WAT WAT WAT WAT 
WAT WAT WAT WAT WAT WAT WAT WAT WAT WAT WAT WAT WAT WAT WAT WAT WAT WAT WAT WAT 
WAT WAT WAT WAT WAT WAT WAT WAT WAT WAT WAT WAT WAT WAT WAT WAT WAT WAT WAT WAT 
WAT WAT WAT WAT WAT WAT WAT WAT WAT WAT WAT WAT WAT WAT WAT WAT WAT WAT WAT WAT 
WAT WAT WAT WAT WAT WAT WAT WAT WAT WAT WAT WAT WAT WAT WAT WAT WAT WAT WAT WAT 
WAT WAT WAT WAT WAT WAT WAT WAT WAT WAT WAT WAT WAT WAT WAT WAT WAT WAT WAT WAT 
WAT WAT WAT WAT WAT WAT WAT WAT WAT WAT WAT WAT WAT WAT WAT WAT WAT WAT WAT WAT 
WAT WAT WAT WAT WAT WAT WAT WAT WAT WAT WAT WAT WAT WAT WAT WAT WAT WAT WAT WAT 
WAT WAT WAT WAT WAT WAT WAT WAT WAT WAT WAT WAT WAT WAT WAT WAT WAT WAT WAT WAT 
WAT WAT WAT WAT WAT WAT WAT WAT WAT WAT WAT WAT WAT WAT WAT WAT WAT WAT WAT WAT 
WAT WAT WAT WAT WAT WAT WAT WAT WAT WAT WAT WAT WAT WAT WAT WAT WAT WAT WAT WAT 
WAT WAT WAT WAT WAT WAT WAT WAT WAT WAT WAT WAT WAT WAT WAT WAT WAT WAT WAT WAT 
WAT WAT WAT WAT WAT WAT WAT WAT WAT WAT WAT WAT WAT WAT WAT WAT WAT WAT WAT WAT 
WAT WAT WAT WAT WAT WAT WAT WAT WAT WAT WAT WAT WAT WAT WAT WAT WAT WAT WAT WAT 
WAT WAT WAT WAT WAT WAT WAT WAT WAT WAT WAT WAT WAT WAT WAT WAT WAT WAT WAT WAT 
WAT WAT WAT WAT WAT WAT WAT WAT WAT WAT WAT WAT WAT WAT WAT WAT WAT WAT WAT WAT 
WAT WAT WAT WAT WAT WAT WAT WAT WAT WAT WAT WAT WAT WAT WAT WAT WAT WAT WAT WAT 
WAT WAT WAT WAT WAT WAT WAT WAT WAT WAT WAT WAT WAT WAT WAT WAT WAT WAT WAT WAT 
WAT WAT WAT WAT WAT WAT WAT WAT WAT WAT WAT WAT WAT WAT WAT WAT WAT WAT WAT WAT 
WAT WAT WAT WAT WAT WAT WAT WAT WAT WAT WAT WAT WAT WAT WAT WAT WAT WAT WAT WAT 
WAT WAT WAT WAT WAT WAT WAT WAT WAT WAT WAT WAT WAT WAT WAT WAT WAT WAT WAT WAT 
WAT WAT WAT WAT WAT WAT WAT WAT WAT WAT WAT WAT WAT WAT WAT WAT WAT WAT WAT WAT 
WAT WAT WAT WAT WAT WAT WAT WAT WAT WAT WAT WAT WAT WAT WAT WAT WAT WAT WAT WAT 
WAT WAT WAT WAT WAT WAT WAT WAT WAT WAT WAT WAT WAT WAT WAT WAT WAT WAT WAT WAT 
WAT WAT WAT WAT WAT WAT WAT WAT WAT WAT WAT WAT WAT WAT WAT WAT WAT WAT WAT WAT 
WAT WAT WAT WAT WAT WAT WAT WAT WAT WAT WAT WAT WAT WAT WAT WAT WAT WAT WAT WAT 
WAT WAT WAT WAT WAT WAT WAT WAT WAT WAT WAT WAT WAT WAT WAT WAT WAT WAT WAT WAT 
WAT WAT WAT WAT WAT WAT WAT WAT WAT WAT WAT WAT WAT WAT WAT WAT WAT WAT WAT WAT 
WAT WAT WAT WAT WAT WAT WAT WAT WAT WAT WAT WAT WAT WAT WAT WAT WAT WAT WAT WAT 
WAT WAT WAT WAT WAT WAT WAT WAT WAT WAT WAT WAT WAT WAT WAT WAT WAT WAT WAT WAT 
WAT WAT WAT WAT WAT WAT WAT WAT WAT WAT WAT WAT WAT WAT WAT WAT WAT WAT WAT WAT 
WAT WAT WAT WAT WAT WAT WAT WAT WAT WAT WAT WAT WAT WAT WAT WAT WAT WAT WAT WAT 
WAT WAT WAT WAT WAT WAT WAT WAT WAT WAT WAT WAT WAT WAT WAT WAT WAT WAT WAT WAT 
WAT WAT WAT WAT WAT WAT WAT WAT WAT WAT WAT WAT WAT WAT WAT WAT WAT WAT WAT WAT 
WAT WAT WAT WAT WAT WAT WAT WAT WAT WAT WAT WAT WAT WAT WAT WAT WAT WAT WAT WAT 
WAT WAT WAT WAT WAT WAT WAT WAT WAT WAT WAT WAT WAT WAT WAT WAT WAT WAT WAT WAT 
WAT WAT WAT WAT WAT WAT WAT WAT WAT WAT WAT WAT WAT WAT WAT WAT WAT WAT WAT WAT 
WAT WAT WAT WAT WAT WAT WAT WAT WAT WAT WAT WAT WAT WAT WAT WAT WAT WAT WAT WAT 
WAT WAT WAT WAT WAT WAT WAT WAT WAT WAT WAT WAT WAT WAT WAT WAT WAT WAT WAT WAT 
WAT WAT WAT WAT WAT WAT WAT WAT WAT WAT WAT WAT WAT WAT WAT WAT WAT WAT WAT WAT 
WAT WAT WAT WAT WAT WAT WAT WAT WAT WAT WAT WAT WAT WAT WAT WAT WAT WAT WAT WAT 
WAT WAT WAT WAT WAT WAT WAT WAT WAT WAT WAT WAT WAT WAT WAT WAT WAT WAT WAT WAT 
WAT WAT WAT WAT WAT WAT WAT WAT WAT WAT WAT WAT WAT WAT WAT WAT WAT WAT WAT WAT 
WAT WAT WAT WAT WAT WAT WAT WAT WAT WAT WAT WAT WAT WAT WAT WAT WAT WAT WAT WAT 
WAT WAT WAT WAT WAT WAT WAT WAT WAT WAT WAT WAT WAT WAT WAT WAT WAT WAT WAT WAT 
WAT WAT WAT WAT WAT WAT WAT WAT WAT WAT WAT WAT WAT WAT WAT WAT WAT WAT WAT WAT 
WAT WAT WAT WAT WAT WAT WAT WAT WAT WAT WAT WAT WAT WAT WAT WAT WAT WAT WAT WAT 
WAT WAT WAT WAT WAT WAT WAT WAT WAT WAT WAT WAT WAT WAT WAT WAT WAT WAT WAT WAT 
WAT WAT WAT WAT WAT WAT WAT WAT WAT WAT WAT WAT WAT WAT WAT WAT WAT WAT WAT WAT 
WAT WAT WAT WAT WAT WAT WAT WAT WAT WAT WAT WAT WAT WAT WAT WAT WAT WAT WAT WAT 
WAT WAT WAT WAT WAT WAT WAT WAT WAT WAT WAT WAT WAT WAT WAT WAT WAT WAT WAT WAT 
WAT WAT WAT WAT WAT WAT WAT WAT WAT WAT WAT WAT WAT WAT WAT WAT WAT WAT WAT WAT 
WAT WAT WAT WAT WAT WAT WAT WAT WAT WAT WAT WAT WAT WAT WAT WAT WAT WAT WAT WAT 
WAT WAT WAT WAT WAT WAT WAT WAT WAT WAT WAT WAT WAT WAT WAT WAT WAT WAT WAT WAT 
WAT WAT WAT WAT WAT WAT WAT WAT WAT WAT WAT WAT WAT WAT WAT WAT WAT WAT WAT WAT 
WAT WAT WAT WAT WAT WAT WAT WAT WAT WAT WAT WAT WAT WAT WAT WAT WAT WAT WAT WAT 
WAT WAT WAT WAT WAT WAT WAT WAT WAT WAT WAT WAT WAT WAT WAT WAT WAT WAT WAT WAT 
WAT WAT WAT WAT WAT WAT WAT WAT WAT WAT WAT WAT WAT WAT WAT WAT WAT WAT WAT WAT 
WAT WAT WAT WAT WAT WAT WAT WAT WAT WAT WAT WAT WAT WAT WAT WAT WAT WAT WAT WAT 
WAT WAT WAT WAT WAT WAT WAT WAT WAT WAT WAT WAT WAT WAT WAT WAT WAT WAT WAT WAT 
WAT WAT WAT WAT WAT WAT WAT WAT WAT WAT WAT WAT WAT WAT WAT WAT WAT WAT WAT WAT 
WAT WAT WAT WAT WAT WAT WAT WAT WAT WAT WAT WAT WAT WAT WAT WAT WAT WAT WAT WAT 
WAT WAT WAT WAT WAT WAT WAT WAT WAT WAT WAT WAT WAT WAT WAT WAT WAT WAT WAT WAT 
WAT WAT WAT WAT WAT WAT WAT WAT WAT WAT WAT WAT WAT WAT WAT WAT WAT WAT WAT WAT 
WAT WAT WAT WAT WAT WAT WAT WAT WAT WAT WAT WAT WAT WAT WAT WAT WAT WAT WAT WAT 
WAT WAT WAT WAT WAT WAT WAT WAT WAT WAT WAT WAT WAT WAT WAT WAT WAT WAT WAT WAT 
WAT WAT WAT WAT WAT WAT WAT WAT WAT WAT WAT WAT WAT WAT WAT WAT WAT WAT WAT WAT 
WAT WAT WAT WAT WAT WAT WAT WAT WAT WAT WAT WAT WAT WAT WAT WAT WAT WAT WAT WAT 
WAT WAT WAT WAT WAT WAT WAT WAT WAT WAT WAT WAT WAT WAT WAT WAT WAT WAT WAT WAT 
WAT WAT WAT WAT WAT WAT WAT WAT WAT WAT WAT WAT WAT WAT WAT WAT WAT WAT WAT WAT 
WAT WAT WAT WAT WAT WAT WAT WAT WAT WAT WAT WAT WAT WAT WAT WAT WAT WAT WAT WAT 
WAT WAT WAT WAT WAT WAT WAT WAT WAT WAT WAT WAT WAT WAT WAT WAT WAT WAT WAT WAT 
WAT WAT WAT WAT WAT WAT WAT WAT WAT WAT WAT WAT WAT WAT WAT WAT WAT WAT WAT WAT 
WAT WAT WAT WAT WAT WAT WAT WAT WAT WAT WAT WAT WAT WAT WAT WAT WAT WAT WAT WAT 
WAT WAT WAT WAT WAT WAT WAT WAT WAT WAT WAT WAT WAT WAT WAT WAT WAT WAT WAT WAT 
WAT WAT WAT WAT WAT WAT WAT WAT WAT WAT WAT WAT WAT WAT WAT WAT WAT WAT WAT WAT 
WAT WAT WAT WAT WAT WAT WAT WAT WAT WAT WAT WAT WAT WAT WAT WAT WAT WAT WAT WAT 
WAT WAT WAT WAT WAT WAT WAT WAT WAT WAT WAT WAT WAT WAT WAT WAT WAT WAT WAT WAT 
WAT WAT WAT WAT WAT WAT WAT WAT WAT WAT WAT WAT WAT WAT WAT WAT WAT WAT WAT WAT 
WAT WAT WAT WAT WAT WAT WAT WAT WAT WAT WAT WAT WAT WAT WAT WAT WAT WAT WAT WAT 
WAT WAT WAT WAT WAT WAT WAT WAT WAT WAT WAT WAT WAT WAT WAT WAT WAT WAT WAT WAT 
WAT WAT WAT WAT WAT WAT WAT WAT WAT WAT WAT WAT WAT WAT WAT WAT WAT WAT WAT WAT 
WAT WAT WAT WAT WAT WAT WAT WAT WAT WAT WAT WAT WAT WAT WAT WAT WAT WAT WAT WAT 
WAT WAT WAT WAT WAT WAT WAT WAT WAT WAT WAT WAT WAT WAT WAT WAT WAT WAT WAT WAT 
WAT WAT WAT WAT WAT WAT WAT WAT WAT WAT WAT WAT WAT WAT WAT WAT WAT WAT WAT WAT 
WAT WAT WAT WAT WAT WAT WAT WAT WAT WAT WAT WAT WAT WAT WAT WAT WAT WAT WAT WAT 
WAT WAT WAT WAT WAT WAT WAT WAT WAT WAT WAT WAT WAT WAT WAT WAT WAT WAT WAT WAT 
WAT WAT WAT WAT WAT WAT WAT WAT WAT WAT WAT WAT WAT WAT WAT WAT WAT WAT WAT WAT 
WAT WAT WAT WAT WAT WAT WAT WAT WAT WAT WAT WAT WAT WAT WAT WAT WAT WAT WAT WAT 
WAT WAT WAT WAT WAT WAT WAT WAT WAT WAT WAT WAT WAT WAT WAT WAT WAT WAT WAT WAT 
WAT WAT WAT WAT WAT WAT WAT WAT WAT WAT WAT WAT WAT WAT WAT WAT WAT WAT WAT WAT 
WAT WAT WAT WAT WAT WAT WAT WAT WAT WAT WAT WAT WAT WAT WAT WAT WAT WAT WAT WAT 
WAT WAT WAT WAT WAT WAT WAT WAT WAT WAT WAT WAT WAT WAT WAT WAT WAT WAT WAT WAT 
WAT WAT WAT WAT WAT WAT WAT WAT WAT WAT WAT WAT WAT WAT WAT WAT WAT WAT WAT WAT 
WAT WAT WAT WAT WAT WAT WAT WAT WAT WAT WAT WAT WAT WAT WAT WAT WAT WAT WAT WAT 
WAT WAT WAT WAT WAT WAT WAT WAT WAT WAT WAT WAT WAT WAT WAT WAT WAT WAT WAT WAT 
WAT WAT WAT WAT WAT WAT WAT WAT WAT WAT WAT WAT WAT WAT WAT WAT WAT WAT WAT WAT 
WAT WAT WAT WAT WAT WAT WAT WAT WAT WAT WAT WAT WAT WAT WAT WAT WAT WAT WAT WAT 
WAT WAT WAT WAT WAT WAT WAT WAT WAT WAT WAT WAT WAT WAT WAT WAT WAT WAT WAT WAT 
WAT WAT WAT WAT WAT WAT WAT WAT WAT WAT WAT WAT WAT WAT WAT WAT WAT WAT WAT WAT 
WAT WAT WAT WAT WAT WAT WAT WAT WAT WAT WAT WAT WAT WAT WAT WAT WAT WAT WAT WAT 
WAT WAT WAT WAT WAT WAT WAT WAT WAT WAT WAT WAT WAT WAT WAT WAT WAT WAT WAT WAT 
WAT WAT WAT WAT WAT WAT WAT WAT WAT WAT WAT WAT WAT WAT WAT WAT WAT WAT WAT WAT 
WAT WAT WAT WAT WAT WAT WAT WAT WAT WAT WAT WAT WAT WAT WAT WAT WAT WAT WAT WAT 
WAT WAT WAT WAT WAT WAT WAT WAT WAT WAT WAT WAT WAT WAT WAT WAT WAT WAT WAT WAT 
WAT WAT WAT WAT WAT WAT WAT WAT WAT WAT WAT WAT WAT WAT WAT WAT WAT WAT WAT WAT 
WAT WAT WAT WAT WAT WAT WAT WAT WAT WAT WAT WAT WAT WAT WAT WAT WAT WAT WAT WAT 
WAT WAT WAT WAT WAT WAT WAT WAT WAT WAT WAT WAT WAT WAT WAT WAT WAT WAT WAT WAT 
WAT WAT WAT WAT WAT WAT WAT WAT WAT WAT WAT WAT WAT WAT WAT WAT WAT WAT WAT WAT 
WAT WAT WAT WAT WAT WAT WAT WAT WAT WAT WAT WAT WAT WAT WAT WAT WAT WAT WAT WAT 
WAT WAT WAT WAT WAT WAT WAT WAT WAT WAT WAT WAT WAT WAT WAT WAT WAT WAT WAT WAT 
WAT WAT WAT WAT WAT WAT WAT WAT WAT WAT WAT WAT WAT WAT WAT WAT WAT WAT WAT WAT 
WAT WAT WAT WAT WAT WAT WAT WAT WAT WAT WAT WAT WAT WAT WAT WAT WAT WAT WAT WAT 
WAT WAT WAT WAT WAT WAT WAT WAT WAT WAT WAT WAT WAT WAT WAT WAT WAT WAT WAT WAT 
WAT WAT WAT WAT WAT WAT WAT WAT WAT WAT WAT WAT WAT WAT WAT WAT WAT WAT WAT WAT 
WAT WAT WAT WAT WAT WAT WAT WAT WAT WAT WAT WAT WAT WAT WAT WAT WAT WAT WAT WAT 
WAT WAT WAT WAT WAT WAT WAT WAT WAT WAT WAT WAT WAT WAT WAT WAT WAT WAT WAT WAT 
WAT WAT WAT WAT WAT WAT WAT WAT WAT WAT WAT WAT WAT WAT WAT WAT WAT WAT WAT WAT 
WAT WAT WAT WAT WAT WAT WAT WAT WAT WAT WAT WAT WAT WAT WAT WAT WAT WAT WAT WAT 
WAT WAT WAT WAT WAT WAT WAT WAT WAT WAT WAT WAT WAT WAT WAT WAT WAT WAT WAT WAT 
WAT WAT WAT WAT WAT WAT WAT WAT WAT WAT WAT WAT WAT WAT WAT WAT WAT WAT WAT WAT 
WAT WAT WAT WAT WAT WAT WAT WAT WAT WAT WAT WAT WAT WAT WAT WAT WAT WAT WAT WAT 
WAT WAT WAT WAT WAT WAT WAT WAT WAT WAT WAT WAT WAT WAT WAT WAT WAT WAT WAT WAT 
WAT WAT WAT WAT WAT WAT WAT WAT WAT WAT WAT WAT WAT WAT WAT WAT WAT WAT WAT WAT 
WAT WAT WAT WAT WAT WAT WAT WAT WAT WAT WAT WAT WAT WAT WAT WAT WAT WAT WAT WAT 
WAT WAT WAT WAT WAT WAT WAT WAT WAT WAT WAT WAT WAT WAT WAT WAT WAT WAT WAT WAT 
WAT WAT WAT WAT WAT WAT WAT WAT WAT WAT WAT WAT WAT WAT WAT WAT WAT WAT WAT WAT 
WAT WAT WAT WAT WAT WAT WAT WAT WAT WAT WAT WAT WAT WAT WAT WAT WAT WAT WAT WAT 
WAT WAT WAT WAT WAT WAT WAT WAT WAT WAT WAT WAT WAT WAT WAT WAT WAT WAT WAT WAT 
WAT WAT WAT WAT WAT WAT WAT WAT WAT WAT WAT WAT WAT WAT WAT WAT WAT WAT WAT WAT 
WAT WAT WAT WAT WAT WAT WAT WAT WAT WAT WAT WAT WAT WAT WAT WAT WAT WAT WAT WAT 
WAT WAT WAT WAT WAT WAT WAT WAT WAT WAT WAT WAT WAT WAT WAT WAT WAT WAT WAT WAT 
WAT WAT WAT WAT WAT WAT WAT WAT WAT WAT WAT WAT WAT WAT WAT WAT WAT WAT WAT WAT 
WAT WAT WAT WAT WAT WAT 
%FLAG RESIDUE_POINTER                                                           
%FORMAT(10I8)                                                                   
       1       7      31      47      61      78     102     127     137     144
     163     178     189     213     224     231     238     254     270     292
     306     320     340     356     370     384     396     412     419     433
     453     463     483     486     487     488     489     490     491     492
     493     494     495     496     497     498     499     500     501     502
     503     504     505     506     507     508     509     510     511     512
     513     514     515     516     517     518     519     520     521     522
     523     524     525     526     527     528     532     536     540     544
     548     552     556     560     564     568     572     576     580     584
     588     592     596     600     604     608     612     616     620     624
     628     632     636     640     644     648     652     656     660     664
     668     672     676     680     684     688     692     696     700     704
     708     712     716     720     724     728     732     736     740     744
     748     752     756     760     764     768     772     776     780     784
     788     792     796     800     804     808     812     816     820     824
     828     832     836     840     844     848     852     856     860     864
     868     872     876     880     884     888     892     896     900     904
     908     912     916     920     924     928     932     936     940     944
     948     952     956     960     964     968     972     976     980     984
     988     992     996    1000    1004    1008    1012    1016    1020    1024
    1028    1032    1036    1040    1044    1048    1052    1056    1060    1064
    1068    1072    1076    1080    1084    1088    1092    1096    1100    1104
    1108    1112    1116    1120    1124    1128    1132    1136    1140    1144
    1148    1152    1156    1160    1164    1168    1172    1176    1180    1184
    1188    1192    1196    1200    1204    1208    1212    1216    1220    1224
    1228    1232    1236    1240    1244    1248    1252    1256    1260    1264
    1268    1272    1276    1280    1284    1288    1292    1296    1300    1304
    1308    1312    1316    1320    1324    1328    1332    1336    1340    1344
    1348    1352    1356    1360    1364    1368    1372    1376    1380    1384
    1388    1392    1396    1400    1404    1408    1412    1416    1420    1424
    1428    1432    1436    1440    1444    1448    1452    1456    1460    1464
    1468    1472    1476    1480    1484    1488    1492    1496    1500    1504
    1508    1512    1516    1520    1524    1528    1532    1536    1540    1544
    1548    1552    1556    1560    1564    1568    1572    1576    1580    1584
    1588    1592    1596    1600    1604    1608    1612    1616    1620    1624
    1628    1632    1636    1640    1644    1648    1652    1656    1660    1664
    1668    1672    1676    1680    1684    1688    1692    1696    1700    1704
    1708    1712    1716    1720    1724    1728    1732    1736    1740    1744
    1748    1752    1756    1760    1764    1768    1772    1776    1780    1784
    1788    1792    1796    1800    1804    1808    1812    1816    1820    1824
    1828    1832    1836    1840    1844    1848    1852    1856    1860    1864
    1868    1872    1876    1880    1884    1888    1892    1896    1900    1904
    1908    1912    1916    1920    1924    1928    1932    1936    1940    1944
    1948    1952    1956    1960    1964    1968    1972    1976    1980    1984
    1988    1992    1996    2000    2004    2008    2012    2016    2020    2024
    2028    2032    2036    2040    2044    2048    2052    2056    2060    2064
    2068    2072    2076    2080    2084    2088    2092    2096    2100    2104
    2108    2112    2116    2120    2124    2128    2132    2136    2140    2144
    2148    2152    2156    2160    2164    2168    2172    2176    2180    2184
    2188    2192    2196    2200    2204    2208    2212    2216    2220    2224
    2228    2232    2236    2240    2244    2248    2252    2256    2260    2264
    2268    2272    2276    2280    2284    2288    2292    2296    2300    2304
    2308    2312    2316    2320    2324    2328    2332    2336    2340    2344
    2348    2352    2356    2360    2364    2368    2372    2376    2380    2384
    2388    2392    2396    2400    2404    2408    2412    2416    2420    2424
    2428    2432    2436    2440    2444    2448    2452    2456    2460    2464
    2468    2472    2476    2480    2484    2488    2492    2496    2500    2504
    2508    2512    2516    2520    2524    2528    2532    2536    2540    2544
    2548    2552    2556    2560    2564    2568    2572    2576    2580    2584
    2588    2592    2596    2600    2604    2608    2612    2616    2620    2624
    2628    2632    2636    2640    2644    2648    2652    2656    2660    2664
    2668    2672    2676    2680    2684    2688    2692    2696    2700    2704
    2708    2712    2716    2720    2724    2728    2732    2736    2740    2744
    2748    2752    2756    2760    2764    2768    2772    2776    2780    2784
    2788    2792    2796    2800    2804    2808    2812    2816    2820    2824
    2828    2832    2836    2840    2844    2848    2852    2856    2860    2864
    2868    2872    2876    2880    2884    2888    2892    2896    2900    2904
    2908    2912    2916    2920    2924    2928    2932    2936    2940    2944
    2948    2952    2956    2960    2964    2968    2972    2976    2980    2984
    2988    2992    2996    3000    3004    3008    3012    3016    3020    3024
    3028    3032    3036    3040    3044    3048    3052    3056    3060    3064
    3068    3072    3076    3080    3084    3088    3092    3096    3100    3104
    3108    3112    3116    3120    3124    3128    3132    3136    3140    3144
    3148    3152    3156    3160    3164    3168    3172    3176    3180    3184
    3188    3192    3196    3200    3204    3208    3212    3216    3220    3224
    3228    3232    3236    3240    3244    3248    3252    3256    3260    3264
    3268    3272    3276    3280    3284    3288    3292    3296    3300    3304
    3308    3312    3316    3320    3324    3328    3332    3336    3340    3344
    3348    3352    3356    3360    3364    3368    3372    3376    3380    3384
    3388    3392    3396    3400    3404    3408    3412    3416    3420    3424
    3428    3432    3436    3440    3444    3448    3452    3456    3460    3464
    3468    3472    3476    3480    3484    3488    3492    3496    3500    3504
    3508    3512    3516    3520    3524    3528    3532    3536    3540    3544
    3548    3552    3556    3560    3564    3568    3572    3576    3580    3584
    3588    3592    3596    3600    3604    3608    3612    3616    3620    3624
    3628    3632    3636    3640    3644    3648    3652    3656    3660    3664
    3668    3672    3676    3680    3684    3688    3692    3696    3700    3704
    3708    3712    3716    3720    3724    3728    3732    3736    3740    3744
    3748    3752    3756    3760    3764    3768    3772    3776    3780    3784
    3788    3792    3796    3800    3804    3808    3812    3816    3820    3824
    3828    3832    3836    3840    3844    3848    3852    3856    3860    3864
    3868    3872    3876    3880    3884    3888    3892    3896    3900    3904
    3908    3912    3916    3920    3924    3928    3932    3936    3940    3944
    3948    3952    3956    3960    3964    3968    3972    3976    3980    3984
    3988    3992    3996    4000    4004    4008    4012    4016    4020    4024
    4028    4032    4036    4040    4044    4048    4052    4056    4060    4064
    4068    4072    4076    4080    4084    4088    4092    4096    4100    4104
    4108    4112    4116    4120    4124    4128    4132    4136    4140    4144
    4148    4152    4156    4160    4164    4168    4172    4176    4180    4184
    4188    4192    4196    4200    4204    4208    4212    4216    4220    4224
    4228    4232    4236    4240    4244    4248    4252    4256    4260    4264
    4268    4272    4276    4280    4284    4288    4292    4296    4300    4304
    4308    4312    4316    4320    4324    4328    4332    4336    4340    4344
    4348    4352    4356    4360    4364    4368    4372    4376    4380    4384
    4388    4392    4396    4400    4404    4408    4412    4416    4420    4424
    4428    4432    4436    4440    4444    4448    4452    4456    4460    4464
    4468    4472    4476    4480    4484    4488    4492    4496    4500    4504
    4508    4512    4516    4520    4524    4528    4532    4536    4540    4544
    4548    4552    4556    4560    4564    4568    4572    4576    4580    4584
    4588    4592    4596    4600    4604    4608    4612    4616    4620    4624
    4628    4632    4636    4640    4644    4648    4652    4656    4660    4664
    4668    4672    4676    4680    4684    4688    4692    4696    4700    4704
    4708    4712    4716    4720    4724    4728    4732    4736    4740    4744
    4748    4752    4756    4760    4764    4768    4772    4776    4780    4784
    4788    4792    4796    4800    4804    4808    4812    4816    4820    4824
    4828    4832    4836    4840    4844    4848    4852    4856    4860    4864
    4868    4872    4876    4880    4884    4888    4892    4896    4900    4904
    4908    4912    4916    4920    4924    4928    4932    4936    4940    4944
    4948    4952    4956    4960    4964    4968    4972    4976    4980    4984
    4988    4992    4996    5000    5004    5008    5012    5016    5020    5024
    5028    5032    5036    5040    5044    5048    5052    5056    5060    5064
    5068    5072    5076    5080    5084    5088    5092    5096    5100    5104
    5108    5112    5116    5120    5124    5128    5132    5136    5140    5144
    5148    5152    5156    5160    5164    5168    5172    5176    5180    5184
    5188    5192    5196    5200    5204    5208    5212    5216    5220    5224
    5228    5232    5236    5240    5244    5248    5252    5256    5260    5264
    5268    5272    5276    5280    5284    5288    5292    5296    5300    5304
    5308    5312    5316    5320    5324    5328    5332    5336    5340    5344
    5348    5352    5356    5360    5364    5368    5372    5376    5380    5384
    5388    5392    5396    5400    5404    5408    5412    5416    5420    5424
    5428    5432    5436    5440    5444    5448    5452    5456    5460    5464
    5468    5472    5476    5480    5484    5488    5492    5496    5500    5504
    5508    5512    5516    5520    5524    5528    5532    5536    5540    5544
    5548    5552    5556    5560    5564    5568    5572    5576    5580    5584
    5588    5592    5596    5600    5604    5608    5612    5616    5620    5624
    5628    5632    5636    5640    5644    5648    5652    5656    5660    5664
    5668    5672    5676    5680    5684    5688    5692    5696    5700    5704
    5708    5712    5716    5720    5724    5728    5732    5736    5740    5744
    5748    5752    5756    5760    5764    5768    5772    5776    5780    5784
    5788    5792    5796    5800    5804    5808    5812    5816    5820    5824
    5828    5832    5836    5840    5844    5848    5852    5856    5860    5864
    5868    5872    5876    5880    5884    5888    5892    5896    5900    5904
    5908    5912    5916    5920    5924    5928    5932    5936    5940    5944
    5948    5952    5956    5960    5964    5968    5972    5976    5980    5984
    5988    5992    5996    6000    6004    6008    6012    6016    6020    6024
    6028    6032    6036    6040    6044    6048    6052    6056    6060    6064
    6068    6072    6076    6080    6084    6088    6092    6096    6100    6104
    6108    6112    6116    6120    6124    6128    6132    6136    6140    6144
    6148    6152    6156    6160    6164    6168    6172    6176    6180    6184
    6188    6192    6196    6200    6204    6208    6212    6216    6220    6224
    6228    6232    6236    6240    6244    6248    6252    6256    6260    6264
    6268    6272    6276    6280    6284    6288    6292    6296    6300    6304
    6308    6312    6316    6320    6324    6328    6332    6336    6340    6344
    6348    6352    6356    6360    6364    6368    6372    6376    6380    6384
    6388    6392    6396    6400    6404    6408    6412    6416    6420    6424
    6428    6432    6436    6440    6444    6448    6452    6456    6460    6464
    6468    6472    6476    6480    6484    6488    6492    6496    6500    6504
    6508    6512    6516    6520    6524    6528    6532    6536    6540    6544
    6548    6552    6556    6560    6564    6568    6572    6576    6580    6584
    6588    6592    6596    6600    6604    6608    6612    6616    6620    6624
    6628    6632    6636    6640    6644    6648    6652    6656    6660    6664
    6668    6672    6676    6680    6684    6688    6692    6696    6700    6704
    6708    6712    6716    6720    6724    6728    6732    6736    6740    6744
    6748    6752    6756    6760    6764    6768    6772    6776    6780    6784
    6788    6792    6796    6800    6804    6808    6812    6816    6820    6824
    6828    6832    6836    6840    6844    6848    6852    6856    6860    6864
    6868    6872    6876    6880    6884    6888    6892    6896    6900    6904
    6908    6912    6916    6920    6924    6928    6932    6936    6940    6944
    6948    6952    6956    6960    6964    6968    6972    6976    6980    6984
    6988    6992    6996    7000    7004    7008    7012    7016    7020    7024
    7028    7032    7036    7040    7044    7048    7052    7056    7060    7064
    7068    7072    7076    7080    7084    7088    7092    7096    7100    7104
    7108    7112    7116    7120    7124    7128    7132    7136    7140    7144
    7148    7152    7156    7160    7164    7168    7172    7176    7180    7184
    7188    7192    7196    7200    7204    7208    7212    7216    7220    7224
    7228    7232    7236    7240    7244    7248    7252    7256    7260    7264
    7268    7272    7276    7280    7284    7288    7292    7296    7300    7304
    7308    7312    7316    7320    7324    7328    7332    7336    7340    7344
    7348    7352    7356    7360    7364    7368    7372    7376    7380    7384
    7388    7392    7396    7400    7404    7408    7412    7416    7420    7424
    7428    7432    7436    7440    7444    7448    7452    7456    7460    7464
    7468    7472    7476    7480    7484    7488    7492    7496    7500    7504
    7508    7512    7516    7520    7524    7528    7532    7536    7540    7544
    7548    7552    7556    7560    7564    7568    7572    7576    7580    7584
    7588    7592    7596    7600    7604    7608    7612    7616    7620    7624
    7628    7632    7636    7640    7644    7648    7652    7656    7660    7664
    7668    7672    7676    7680    7684    7688    7692    7696    7700    7704
    7708    7712    7716    7720    7724    7728    7732    7736    7740    7744
    7748    7752    7756    7760    7764    7768    7772    7776    7780    7784
    7788    7792    7796    7800    7804    7808    7812    7816    7820    7824
    7828    7832    7836    7840    7844    7848    7852    7856    7860    7864
    7868    7872    7876    7880    7884    7888    7892    7896    7900    7904
    7908    7912    7916    7920    7924    7928    7932    7936    7940    7944
    7948    7952    7956    7960    7964    7968    7972    7976    7980    7984
    7988    7992    7996    8000    8004    8008    8012    8016    8020    8024
    8028    8032    8036    8040    8044    8048    8052    8056    8060    8064
    8068    8072    8076    8080    8084    8088    8092    8096    8100    8104
    8108    8112    8116    8120    8124    8128    8132    8136    8140    8144
    8148    8152    8156    8160    8164    8168    8172    8176    8180    8184
    8188    8192    8196    8200    8204    8208    8212    8216    8220    8224
    8228    8232    8236    8240    8244    8248    8252    8256    8260    8264
    8268    8272    8276    8280    8284    8288    8292    8296    8300    8304
    8308    8312    8316    8320    8324    8328    8332    8336    8340    8344
    8348    8352    8356    8360    8364    8368    8372    8376    8380    8384
    8388    8392    8396    8400    8404    8408    8412    8416    8420    8424
    8428    8432    8436    8440    8444    8448    8452    8456    8460    8464
    8468    8472    8476    8480    8484    8488    8492    8496    8500    8504
    8508    8512    8516    8520    8524    8528    8532    8536    8540    8544
    8548    8552    8556    8560    8564    8568    8572    8576    8580    8584
    8588    8592    8596    8600    8604    8608    8612    8616    8620    8624
    8628    8632    8636    8640    8644    8648    8652    8656    8660    8664
    8668    8672    8676    8680    8684    8688    8692    8696    8700    8704
    8708    8712    8716    8720    8724    8728    8732    8736    8740    8744
    8748    8752    8756    8760    8764    8768    8772    8776    8780    8784
    8788    8792    8796    8800    8804    8808    8812    8816    8820    8824
    8828    8832    8836    8840    8844    8848    8852    8856    8860    8864
    8868    8872    8876    8880    8884    8888    8892    8896    8900    8904
    8908    8912    8916    8920    8924    8928    8932    8936    8940    8944
    8948    8952    8956    8960    8964    8968    8972    8976    8980    8984
    8988    8992    8996    9000    9004    9008    9012    9016    9020    9024
    9028    9032    9036    9040    9044    9048    9052    9056    9060    9064
    9068    9072    9076    9080    9084    9088    9092    9096    9100    9104
    9108    9112    9116    9120    9124    9128    9132    9136    9140    9144
    9148    9152    9156    9160    9164    9168    9172    9176    9180    9184
    9188    9192    9196    9200    9204    9208    9212    9216    9220    9224
    9228    9232    9236    9240    9244    9248    9252    9256    9260    9264
    9268    9272    9276    9280    9284    9288    9292    9296    9300    9304
    9308    9312    9316    9320    9324    9328    9332    9336    9340    9344
    9348    9352    9356    9360    9364    9368    9372    9376    9380    9384
    9388    9392    9396    9400    9404    9408    9412    9416    9420    9424
    9428    9432    9436    9440    9444    9448    9452    9456    9460    9464
    9468    9472    9476    9480    9484    9488    9492    9496    9500    9504
    9508    9512    9516    9520    9524    9528    9532    9536    9540    9544
    9548    9552    9556    9560    9564    9568    9572    9576    9580    9584
    9588    9592    9596    9600    9604    9608    9612    9616    9620    9624
    9628    9632    9636    9640    9644    9648    9652    9656    9660    9664
    9668    9672    9676    9680    9684    9688    9692    9696    9700    9704
    9708    9712    9716    9720    9724    9728    9732    9736    9740    9744
    9748    9752    9756    9760    9764    9768    9772    9776    9780    9784
    9788    9792    9796    9800    9804    9808    9812    9816    9820    9824
    9828    9832    9836    9840    9844    9848    9852    9856    9860    9864
    9868    9872    9876    9880    9884    9888    9892    9896    9900    9904
    9908    9912    9916    9920    9924    9928    9932    9936    9940    9944
    9948    9952    9956    9960    9964    9968    9972    9976    9980    9984
    9988    9992    9996   10000   10004   10008   10012   10016   10020   10024
   10028   10032   10036   10040   10044   10048   10052   10056   10060   10064
   10068   10072   10076   10080   10084   10088   10092   10096   10100   10104
   10108   10112   10116   10120   10124   10128   10132   10136   10140   10144
   10148   10152   10156   10160   10164   10168   10172   10176   10180   10184
   10188   10192   10196   10200   10204   10208   10212   10216   10220   10224
   10228   10232   10236   10240   10244   10248   10252   10256   10260   10264
   10268   10272   10276   10280   10284   10288   10292   10296   10300   10304
   10308   10312   10316   10320   10324   10328   10332   10336   10340   10344
   10348   10352   10356   10360   10364   10368   10372   10376   10380   10384
   10388   10392   10396   10400   10404   10408   10412   10416   10420   10424
   10428   10432   10436   10440   10444   10448   10452   10456   10460   10464
   10468   10472   10476   10480   10484   10488   10492   10496   10500   10504
   10508   10512   10516   10520   10524   10528   10532   10536   10540   10544
   10548   10552   10556   10560   10564   10568   10572   10576   10580   10584
   10588   10592   10596   10600   10604   10608   10612   10616   10620   10624
   10628   10632   10636   10640   10644   10648   10652   10656   10660   10664
   10668   10672   10676   10680   10684   10688   10692   10696   10700   10704
   10708   10712   10716   10720   10724   10728   10732   10736   10740   10744
   10748   10752   10756   10760   10764   10768   10772   10776   10780   10784
   10788   10792   10796   10800   10804   10808   10812   10816   10820   10824
   10828   10832   10836   10840   10844   10848   10852   10856   10860   10864
   10868   10872   10876   10880   10884   10888   10892   10896   10900   10904
   10908   10912   10916   10920   10924   10928   10932   10936   10940   10944
   10948   10952   10956   10960   10964   10968   10972   10976   10980   10984
   10988   10992   10996   11000   11004   11008   11012   11016   11020   11024
   11028   11032   11036   11040   11044   11048   11052   11056   11060   11064
   11068   11072   11076   11080   11084   11088   11092   11096   11100   11104
   11108   11112   11116   11120   11124   11128   11132   11136   11140   11144
   11148   11152   11156   11160   11164   11168   11172   11176   11180   11184
   11188   11192   11196   11200   11204   11208   11212   11216   11220   11224
   11228   11232   11236   11240   11244   11248   11252   11256   11260   11264
   11268   11272   11276   11280   11284   11288   11292   11296   11300   11304
   11308   11312   11316   11320   11324   11328   11332   11336   11340   11344
   11348   11352   11356   11360   11364   11368   11372   11376   11380   11384
   11388   11392   11396   11400   11404   11408   11412   11416   11420   11424
   11428   11432   11436   11440   11444   11448   11452   11456   11460   11464
   11468   11472   11476   11480   11484   11488   11492   11496   11500   11504
   11508   11512   11516   11520   11524   11528   11532   11536   11540   11544
   11548   11552   11556   11560   11564   11568   11572   11576   11580   11584
   11588   11592   11596   11600   11604   11608   11612   11616   11620   11624
   11628   11632   11636   11640   11644   11648   11652   11656   11660   11664
   11668   11672   11676   11680   11684   11688   11692   11696   11700   11704
   11708   11712   11716   11720   11724   11728   11732   11736   11740   11744
   11748   11752   11756   11760   11764   11768   11772   11776   11780   11784
   11788   11792   11796   11800   11804   11808   11812   11816   11820   11824
   11828   11832   11836   11840   11844   11848   11852   11856   11860   11864
   11868   11872   11876   11880   11884   11888   11892   11896   11900   11904
   11908   11912   11916   11920   11924   11928   11932   11936   11940   11944
   11948   11952   11956   11960   11964   11968   11972   11976   11980   11984
   11988   11992   11996   12000   12004   12008   12012   12016   12020   12024
   12028   12032   12036   12040   12044   12048   12052   12056   12060   12064
   12068   12072   12076   12080   12084   12088   12092   12096   12100   12104
   12108   12112   12116   12120   12124   12128   12132   12136   12140   12144
   12148   12152   12156   12160   12164   12168   12172   12176   12180   12184
   12188   12192   12196   12200   12204   12208   12212   12216   12220   12224
   12228   12232   12236   12240   12244   12248   12252   12256   12260   12264
   12268   12272   12276   12280   12284   12288   12292   12296   12300   12304
   12308   12312   12316   12320   12324   12328   12332   12336   12340   12344
   12348   12352   12356   12360   12364   12368   12372   12376   12380   12384
   12388   12392   12396   12400   12404   12408   12412   12416   12420   12424
   12428   12432   12436   12440   12444   12448   12452   12456   12460   12464
   12468   12472   12476   12480   12484   12488   12492   12496   12500   12504
   12508   12512   12516   12520   12524   12528   12532   12536   12540   12544
   12548   12552   12556   12560   12564   12568   12572   12576   12580   12584
   12588   12592   12596   12600   12604   12608   12612   12616   12620   12624
   12628   12632   12636   12640   12644   12648   12652   12656   12660   12664
   12668   12672   12676   12680   12684   12688   12692   12696   12700   12704
   12708   12712   12716   12720   12724   12728   12732   12736   12740   12744
   12748   12752   12756   12760   12764   12768   12772   12776   12780   12784
   12788   12792   12796   12800   12804   12808   12812   12816   12820   12824
   12828   12832   12836   12840   12844   12848   12852   12856   12860   12864
   12868   12872   12876   12880   12884   12888   12892   12896   12900   12904
   12908   12912   12916   12920   12924   12928   12932   12936   12940   12944
   12948   12952   12956   12960   12964   12968   12972   12976   12980   12984
   12988   12992   12996   13000   13004   13008   13012   13016   13020   13024
   13028   13032   13036   13040   13044   13048   13052   13056   13060   13064
   13068   13072   13076   13080   13084   13088   13092   13096   13100   13104
   13108   13112   13116   13120   13124   13128   13132   13136   13140   13144
   13148   13152   13156   13160   13164   13168   13172   13176   13180   13184
   13188   13192   13196   13200   13204   13208   13212   13216   13220   13224
   13228   13232   13236   13240   13244   13248   13252   13256   13260   13264
   13268   13272   13276   13280   13284   13288   13292   13296   13300   13304
   13308   13312   13316   13320   13324   13328   13332   13336   13340   13344
   13348   13352   13356   13360   13364   13368   13372   13376   13380   13384
   13388   13392   13396   13400   13404   13408   13412   13416   13420   13424
   13428   13432   13436   13440   13444   13448   13452   13456   13460   13464
   13468   13472   13476   13480   13484   13488   13492   13496   13500   13504
   13508   13512   13516   13520   13524   13528   13532   13536   13540   13544
   13548   13552   13556   13560   13564   13568   13572   13576   13580   13584
   13588   13592   13596   13600   13604   13608   13612   13616   13620   13624
   13628   13632   13636   13640   13644   13648   13652   13656   13660   13664
   13668   13672   13676   13680   13684   13688   13692   13696   13700   13704
   13708   13712   13716   13720   13724   13728   13732   13736   13740   13744
   13748   13752   13756   13760   13764   13768   13772   13776   13780   13784
   13788   13792   13796   13800   13804   13808   13812   13816   13820   13824
   13828   13832   13836   13840   13844   13848   13852   13856   13860   13864
   13868   13872   13876   13880   13884   13888   13892   13896   13900   13904
   13908   13912   13916   13920   13924   13928   13932   13936   13940   13944
   13948   13952   13956   13960   13964   13968   13972   13976   13980   13984
   13988   13992   13996   14000   14004   14008   14012   14016   14020   14024
   14028   14032   14036   14040   14044   14048   14052   14056   14060   14064
   14068   14072   14076   14080   14084   14088   14092   14096   14100   14104
   14108   14112   14116   14120   14124   14128   14132   14136   14140   14144
   14148   14152   14156   14160   14164   14168   14172   14176   14180   14184
   14188   14192   14196   14200   14204   14208   14212   14216   14220   14224
   14228   14232   14236   14240   14244   14248   14252   14256   14260   14264
   14268   14272   14276   14280   14284   14288   14292   14296   14300   14304
   14308   14312   14316   14320   14324   14328   14332   14336   14340   14344
   14348   14352   14356   14360   14364   14368   14372   14376   14380   14384
   14388   14392   14396   14400   14404   14408   14412   14416   14420   14424
   14428   14432   14436   14440   14444   14448   14452   14456   14460   14464
   14468   14472   14476   14480   14484   14488   14492   14496   14500   14504
   14508   14512   14516   14520   14524   14528   14532   14536   14540   14544
   14548   14552   14556   14560   14564   14568   14572   14576   14580   14584
   14588   14592   14596   14600   14604   14608   14612   14616   14620   14624
   14628   14632   14636   14640   14644   14648   14652   14656   14660   14664
   14668   14672   14676   14680   14684   14688   14692   14696   14700   14704
   14708   14712   14716   14720   14724   14728   14732   14736   14740   14744
   14748   14752   14756   14760   14764   14768   14772   14776   14780   14784
   14788   14792   14796   14800   14804   14808   14812   14816   14820   14824
   14828   14832   14836   14840   14844   14848   14852   14856   14860   14864
   14868   14872   14876   14880   14884   14888   14892   14896   14900   14904
   14908   14912   14916   14920   14924   14928   14932   14936   14940   14944
   14948   14952   14956   14960   14964   14968   14972   14976   14980   14984
   14988   14992   14996   15000   15004   15008   15012   15016   15020   15024
   15028   15032   15036   15040   15044   15048   15052   15056   15060   15064
   15068   15072   15076   15080   15084   15088   15092   15096   15100   15104
   15108   15112   15116   15120   15124   15128   15132   15136   15140   15144
   15148   15152   15156   15160   15164   15168   15172   15176   15180   15184
   15188   15192   15196   15200   15204   15208   15212   15216   15220   15224
   15228   15232   15236   15240   15244   15248   15252   15256   15260   15264
   15268   15272   15276   15280   15284   15288   15292   15296   15300   15304
   15308   15312   15316   15320   15324   15328   15332   15336   15340   15344
   15348   15352   15356   15360   15364   15368   15372   15376   15380   15384
   15388   15392   15396   15400   15404   15408   15412   15416   15420   15424
   15428   15432   15436   15440   15444   15448   15452   15456   15460   15464
   15468   15472   15476   15480   15484   15488   15492   15496   15500   15504
   15508   15512   15516   15520   15524   15528   15532   15536   15540   15544
   15548   15552   15556   15560   15564   15568   15572   15576   15580   15584
   15588   15592   15596   15600   15604   15608   15612   15616   15620   15624
   15628   15632   15636   15640   15644   15648   15652   15656   15660   15664
   15668   15672   15676   15680   15684   15688   15692   15696   15700   15704
   15708   15712   15716   15720   15724   15728   15732   15736   15740   15744
   15748   15752   15756   15760   15764   15768   15772   15776   15780   15784
   15788   15792   15796   15800   15804   15808   15812   15816   15820   15824
   15828   15832   15836   15840   15844   15848   15852   15856   15860   15864
   15868   15872   15876   15880   15884   15888   15892   15896   15900   15904
   15908   15912   15916   15920   15924   15928   15932   15936   15940   15944
   15948   15952   15956   15960   15964   15968   15972   15976   15980   15984
   15988   15992   15996   16000   16004   16008   16012   16016   16020   16024
   16028   16032   16036   16040   16044   16048   16052   16056   16060   16064
   16068   16072   16076   16080   16084   16088   16092   16096   16100   16104
   16108   16112   16116   16120   16124   16128   16132   16136   16140   16144
   16148   16152   16156   16160   16164   16168   16172   16176   16180   16184
   16188   16192   16196   16200   16204   16208   16212   16216   16220   16224
   16228   16232   16236   16240   16244   16248   16252   16256   16260   16264
   16268   16272   16276   16280   16284   16288   16292   16296   16300   16304
   16308   16312   16316   16320   16324   16328   16332   16336   16340   16344
   16348   16352   16356   16360   16364   16368   16372   16376   16380   16384
   16388   16392   16396   16400   16404   16408   16412   16416   16420   16424
   16428   16432   16436   16440   16444   16448   16452   16456   16460   16464
   16468   16472   16476   16480   16484   16488   16492   16496   16500   16504
   16508   16512   16516   16520   16524   16528   16532   16536   16540   16544
   16548   16552   16556   16560   16564   16568   16572   16576   16580   16584
   16588   16592   16596   16600   16604   16608   16612   16616   16620   16624
   16628   16632   16636   16640   16644   16648   16652   16656   16660   16664
   16668   16672   16676   16680   16684   16688   16692   16696   16700   16704
   16708   16712   16716   16720   16724   16728   16732   16736   16740   16744
   16748   16752   16756   16760   16764   16768   16772   16776   16780   16784
   16788   16792   16796   16800   16804   16808   16812   16816   16820   16824
   16828   16832   16836   16840   16844   16848   16852   16856   16860   16864
   16868   16872   16876   16880   16884   16888   16892   16896   16900   16904
   16908   16912   16916   16920   16924   16928   16932   16936   16940   16944
   16948   16952   16956   16960   16964   16968   16972   16976   16980   16984
   16988   16992   16996   17000   17004   17008   17012   17016   17020   17024
   17028   17032   17036   17040   17044   17048   17052   17056   17060   17064
   17068   17072   17076   17080   17084   17088   17092   17096   17100   17104
   17108   17112   17116   17120   17124   17128   17132   17136   17140   17144
   17148   17152   17156   17160   17164   17168   17172   17176   17180   17184
   17188   17192   17196   17200   17204   17208   17212   17216   17220   17224
   17228   17232   17236   17240   17244   17248   17252   17256   17260   17264
   17268   17272   17276   17280   17284   17288   17292   17296   17300   17304
   17308   17312   17316   17320   17324   17328   17332   17336   17340   17344
   17348   17352   17356   17360   17364   17368   17372   17376   17380   17384
   17388   17392   17396   17400   17404   17408   17412   17416   17420   17424
   17428   17432   17436   17440   17444   17448   17452   17456   17460   17464
   17468   17472   17476   17480   17484   17488   17492   17496   17500   17504
   17508   17512   17516   17520   17524   17528   17532   17536   17540   17544
   17548   17552   17556   17560   17564   17568   17572   17576   17580   17584
   17588   17592   17596   17600   17604   17608   17612   17616   17620   17624
   17628   17632   17636   17640   17644   17648   17652   17656   17660   17664
   17668   17672   17676   17680   17684   17688   17692   17696   17700   17704
   17708   17712   17716   17720   17724   17728   17732   17736   17740   17744
   17748   17752   17756   17760   17764   17768   17772   17776   17780   17784
   17788   17792   17796   17800   17804   17808   17812   17816   17820   17824
   17828   17832   17836   17840   17844   17848   17852   17856   17860   17864
   17868   17872   17876   17880   17884   17888   17892   17896   17900   17904
   17908   17912   17916   17920   17924   17928   17932   17936   17940   17944
   17948   17952   17956   17960   17964   17968   17972   17976   17980   17984
   17988   17992   17996   18000   18004   18008   18012   18016   18020   18024
   18028   18032   18036   18040   18044   18048   18052   18056   18060   18064
   18068   18072   18076   18080   18084   18088   18092   18096   18100   18104
   18108   18112   18116   18120   18124   18128   18132   18136   18140   18144
   18148   18152   18156   18160   18164   18168   18172   18176   18180   18184
   18188   18192   18196   18200   18204   18208   18212   18216   18220   18224
   18228   18232   18236   18240   18244   18248   18252   18256   18260   18264
   18268   18272   18276   18280   18284   18288   18292   18296   18300   18304
   18308   18312   18316   18320   18324   18328   18332   18336   18340   18344
   18348   18352   18356   18360   18364   18368   18372   18376   18380   18384
   18388   18392   18396   18400   18404   18408   18412   18416   18420   18424
   18428   18432   18436   18440   18444   18448   18452   18456   18460   18464
   18468   18472   18476   18480   18484   18488   18492   18496   18500   18504
   18508   18512   18516   18520   18524   18528   18532   18536   18540   18544
   18548   18552   18556   18560   18564   18568   18572   18576   18580   18584
   18588   18592   18596   18600   18604   18608   18612   18616   18620   18624
   18628   18632   18636   18640   18644   18648   18652   18656   18660   18664
   18668   18672   18676   18680   18684   18688   18692   18696   18700   18704
   18708   18712   18716   18720   18724   18728   18732   18736   18740   18744
   18748   18752   18756   18760   18764   18768   18772   18776   18780   18784
   18788   18792   18796   18800   18804   18808   18812   18816   18820   18824
   18828   18832   18836   18840   18844   18848   18852   18856   18860   18864
   18868   18872   18876   18880   18884   18888   18892   18896   18900   18904
   18908   18912   18916   18920   18924   18928   18932   18936   18940   18944
   18948   18952   18956   18960   18964   18968   18972   18976   18980   18984
   18988   18992   18996   19000   19004   19008   19012   19016   19020   19024
   19028   19032   19036   19040   19044   19048   19052   19056   19060   19064
   19068   19072   19076   19080   19084   19088   19092   19096   19100   19104
   19108   19112   19116   19120   19124   19128   19132   19136   19140   19144
   19148   19152   19156   19160   19164   19168   19172   19176   19180   19184
   19188   19192   19196   19200   19204   19208   19212   19216   19220   19224
   19228   19232   19236   19240   19244   19248   19252   19256   19260   19264
   19268   19272   19276   19280   19284   19288   19292   19296   19300   19304
   19308   19312   19316   19320   19324   19328   19332   19336   19340   19344
   19348   19352   19356   19360   19364   19368   19372   19376   19380   19384
   19388   19392   19396   19400   19404   19408   19412   19416   19420   19424
   19428   19432   19436   19440   19444   19448   19452   19456   19460   19464
   19468   19472   19476   19480   19484   19488   19492   19496   19500   19504
   19508   19512   19516   19520   19524   19528   19532   19536   19540   19544
   19548   19552   19556   19560   19564   19568   19572   19576   19580   19584
   19588   19592   19596   19600   19604   19608   19612   19616   19620   19624
   19628   19632   19636   19640   19644   19648   19652   19656   19660   19664
   19668   19672   19676   19680   19684   19688   19692   19696   19700   19704
   19708   19712   19716   19720   19724   19728   19732   19736   19740   19744
   19748   19752   19756   19760   19764   19768   19772   19776   19780   19784
   19788   19792   19796   19800   19804   19808   19812   19816   19820   19824
   19828   19832   19836   19840   19844   19848   19852   19856   19860   19864
   19868   19872   19876   19880   19884   19888   19892   19896   19900   19904
   19908   19912   19916   19920   19924   19928   19932   19936   19940   19944
   19948   19952   19956   19960   19964   19968   19972   19976   19980   19984
   19988   19992   19996   20000   20004   20008   20012   20016   20020   20024
   20028   20032   20036   20040   20044   20048   20052   20056   20060   20064
   20068   20072   20076   20080   20084   20088   20092   20096   20100   20104
   20108   20112   20116   20120   20124   20128   20132   20136   20140   20144
   20148   20152   20156   20160   20164   20168   20172   20176   20180   20184
   20188   20192   20196   20200   20204   20208   20212   20216   20220   20224
   20228   20232   20236   20240   20244   20248   20252   20256   20260   20264
   20268   20272   20276   20280   20284   20288   20292   20296   20300   20304
   20308   20312   20316   20320   20324   20328   20332   20336   20340   20344
   20348   20352   20356   20360   20364   20368   20372   20376   20380   20384
   20388   20392   20396   20400   20404   20408   20412   20416   20420   20424
   20428   20432   20436   20440   20444   20448   20452   20456   20460   20464
   20468   20472   20476   20480   20484   20488   20492   20496   20500   20504
   20508   20512   20516   20520   20524   20528   20532   20536   20540   20544
   20548   20552   20556   20560   20564   20568   20572   20576   20580   20584
   20588   20592   20596   20600   20604   20608   20612   20616   20620   20624
   20628   20632   20636   20640   20644   20648   20652   20656   20660   20664
   20668   20672   20676   20680   20684   20688   20692   20696   20700   20704
   20708   20712   20716   20720   20724   20728   20732   20736   20740   20744
   20748   20752   20756   20760   20764   20768   20772   20776   20780   20784
   20788   20792   20796   20800   20804   20808   20812   20816   20820   20824
   20828   20832   20836   20840   20844   20848   20852   20856   20860   20864
   20868   20872   20876   20880   20884   20888   20892   20896   20900   20904
   20908   20912   20916   20920   20924   20928   20932   20936   20940   20944
   20948   20952   20956   20960   20964   20968   20972   20976   20980   20984
   20988   20992   20996   21000   21004   21008   21012   21016   21020   21024
   21028   21032   21036   21040   21044   21048   21052   21056   21060   21064
   21068   21072   21076   21080   21084   21088   21092   21096   21100   21104
   21108   21112   21116   21120   21124   21128   21132   21136   21140   21144
   21148   21152   21156   21160   21164   21168   21172   21176   21180   21184
   21188   21192   21196   21200   21204   21208   21212   21216   21220   21224
   21228   21232   21236   21240   21244   21248   21252   21256   21260   21264
   21268   21272   21276   21280   21284   21288   21292   21296   21300   21304
   21308   21312   21316   21320   21324   21328   21332   21336   21340   21344
   21348   21352   21356   21360   21364   21368   21372   21376   21380   21384
   21388   21392   21396   21400   21404   21408   21412   21416   21420   21424
   21428   21432   21436   21440   21444   21448   21452   21456   21460   21464
   21468   21472   21476   21480   21484   21488   21492   21496   21500   21504
   21508   21512   21516   21520   21524   21528   21532   21536   21540   21544
   21548   21552   21556   21560   21564   21568   21572   21576   21580   21584
   21588   21592   21596   21600   21604   21608   21612   21616   21620   21624
   21628   21632   21636   21640   21644   21648   21652   21656   21660   21664
   21668   21672   21676   21680   21684   21688   21692   21696   21700   21704
   21708   21712   21716   21720   21724   21728   21732   21736   21740   21744
   21748   21752   21756   21760   21764   21768   21772   21776   21780   21784
   21788   21792   21796   21800   21804   21808   21812   21816   21820   21824
   21828   21832   21836   21840   21844   21848   21852   21856   21860   21864
   21868   21872   21876   21880   21884   21888   21892   21896   21900   21904
   21908   21912   21916   21920   21924   21928   21932   21936   21940   21944
   21948   21952   21956   21960   21964   21968   21972   21976   21980   21984
   21988   21992   21996   22000   22004   22008   22012   22016   22020   22024
   22028   22032   22036   22040   22044   22048   22052   22056   22060   22064
   22068   22072   22076   22080   22084   22088   22092   22096   22100   22104
   22108   22112   22116   22120   22124   22128   22132   22136   22140   22144
   22148   22152   22156   22160   22164   22168   22172   22176   22180   22184
   22188   22192   22196   22200   22204   22208   22212   22216   22220   22224
   22228   22232   22236   22240   22244   22248   22252   22256   22260   22264
   22268   22272   22276   22280   22284   22288   22292   22296   22300   22304
   22308   22312   22316   22320   22324   22328   22332   22336   22340   22344
   22348   22352   22356   22360   22364   22368   22372   22376   22380   22384
   22388   22392   22396   22400   22404   22408   22412   22416   22420   22424
   22428   22432   22436   22440   22444   22448   22452   22456   22460   22464
   22468   22472   22476   22480   22484   22488   22492   22496   22500   22504
   22508   22512   22516   22520   22524   22528   22532   22536   22540   22544
   22548   22552   22556   22560   22564   22568   22572   22576   22580   22584
   22588   22592   22596   22600   22604   22608   22612   22616   22620   22624
   22628   22632   22636   22640   22644   22648   22652   22656   22660   22664
   22668   22672   22676   22680   22684   22688   22692   22696   22700   22704
   22708   22712   22716   22720   22724   22728   22732   22736   22740   22744
   22748   22752   22756   22760   22764   22768   22772   22776   22780   22784
   22788   22792   22796   22800   22804   22808   22812   22816   22820   22824
   22828   22832   22836   22840   22844   22848   22852   22856   22860   22864
   22868   22872   22876   22880   22884   22888   22892   22896   22900   22904
   22908   22912   22916   22920   22924   22928   22932   22936   22940   22944
   22948   22952   22956   22960   22964   22968   22972   22976   22980   22984
   22988   22992   22996   23000   23004   23008   23012   23016   23020   23024
   23028   23032   23036   23040   23044   23048   23052   23056   23060   23064
   23068   23072   23076   23080   23084   23088   23092   23096   23100   23104
   23108   23112   23116   23120   23124   23128   23132   23136   23140   23144
   23148   23152   23156   23160   23164   23168   23172   23176   23180   23184
   23188   23192   23196   23200   23204   23208   23212   23216   23220   23224
   23228   23232   23236   23240   23244   23248   23252   23256   23260   23264
   23268   23272   23276   23280   23284   23288   23292   23296   23300   23304
   23308   23312   23316   23320   23324   23328   23332   23336   23340   23344
   23348   23352   23356   23360   23364   23368   23372   23376   23380   23384
   23388   23392   23396   23400   23404   23408   23412   23416   23420   23424
   23428   23432   23436   23440   23444   23448   23452   23456   23460   23464
   23468   23472   23476   23480   23484   23488   23492   23496   23500   23504
   23508   23512   23516   23520   23524   23528   23532   23536   23540   23544
   23548   23552   23556   23560   23564   23568   23572   23576   23580   23584
   23588   23592   23596   23600   23604   23608   23612   23616   23620   23624
   23628   23632   23636   23640   23644   23648   23652   23656   23660   23664
   23668   23672   23676   23680   23684   23688   23692   23696   23700   23704
   23708   23712   23716   23720   23724   23728   23732   23736   23740   23744
   23748   23752   23756   23760   23764   23768   23772   23776   23780   23784
   23788   23792   23796   23800   23804   23808   23812   23816   23820   23824
   23828   23832   23836   23840   23844   23848   23852   23856   23860   23864
   23868   23872   23876   23880   23884   23888   23892   23896   23900   23904
   23908   23912   23916   23920   23924   23928   23932   23936   23940   23944
   23948   23952   23956   23960   23964   23968   23972   23976   23980   23984
   23988   23992   23996   24000   24004   24008   24012   24016   24020   24024
   24028   24032   24036   24040   24044   24048   24052   24056   24060   24064
   24068   24072   24076   24080   24084   24088   24092   24096   24100   24104
   24108   24112   24116   24120   24124   24128   24132   24136   24140   24144
   24148   24152   24156   24160   24164   24168   24172   24176   24180   24184
   24188   24192   24196   24200   24204   24208   24212   24216   24220   24224
   24228   24232   24236   24240   24244   24248   24252   24256   24260   24264
   24268   24272   24276   24280   24284   24288   24292   24296   24300   24304
   24308   24312   24316   24320   24324   24328   24332   24336   24340   24344
   24348   24352   24356   24360   24364   24368   24372   24376   24380   24384
   24388   24392   24396   24400   24404   24408   24412   24416   24420   24424
   24428   24432   24436   24440   24444   24448   24452   24456   24460   24464
   24468   24472   24476   24480   24484   24488   24492   24496   24500   24504
   24508   24512   24516   24520   24524   24528   24532   24536   24540   24544
   24548   24552   24556   24560   24564   24568   24572   24576   24580   24584
   24588   24592   24596   24600   24604   24608   24612   24616   24620   24624
   24628   24632   24636   24640   24644   24648   24652   24656   24660   24664
   24668   24672   24676   24680   24684   24688   24692   24696   24700   24704
   24708   24712   24716   24720   24724   24728   24732   24736   24740   24744
   24748   24752   24756   24760   24764   24768   24772   24776   24780   24784
   24788   24792   24796   24800   24804   24808   24812   24816   24820   24824
   24828   24832   24836   24840   24844   24848   24852   24856   24860   24864
   24868   24872   24876   24880   24884   24888   24892   24896   24900   24904
   24908   24912   24916   24920   24924   24928   24932   24936   24940   24944
   24948   24952   24956   24960   24964   24968   24972   24976   24980   24984
   24988   24992   24996   25000   25004   25008   25012   25016   25020   25024
   25028   25032   25036   25040   25044   25048   25052   25056   25060   25064
   25068   25072   25076   25080   25084   25088   25092   25096   25100   25104
   25108   25112   25116   25120   25124   25128   25132   25136   25140   25144
   25148   25152   25156   25160   25164   25168   25172   25176   25180   25184
   25188   25192   25196   25200   25204   25208   25212   25216   25220   25224
   25228   25232   25236   25240   25244   25248   25252   25256   25260   25264
   25268   25272   25276   25280   25284   25288   25292   25296   25300   25304
   25308   25312   25316   25320   25324   25328   25332   25336   25340   25344
   25348   25352   25356   25360   25364   25368   25372   25376   25380   25384
   25388   25392   25396   25400   25404   25408   25412   25416   25420   25424
   25428   25432   25436   25440   25444   25448   25452   25456   25460   25464
   25468   25472   25476   25480   25484   25488   25492   25496   25500   25504
   25508   25512   25516   25520   25524   25528   25532   25536   25540   25544
   25548   25552   25556   25560   25564   25568   25572   25576   25580   25584
   25588   25592   25596   25600   25604   25608   25612   25616   25620   25624
   25628   25632   25636   25640   25644   25648   25652   25656   25660   25664
   25668   25672   25676   25680   25684   25688   25692   25696   25700   25704
   25708   25712   25716   25720   25724   25728   25732   25736   25740   25744
   25748   25752   25756   25760   25764   25768   25772   25776   25780   25784
   25788   25792   25796   25800   25804   25808   25812   25816   25820   25824
   25828   25832   25836   25840   25844   25848   25852   25856   25860   25864
   25868   25872   25876   25880   25884   25888   25892   25896   25900   25904
   25908   25912   25916   25920   25924   25928   25932   25936   25940   25944
   25948   25952   25956   25960   25964   25968   25972   25976   25980   25984
   25988   25992   25996   26000   26004   26008   26012   26016   26020   26024
   26028   26032   26036   26040   26044   26048   26052   26056   26060   26064
   26068   26072   26076   26080   26084   26088   26092   26096   26100   26104
   26108   26112   26116   26120   26124   26128   26132   26136   26140   26144
   26148   26152   26156   26160   26164   26168   26172   26176   26180   26184
   26188   26192   26196   26200   26204   26208   26212   26216   26220   26224
   26228   26232   26236   26240   26244   26248   26252   26256   26260   26264
   26268   26272   26276   26280   26284   26288   26292   26296   26300   26304
   26308   26312   26316   26320   26324   26328   26332   26336   26340   26344
   26348   26352   26356   26360   26364   26368   26372   26376   26380   26384
   26388   26392   26396   26400   26404   26408   26412   26416   26420   26424
   26428   26432   26436   26440   26444   26448   26452   26456   26460   26464
   26468   26472   26476   26480   26484   26488   26492   26496   26500   26504
   26508   26512   26516   26520   26524   26528   26532   26536   26540   26544
   26548   26552   26556   26560   26564   26568   26572   26576   26580   26584
   26588   26592   26596   26600   26604   26608   26612   26616   26620   26624
   26628   26632   26636   26640   26644   26648   26652   26656   26660   26664
   26668   26672   26676   26680   26684   26688   26692   26696   26700   26704
   26708   26712   26716   26720   26724   26728   26732   26736   26740   26744
   26748   26752   26756   26760   26764   26768   26772   26776   26780   26784
   26788   26792   26796   26800   26804   26808   26812   26816   26820   26824
   26828   26832   26836   26840   26844   26848   26852   26856   26860   26864
   26868   26872   26876   26880   26884   26888   26892   26896   26900   26904
   26908   26912   26916   26920   26924   26928   26932   26936   26940   26944
   26948   26952   26956   26960   26964   26968   26972   26976   26980   26984
   26988   26992   26996   27000   27004   27008   27012   27016   27020   27024
   27028   27032   27036   27040   27044   27048   27052   27056   27060   27064
   27068   27072   27076   27080   27084   27088   27092   27096   27100   27104
   27108   27112   27116   27120   27124   27128   27132   27136   27140   27144
   27148   27152   27156   27160   27164   27168   27172   27176   27180   27184
   27188   27192   27196   27200   27204   27208   27212   27216   27220   27224
   27228   27232   27236   27240   27244   27248   27252   27256   27260   27264
   27268   27272   27276   27280   27284   27288   27292   27296   27300   27304
   27308   27312   27316   27320   27324   27328   27332   27336   27340   27344
   27348   27352   27356   27360   27364   27368   27372   27376   27380   27384
   27388   27392   27396   27400   27404   27408   27412   27416   27420   27424
   27428   27432   27436   27440   27444   27448   27452   27456   27460   27464
   27468   27472   27476   27480   27484   27488   27492   27496   27500   27504
   27508   27512   27516   27520   27524   27528   27532   27536   27540   27544
   27548   27552   27556   27560   27564   27568   27572   27576   27580   27584
   27588   27592   27596   27600   27604   27608   27612   27616   27620   27624
   27628   27632   27636   27640   27644   27648   27652   27656   27660   27664
   27668   27672   27676   27680   27684   27688   27692   27696   27700   27704
   27708   27712   27716   27720   27724   27728   27732   27736   27740   27744
   27748   27752   27756   27760   27764   27768   27772   27776   27780   27784
   27788   27792   27796   27800   27804   27808   27812   27816   27820   27824
   27828   27832   27836   27840   27844   27848   27852   27856   27860   27864
   27868   27872   27876   27880   27884   27888   27892   27896   27900   27904
   27908   27912   27916   27920   27924   27928   27932   27936   27940   27944
   27948   27952   27956   27960   27964   27968   27972   27976   27980   27984
   27988   27992   27996   28000   28004   28008   28012   28016   28020   28024
   28028   28032   28036   28040   28044   28048   28052   28056   28060   28064
   28068   28072   28076   28080   28084   28088   28092   28096   28100   28104
   28108   28112   28116   28120   28124   28128   28132   28136   28140   28144
   28148   28152   28156   28160   28164   28168   28172   28176   28180   28184
   28188   28192   28196   28200   28204   28208   28212   28216   28220   28224
   28228   28232   28236   28240   28244   28248   28252   28256   28260   28264
   28268   28272   28276   28280   28284   28288   28292   28296   28300   28304
   28308   28312   28316   28320   28324   28328   28332   28336   28340   28344
   28348   28352   28356   28360   28364   28368   28372   28376   28380   28384
   28388   28392   28396   28400   28404   28408   28412   28416   28420   28424
   28428   28432   28436   28440   28444   28448   28452   28456   28460   28464
   28468   28472   28476   28480   28484   28488   28492   28496   28500   28504
   28508   28512   28516   28520   28524   28528   28532   28536   28540   28544
   28548   28552   28556   28560   28564   28568   28572   28576   28580   28584
   28588   28592   28596   28600   28604   28608   28612   28616   28620   28624
   28628   28632   28636   28640   28644   28648   28652   28656   28660   28664
   28668   28672   28676   28680   28684   28688   28692   28696   28700   28704
   28708   28712   28716   28720   28724   28728   28732   28736   28740   28744
   28748   28752   28756   28760   28764   28768   28772   28776   28780   28784
   28788   28792   28796   28800   28804   28808   28812   28816   28820   28824
   28828   28832   28836   28840   28844   28848   28852   28856   28860   28864
   28868   28872   28876   28880   28884   28888   28892   28896   28900   28904
   28908   28912   28916   28920   28924   28928   28932   28936   28940   28944
   28948   28952   28956   28960   28964   28968   28972   28976   28980   28984
   28988   28992   28996   29000   29004   29008   29012   29016   29020   29024
   29028   29032   29036   29040   29044   29048   29052   29056   29060   29064
   29068   29072   29076   29080   29084   29088   29092   29096   29100   29104
   29108   29112   29116   29120   29124   29128   29132   29136   29140   29144
   29148   29152   29156   29160   29164   29168   29172   29176   29180   29184
   29188   29192   29196   29200   29204   29208   29212   29216   29220   29224
   29228   29232   29236   29240   29244   29248   29252   29256   29260   29264
   29268   29272   29276   29280   29284   29288   29292   29296   29300   29304
   29308   29312   29316   29320   29324   29328   29332   29336   29340   29344
   29348   29352   29356   29360   29364   29368   29372   29376   29380   29384
   29388   29392   29396   29400   29404   29408   29412   29416   29420   29424
   29428   29432   29436   29440   29444   29448   29452   29456   29460   29464
   29468   29472   29476   29480   29484   29488   29492   29496   29500   29504
   29508   29512   29516   29520   29524   29528   29532   29536   29540   29544
   29548   29552   29556   29560   29564   29568   29572   29576   29580   29584
   29588   29592   29596   29600   29604   29608   29612   29616   29620   29624
   29628   29632   29636   29640   29644   29648   29652   29656   29660   29664
   29668   29672   29676   29680   29684   29688   29692   29696   29700   29704
   29708   29712   29716   29720   29724   29728   29732   29736   29740   29744
   29748   29752   29756   29760   29764   29768   29772   29776   29780   29784
   29788   29792   29796   29800   29804   29808   29812   29816   29820   29824
   29828   29832   29836   29840   29844   29848   29852   29856   29860   29864
   29868   29872   29876   29880   29884   29888   29892   29896   29900   29904
   29908   29912   29916   29920   29924   29928   29932   29936   29940   29944
   29948   29952   29956   29960   29964   29968   29972   29976   29980   29984
   29988   29992   29996   30000   30004   30008   30012   30016   30020   30024
   30028   30032   30036   30040   30044   30048   30052   30056   30060   30064
   30068   30072   30076   30080   30084   30088   30092   30096   30100   30104
   30108   30112   30116   30120   30124   30128   30132   30136   30140   30144
   30148   30152   30156   30160   30164   30168   30172   30176   30180   30184
   30188   30192   30196   30200   30204   30208   30212   30216   30220   30224
   30228   30232   30236   30240   30244   30248   30252   30256   30260   30264
   30268   30272   30276   30280   30284   30288   30292   30296   30300   30304
   30308   30312   30316   30320   30324   30328   30332   30336   30340   30344
   30348   30352   30356   30360   30364   30368   30372   30376   30380   30384
   30388   30392   30396   30400   30404   30408   30412   30416   30420   30424
   30428   30432   30436   30440   30444   30448   30452   30456   30460   30464
   30468   30472   30476   30480   30484   30488   30492   30496   30500   30504
   30508   30512   30516   30520   30524   30528   30532   30536   30540   30544
   30548   30552   30556   30560   30564   30568   30572   30576   30580   30584
   30588   30592   30596   30600   30604   30608   30612   30616   30620   30624
   30628   30632   30636   30640   30644   30648   30652   30656   30660   30664
   30668   30672   30676   30680   30684   30688   30692   30696   30700   30704
   30708   30712   30716   30720   30724   30728   30732   30736   30740   30744
   30748   30752   30756   30760   30764   30768   30772   30776   30780   30784
   30788   30792   30796   30800   30804   30808   30812   30816   30820   30824
   30828   30832   30836   30840   30844   30848   30852   30856   30860   30864
   30868   30872   30876   30880   30884   30888   30892   30896   30900   30904
   30908   30912   30916   30920   30924   30928   30932   30936   30940   30944
   30948   30952   30956   30960   30964   30968   30972   30976   30980   30984
   30988   30992   30996   31000   31004   31008   31012   31016   31020   31024
   31028   31032   31036   31040   31044   31048   31052   31056   31060   31064
   31068   31072   31076   31080   31084   31088   31092   31096   31100   31104
   31108   31112   31116   31120   31124   31128   31132   31136   31140   31144
   31148   31152   31156   31160   31164   31168   31172   31176   31180   31184
   31188   31192   31196   31200   31204   31208   31212   31216   31220   31224
   31228   31232   31236   31240   31244   31248   31252   31256   31260   31264
   31268   31272   31276   31280   31284   31288   31292   31296   31300   31304
   31308   31312   31316   31320   31324   31328   31332   31336   31340   31344
   31348   31352   31356   31360   31364   31368   31372   31376   31380   31384
   31388   31392   31396   31400   31404   31408   31412   31416   31420   31424
   31428   31432   31436   31440   31444   31448   31452   31456   31460   31464
   31468   31472   31476   31480   31484   31488   31492   31496   31500   31504
   31508   31512   31516   31520   31524   31528   31532   31536   31540   31544
   31548   31552   31556   31560   31564   31568   31572   31576   31580   31584
   31588   31592   31596   31600   31604   31608   31612   31616   31620   31624
   31628   31632   31636   31640   31644   31648   31652   31656   31660   31664
   31668   31672   31676   31680   31684   31688   31692   31696   31700   31704
   31708   31712   31716   31720   31724   31728   31732   31736   31740   31744
   31748   31752   31756   31760   31764   31768   31772   31776   31780   31784
   31788   31792   31796   31800   31804   31808   31812   31816   31820   31824
   31828   31832   31836   31840   31844   31848   31852   31856   31860   31864
   31868   31872   31876   31880   31884   31888   31892   31896   31900   31904
   31908   31912   31916   31920   31924   31928   31932   31936   31940   31944
   31948   31952   31956   31960   31964   31968   31972   31976   31980   31984
   31988   31992   31996   32000   32004   32008   32012   32016   32020   32024
   32028   32032   32036   32040   32044   32048   32052   32056   32060   32064
   32068   32072   32076   32080   32084   32088   32092   32096   32100   32104
   32108   32112   32116   32120   32124   32128   32132   32136   32140   32144
   32148   32152   32156   32160   32164   32168   32172   32176   32180   32184
   32188   32192   32196   32200   32204   32208   32212   32216   32220   32224
   32228   32232   32236   32240   32244   32248   32252   32256   32260   32264
   32268   32272   32276   32280   32284   32288   32292   32296   32300   32304
   32308   32312   32316   32320   32324   32328   32332   32336   32340   32344
   32348   32352   32356   32360   32364   32368   32372   32376   32380   32384
   32388   32392   32396   32400   32404   32408   32412   32416   32420   32424
   32428   32432   32436   32440   32444   32448   32452   32456   32460   32464
   32468   32472   32476   32480   32484   32488   32492   32496   32500   32504
   32508   32512   32516   32520   32524   32528   32532   32536   32540   32544
   32548   32552   32556   32560   32564   32568   32572   32576   32580   32584
   32588   32592   32596   32600   32604   32608   32612   32616   32620   32624
   32628   32632   32636   32640   32644   32648   32652   32656   32660   32664
   32668   32672   32676   32680   32684   32688   32692   32696   32700   32704
   32708   32712   32716   32720   32724   32728   32732   32736   32740   32744
   32748   32752   32756   32760   32764   32768   32772   32776   32780   32784
   32788   32792   32796   32800   32804   32808   32812   32816   32820   32824
   32828   32832   32836   32840   32844   32848   32852   32856   32860   32864
   32868   32872   32876   32880   32884   32888   32892   32896   32900   32904
   32908   32912   32916   32920   32924   32928   32932   32936   32940   32944
   32948   32952   32956   32960   32964   32968   32972   32976   32980   32984
   32988   32992   32996   33000   33004   33008   33012   33016   33020   33024
   33028   33032   33036   33040   33044   33048   33052   33056   33060   33064
   33068   33072   33076   33080   33084   33088   33092   33096   33100   33104
   33108   33112   33116   33120   33124   33128   33132   33136   33140   33144
   33148   33152   33156   33160   33164   33168   33172   33176   33180   33184
   33188   33192   33196   33200   33204   33208   33212   33216   33220   33224
   33228   33232   33236   33240   33244   33248   33252   33256   33260   33264
   33268   33272   33276   33280   33284   33288   33292   33296   33300   33304
   33308   33312   33316   33320   33324   33328   33332   33336   33340   33344
   33348   33352   33356   33360   33364   33368   33372   33376   33380   33384
   33388   33392   33396   33400   33404   33408   33412   33416   33420   33424
   33428   33432   33436   33440   33444   33448   33452   33456   33460   33464
   33468   33472   33476   33480   33484   33488   33492   33496   33500   33504
   33508   33512   33516   33520   33524   33528   33532   33536   33540   33544
   33548   33552   33556   33560   33564   33568   33572   33576   33580   33584
   33588   33592   33596   33600   33604   33608   33612   33616   33620   33624
   33628   33632   33636   33640   33644   33648   33652   33656   33660   33664
   33668   33672   33676   33680   33684   33688   33692   33696   33700   33704
   33708   33712   33716   33720   33724   33728   33732   33736   33740   33744
   33748   33752   33756   33760   33764   33768   33772   33776   33780   33784
   33788   33792   33796   33800   33804   33808   33812   33816   33820   33824
   33828   33832   33836   33840   33844   33848   33852   33856   33860   33864
   33868   33872   33876   33880   33884   33888   33892   33896   33900   33904
   33908   33912   33916   33920   33924   33928   33932   33936   33940   33944
   33948   33952   33956   33960   33964   33968   33972   33976   33980   33984
   33988   33992   33996   34000   34004   34008   34012   34016   34020   34024
   34028   34032   34036   34040   34044   34048   34052   34056   34060   34064
   34068   34072   34076   34080   34084   34088   34092   34096   34100   34104
   34108   34112   34116   34120   34124   34128   34132   34136   34140   34144
   34148   34152   34156   34160   34164   34168   34172   34176   34180   34184
   34188   34192   34196   34200   34204   34208   34212   34216   34220   34224
   34228   34232   34236   34240   34244   34248   34252   34256   34260   34264
   34268   34272   34276   34280   34284   34288   34292   34296   34300   34304
   34308   34312   34316   34320   34324   34328   34332   34336   34340   34344
   34348   34352   34356   34360   34364   34368   34372   34376   34380   34384
   34388   34392   34396   34400   34404   34408   34412   34416   34420   34424
   34428   34432   34436   34440   34444   34448   34452   34456   34460   34464
   34468   34472   34476   34480   34484   34488   34492   34496   34500   34504
   34508   34512   34516   34520   34524   34528   34532   34536   34540   34544
   34548   34552   34556   34560   34564   34568   34572   34576   34580   34584
   34588   34592   34596   34600   34604   34608   34612   34616   34620   34624
   34628   34632   34636   34640   34644   34648   34652   34656   34660   34664
   34668   34672   34676   34680   34684   34688   34692   34696   34700   34704
   34708   34712   34716   34720   34724   34728   34732   34736   34740   34744
   34748   34752   34756   34760   34764   34768   34772   34776   34780   34784
   34788   34792   34796   34800   34804   34808   34812   34816   34820   34824
   34828   34832   34836   34840   34844   34848   34852   34856   34860   34864
   34868   34872   34876   34880   34884   34888   34892   34896   34900   34904
   34908   34912   34916   34920   34924   34928   34932   34936   34940   34944
   34948   34952   34956   34960   34964   34968   34972   34976   34980   34984
   34988   34992   34996   35000   35004   35008   35012   35016   35020   35024
   35028   35032   35036   35040   35044   35048   35052   35056   35060   35064
   35068   35072   35076   35080   35084   35088   35092   35096   35100   35104
   35108   35112   35116   35120   35124   35128   35132   35136   35140   35144
   35148   35152   35156   35160   35164   35168   35172   35176   35180   35184
   35188   35192   35196   35200   35204   35208   35212   35216   35220   35224
   35228   35232   35236   35240   35244   35248   35252   35256   35260   35264
   35268   35272   35276   35280   35284   35288   35292   35296   35300   35304
   35308   35312   35316   35320   35324   35328   35332   35336   35340   35344
   35348   35352   35356   35360   35364   35368   35372   35376   35380   35384
   35388   35392   35396   35400   35404   35408   35412   35416   35420   35424
   35428   35432   35436   35440   35444   35448   35452   35456   35460   35464
   35468   35472   35476   35480   35484   35488   35492   35496   35500   35504
   35508   35512   35516   35520   35524   35528   35532   35536   35540   35544
   35548   35552   35556   35560   35564   35568   35572   35576   35580   35584
   35588   35592   35596   35600   35604   35608   35612   35616   35620   35624
   35628   35632   35636   35640   35644   35648   35652   35656   35660   35664
   35668   35672   35676   35680   35684   35688   35692   35696   35700   35704
   35708   35712   35716   35720   35724   35728   35732   35736   35740   35744
   35748   35752   35756   35760   35764   35768   35772   35776   35780   35784
   35788   35792   35796   35800   35804   35808   35812   35816   35820   35824
   35828   35832   35836   35840   35844   35848   35852   35856   35860   35864
   35868   35872   35876   35880   35884   35888   35892   35896   35900   35904
   35908   35912   35916   35920   35924   35928   35932   35936   35940   35944
   35948   35952   35956   35960   35964   35968   35972   35976   35980   35984
   35988   35992   35996   36000   36004   36008   36012   36016   36020   36024
   36028   36032   36036   36040   36044   36048   36052   36056   36060   36064
   36068   36072   36076   36080   36084   36088   36092   36096   36100   36104
   36108   36112   36116   36120   36124   36128   36132   36136   36140   36144
   36148   36152   36156   36160   36164   36168   36172   36176   36180   36184
   36188   36192   36196   36200   36204   36208   36212   36216   36220   36224
   36228   36232   36236   36240   36244   36248   36252   36256   36260   36264
   36268   36272   36276   36280   36284   36288   36292   36296   36300   36304
   36308   36312   36316   36320   36324   36328   36332   36336   36340   36344
   36348   36352   36356   36360   36364   36368   36372   36376   36380   36384
   36388   36392   36396   36400   36404   36408   36412   36416   36420   36424
   36428   36432   36436   36440   36444   36448   36452   36456   36460   36464
   36468   36472   36476   36480   36484   36488   36492   36496   36500   36504
   36508   36512   36516   36520   36524   36528   36532   36536   36540   36544
   36548   36552   36556   36560   36564   36568   36572   36576   36580   36584
   36588   36592   36596   36600   36604   36608   36612   36616   36620   36624
   36628   36632   36636   36640   36644   36648   36652   36656   36660   36664
   36668   36672   36676   36680   36684   36688   36692   36696   36700   36704
   36708   36712   36716   36720   36724   36728   36732   36736   36740   36744
   36748   36752   36756   36760   36764   36768   36772   36776   36780   36784
   36788   36792   36796   36800   36804   36808   36812   36816   36820   36824
   36828   36832   36836   36840   36844   36848   36852   36856   36860   36864
   36868   36872   36876   36880   36884   36888   36892   36896   36900   36904
   36908   36912   36916   36920   36924   36928   36932   36936   36940   36944
   36948   36952   36956   36960   36964   36968   36972   36976   36980   36984
   36988   36992   36996   37000   37004   37008   37012   37016   37020   37024
   37028   37032   37036   37040   37044   37048   37052   37056   37060   37064
   37068   37072   37076   37080   37084   37088   37092   37096   37100   37104
   37108   37112   37116   37120   37124   37128   37132   37136   37140   37144
   37148   37152   37156   37160   37164   37168   37172   37176   37180   37184
   37188   37192   37196   37200   37204   37208   37212   37216   37220   37224
   37228   37232   37236   37240   37244   37248   37252   37256   37260   37264
   37268   37272   37276   37280   37284   37288   37292   37296   37300   37304
   37308   37312   37316   37320   37324   37328   37332   37336   37340   37344
   37348   37352   37356   37360   37364   37368   37372   37376   37380   37384
   37388   37392   37396   37400   37404   37408   37412   37416   37420   37424
   37428   37432   37436   37440   37444   37448   37452   37456   37460   37464
   37468   37472   37476   37480   37484   37488   37492   37496   37500   37504
   37508   37512   37516   37520   37524   37528   37532   37536   37540   37544
   37548   37552   37556   37560   37564   37568   37572   37576   37580   37584
   37588   37592   37596   37600   37604   37608   37612   37616   37620   37624
   37628   37632   37636   37640   37644   37648   37652   37656   37660   37664
   37668   37672   37676   37680   37684   37688   37692   37696   37700   37704
   37708   37712   37716   37720   37724   37728   37732   37736   37740   37744
   37748   37752   37756   37760   37764   37768   37772   37776   37780   37784
   37788   37792   37796   37800   37804   37808   37812   37816   37820   37824
   37828   37832   37836   37840   37844   37848   37852   37856   37860   37864
   37868   37872   37876   37880   37884   37888   37892   37896   37900   37904
   37908   37912   37916   37920   37924   37928   37932   37936   37940   37944
   37948   37952   37956   37960   37964   37968   37972   37976   37980   37984
   37988   37992   37996   38000   38004   38008   38012   38016   38020   38024
   38028   38032   38036   38040   38044   38048   38052   38056   38060   38064
   38068   38072   38076   38080   38084   38088   38092   38096   38100   38104
   38108   38112   38116   38120   38124   38128   38132   38136   38140   38144
   38148   38152   38156   38160   38164   38168   38172   38176   38180   38184
   38188   38192   38196   38200   38204   38208   38212   38216   38220   38224
   38228   38232   38236   38240   38244   38248   38252   38256   38260   38264
   38268   38272   38276   38280   38284   38288   38292   38296   38300   38304
   38308   38312   38316   38320   38324   38328   38332   38336   38340   38344
   38348   38352   38356   38360   38364   38368   38372   38376   38380   38384
   38388   38392   38396   38400   38404   38408   38412   38416   38420   38424
   38428   38432   38436   38440   38444   38448   38452   38456   38460   38464
   38468   38472   38476   38480   38484   38488   38492   38496   38500   38504
   38508   38512   38516   38520   38524   38528   38532   38536   38540   38544
   38548   38552   38556   38560   38564   38568   38572   38576   38580   38584
   38588   38592   38596   38600   38604   38608   38612   38616   38620   38624
   38628   38632   38636   38640   38644   38648   38652   38656   38660   38664
   38668   38672   38676   38680   38684   38688   38692   38696   38700   38704
   38708   38712   38716   38720   38724   38728   38732   38736   38740   38744
   38748   38752   38756   38760   38764   38768   38772   38776   38780   38784
   38788   38792   38796   38800   38804   38808   38812   38816   38820   38824
   38828   38832   38836   38840   38844   38848   38852   38856   38860   38864
   38868   38872   38876   38880   38884   38888   38892   38896   38900   38904
   38908   38912   38916   38920   38924   38928   38932   38936   38940   38944
   38948   38952   38956   38960   38964   38968   38972   38976   38980   38984
   38988   38992   38996   39000   39004   39008   39012   39016   39020   39024
   39028   39032   39036   39040   39044   39048   39052   39056   39060   39064
   39068   39072   39076   39080   39084   39088   39092   39096   39100   39104
   39108   39112   39116   39120   39124   39128   39132   39136   39140   39144
   39148   39152   39156   39160   39164   39168   39172   39176   39180   39184
   39188   39192   39196   39200   39204   39208   39212   39216   39220   39224
   39228   39232   39236   39240   39244   39248   39252   39256   39260   39264
   39268   39272   39276   39280   39284   39288   39292   39296   39300   39304
   39308   39312   39316   39320   39324   39328   39332   39336   39340   39344
   39348   39352   39356   39360   39364   39368   39372   39376   39380   39384
   39388   39392   39396   39400   39404   39408   39412   39416   39420   39424
   39428   39432   39436   39440   39444   39448   39452   39456   39460   39464
   39468   39472   39476   39480   39484   39488   39492   39496   39500   39504
   39508   39512   39516   39520   39524   39528   39532   39536   39540   39544
   39548   39552   39556   39560   39564   39568   39572   39576   39580   39584
   39588   39592   39596   39600   39604   39608   39612   39616   39620   39624
   39628   39632   39636   39640   39644   39648   39652   39656   39660   39664
   39668   39672   39676   39680   39684   39688   39692   39696   39700   39704
   39708   39712   39716   39720   39724   39728   39732   39736   39740   39744
   39748   39752   39756   39760   39764   39768   39772   39776   39780   39784
   39788   39792   39796   39800   39804   39808   39812   39816   39820   39824
   39828   39832   39836   39840   39844   39848   39852   39856   39860   39864
   39868   39872   39876   39880   39884   39888   39892   39896   39900   39904
   39908   39912   39916   39920   39924   39928   39932   39936   39940   39944
   39948   39952   39956   39960   39964   39968   39972   39976   39980   39984
   39988   39992   39996   40000   40004   40008   40012   40016   40020   40024
   40028   40032   40036   40040   40044   40048   40052   40056   40060   40064
   40068   40072   40076   40080   40084   40088   40092   40096   40100   40104
   40108   40112   40116   40120   40124   40128   40132   40136   40140   40144
   40148   40152   40156   40160   40164   40168   40172   40176   40180   40184
   40188   40192   40196   40200   40204   40208   40212   40216   40220   40224
   40228   40232   40236   40240   40244   40248   40252   40256   40260   40264
   40268   40272   40276   40280   40284   40288   40292   40296   40300   40304
   40308   40312   40316   40320   40324   40328   40332   40336   40340   40344
   40348   40352   40356   40360   40364   40368   40372   40376   40380   40384
   40388   40392   40396   40400   40404   40408   40412   40416   40420   40424
   40428   40432   40436   40440   40444   40448   40452   40456   40460   40464
   40468   40472   40476   40480   40484   40488   40492   40496   40500   40504
   40508   40512   40516   40520   40524   40528   40532   40536   40540   40544
   40548   40552   40556   40560   40564   40568   40572   40576   40580   40584
   40588   40592   40596   40600   40604   40608   40612   40616   40620   40624
   40628   40632   40636   40640   40644   40648   40652   40656   40660   40664
   40668   40672   40676   40680   40684   40688   40692   40696   40700   40704
   40708   40712   40716   40720   40724   40728   40732   40736   40740   40744
   40748   40752   40756   40760   40764   40768   40772   40776   40780   40784
   40788   40792   40796   40800   40804   40808   40812   40816   40820   40824
   40828   40832   40836   40840   40844   40848   40852   40856   40860   40864
   40868   40872   40876   40880   40884   40888   40892   40896   40900   40904
   40908   40912   40916   40920   40924   40928   40932   40936   40940   40944
   40948   40952   40956   40960   40964   40968   40972   40976   40980   40984
   40988   40992   40996   41000   41004   41008   41012   41016   41020   41024
   41028   41032   41036   41040   41044   41048   41052   41056   41060   41064
   41068   41072   41076   41080   41084   41088   41092   41096   41100   41104
   41108   41112   41116   41120   41124   41128   41132   41136   41140   41144
   41148   41152   41156   41160   41164   41168   41172   41176   41180   41184
   41188   41192   41196   41200   41204   41208   41212   41216   41220   41224
   41228   41232   41236   41240   41244   41248   41252   41256   41260   41264
   41268   41272   41276   41280   41284   41288   41292   41296   41300   41304
   41308   41312   41316   41320   41324   41328   41332   41336   41340   41344
   41348   41352   41356   41360   41364   41368   41372   41376   41380   41384
   41388   41392   41396   41400   41404   41408   41412   41416   41420   41424
   41428   41432   41436   41440   41444   41448   41452   41456   41460   41464
   41468   41472   41476   41480   41484   41488   41492   41496   41500   41504
   41508   41512   41516   41520   41524   41528   41532   41536   41540   41544
   41548   41552   41556   41560   41564   41568   41572   41576   41580   41584
   41588   41592   41596   41600   41604   41608   41612   41616   41620   41624
   41628   41632   41636   41640   41644   41648   41652   41656   41660   41664
   41668   41672   41676   41680   41684   41688   41692   41696   41700   41704
   41708   41712   41716   41720   41724   41728   41732   41736   41740   41744
   41748   41752   41756   41760   41764   41768   41772   41776   41780   41784
   41788   41792   41796   41800   41804   41808   41812   41816   41820   41824
   41828   41832   41836   41840   41844   41848   41852   41856   41860   41864
   41868   41872   41876   41880   41884   41888   41892   41896   41900   41904
   41908   41912   41916   41920   41924   41928   41932   41936   41940   41944
   41948   41952   41956   41960   41964   41968   41972   41976   41980   41984
   41988   41992   41996   42000   42004   42008   42012   42016   42020   42024
   42028   42032   42036   42040   42044   42048   42052   42056   42060   42064
   42068   42072   42076   42080   42084   42088   42092   42096   42100   42104
   42108   42112   42116   42120   42124   42128   42132   42136   42140   42144
   42148   42152   42156   42160   42164   42168   42172   42176   42180   42184
   42188   42192   42196   42200   42204   42208   42212   42216   42220   42224
   42228   42232   42236   42240   42244   42248   42252   42256   42260   42264
   42268   42272   42276   42280   42284   42288   42292   42296   42300   42304
   42308   42312   42316   42320   42324   42328   42332   42336   42340   42344
   42348   42352   42356   42360   42364   42368   42372   42376   42380   42384
   42388   42392   42396   42400   42404   42408   42412   42416   42420   42424
   42428   42432   42436   42440   42444   42448   42452   42456   42460   42464
   42468   42472   42476   42480   42484   42488   42492   42496   42500   42504
   42508   42512   42516   42520   42524   42528   42532   42536   42540   42544
   42548   42552   42556   42560   42564   42568   42572   42576   42580   42584
   42588   42592   42596   42600   42604   42608   42612   42616   42620   42624
   42628   42632   42636   42640   42644   42648   42652   42656   42660   42664
   42668   42672   42676   42680   42684   42688   42692   42696   42700   42704
   42708   42712   42716   42720   42724   42728   42732   42736   42740   42744
   42748   42752   42756   42760   42764   42768   42772   42776   42780   42784
   42788   42792   42796   42800   42804   42808   42812   42816   42820   42824
   42828   42832   42836   42840   42844   42848   42852   42856   42860   42864
   42868   42872   42876   42880   42884   42888   42892   42896   42900   42904
   42908   42912   42916   42920   42924   42928   42932   42936   42940   42944
   42948   42952   42956   42960   42964   42968   42972   42976   42980   42984
   42988   42992   42996   43000   43004   43008   43012   43016   43020   43024
   43028   43032   43036   43040   43044   43048   43052   43056   43060   43064
   43068   43072   43076   43080   43084   43088   43092   43096   43100   43104
   43108   43112   43116   43120   43124   43128   43132   43136   43140   43144
   43148   43152   43156   43160   43164   43168   43172   43176   43180   43184
   43188   43192   43196   43200   43204   43208   43212   43216   43220   43224
   43228   43232   43236   43240   43244   43248   43252   43256   43260   43264
   43268   43272   43276   43280   43284   43288   43292   43296   43300   43304
   43308   43312   43316   43320   43324   43328   43332   43336   43340   43344
   43348   43352   43356   43360   43364   43368   43372   43376   43380   43384
   43388   43392   43396   43400   43404   43408   43412   43416   43420   43424
   43428   43432   43436   43440   43444   43448   43452   43456   43460   43464
   43468   43472   43476   43480   43484   43488   43492   43496   43500   43504
   43508   43512   43516   43520   43524   43528   43532   43536   43540   43544
   43548   43552   43556   43560   43564   43568   43572   43576   43580   43584
   43588   43592   43596   43600   43604   43608   43612   43616   43620   43624
   43628   43632   43636   43640   43644   43648   43652   43656   43660   43664
   43668   43672   43676   43680   43684   43688   43692   43696   43700   43704
   43708   43712   43716   43720   43724   43728   43732   43736   43740   43744
   43748   43752   43756   43760   43764   43768   43772   43776   43780   43784
   43788   43792   43796   43800   43804   43808   43812   43816   43820   43824
   43828   43832   43836   43840   43844   43848   43852   43856   43860   43864
   43868   43872   43876   43880   43884   43888   43892   43896   43900   43904
   43908   43912   43916   43920   43924   43928   43932   43936   43940   43944
   43948   43952   43956   43960   43964   43968   43972   43976   43980   43984
   43988   43992   43996   44000   44004   44008   44012   44016   44020   44024
   44028   44032   44036   44040   44044   44048   44052   44056   44060   44064
   44068   44072   44076   44080   44084   44088   44092   44096   44100   44104
   44108   44112   44116   44120   44124   44128   44132   44136   44140   44144
   44148   44152   44156   44160   44164   44168   44172   44176   44180   44184
   44188   44192   44196   44200   44204   44208   44212   44216   44220   44224
   44228   44232   44236   44240   44244   44248   44252   44256   44260   44264
   44268   44272   44276   44280   44284   44288   44292   44296   44300   44304
   44308   44312   44316   44320   44324   44328   44332   44336   44340   44344
   44348   44352   44356   44360   44364   44368   44372   44376   44380   44384
   44388   44392   44396   44400   44404   44408   44412   44416   44420   44424
   44428   44432   44436   44440   44444   44448   44452   44456   44460   44464
   44468   44472   44476   44480   44484   44488   44492   44496   44500   44504
   44508   44512   44516   44520   44524   44528   44532   44536   44540   44544
   44548   44552   44556   44560   44564   44568   44572   44576   44580   44584
   44588   44592   44596   44600   44604   44608   44612   44616   44620   44624
   44628   44632   44636   44640   44644   44648   44652   44656   44660   44664
   44668   44672   44676   44680   44684   44688   44692   44696   44700   44704
   44708   44712   44716   44720   44724   44728   44732   44736   44740   44744
   44748   44752   44756   44760   44764   44768   44772   44776   44780   44784
   44788   44792   44796   44800   44804   44808   44812   44816   44820   44824
   44828   44832   44836   44840   44844   44848   44852   44856   44860   44864
   44868   44872   44876   44880   44884   44888   44892   44896   44900   44904
   44908   44912   44916   44920   44924   44928   44932   44936   44940   44944
   44948   44952   44956   44960   44964   44968   44972   44976   44980   44984
   44988   44992   44996   45000   45004   45008   45012   45016   45020   45024
   45028   45032   45036   45040   45044   45048   45052   45056   45060   45064
   45068   45072   45076   45080   45084   45088   45092   45096   45100   45104
   45108   45112   45116   45120   45124   45128   45132   45136   45140   45144
   45148   45152   45156   45160   45164   45168   45172   45176   45180   45184
   45188   45192   45196   45200   45204   45208   45212   45216   45220   45224
   45228   45232   45236   45240   45244   45248   45252   45256   45260   45264
   45268   45272   45276   45280   45284   45288   45292   45296   45300   45304
   45308   45312   45316   45320   45324   45328   45332   45336   45340   45344
   45348   45352   45356   45360   45364   45368   45372   45376   45380   45384
   45388   45392   45396   45400   45404   45408   45412   45416   45420   45424
   45428   45432   45436   45440   45444   45448   45452   45456   45460   45464
   45468   45472   45476   45480   45484   45488   45492   45496   45500   45504
   45508   45512   45516   45520   45524   45528   45532   45536   45540   45544
   45548   45552   45556   45560   45564   45568   45572   45576   45580   45584
   45588   45592   45596   45600   45604   45608   45612   45616   45620   45624
   45628   45632   45636   45640   45644   45648   45652   45656   45660   45664
   45668   45672   45676   45680   45684   45688   45692   45696   45700   45704
   45708   45712   45716   45720   45724   45728   45732   45736   45740   45744
   45748   45752   45756   45760   45764   45768   45772   45776   45780   45784
   45788   45792   45796   45800   45804   45808   45812   45816   45820   45824
   45828   45832   45836   45840   45844   45848   45852   45856   45860   45864
   45868   45872   45876   45880   45884   45888   45892   45896   45900   45904
   45908   45912   45916   45920   45924   45928   45932   45936   45940   45944
   45948   45952   45956   45960   45964   45968   45972   45976   45980   45984
   45988   45992   45996   46000   46004   46008   46012   46016   46020   46024
   46028   46032   46036   46040   46044   46048   46052   46056   46060   46064
   46068   46072   46076   46080   46084   46088   46092   46096   46100   46104
   46108   46112   46116   46120   46124   46128   46132   46136   46140   46144
   46148   46152   46156   46160   46164   46168   46172   46176   46180   46184
   46188   46192   46196   46200   46204   46208   46212   46216   46220   46224
   46228   46232   46236   46240   46244   46248   46252   46256   46260   46264
   46268   46272   46276   46280   46284   46288   46292   46296   46300   46304
   46308   46312   46316   46320   46324   46328   46332   46336   46340   46344
   46348   46352   46356   46360   46364   46368   46372   46376   46380   46384
   46388   46392   46396   46400   46404   46408   46412   46416   46420   46424
   46428   46432   46436   46440   46444   46448   46452   46456   46460   46464
   46468   46472   46476   46480   46484   46488   46492   46496   46500   46504
   46508   46512   46516   46520   46524   46528   46532   46536   46540   46544
   46548   46552   46556   46560   46564   46568   46572   46576   46580   46584
   46588   46592   46596   46600   46604   46608   46612   46616   46620   46624
   46628   46632   46636   46640   46644   46648   46652   46656   46660   46664
   46668   46672   46676   46680   46684   46688   46692   46696   46700   46704
   46708   46712   46716   46720   46724   46728   46732   46736   46740   46744
   46748   46752   46756   46760   46764   46768   46772   46776   46780   46784
   46788   46792   46796   46800   46804   46808   46812   46816   46820   46824
   46828   46832   46836   46840   46844   46848   46852   46856   46860   46864
   46868   46872   46876   46880   46884   46888   46892   46896   46900   46904
   46908   46912   46916   46920   46924   46928   46932   46936   46940   46944
   46948   46952   46956   46960   46964   46968   46972   46976   46980   46984
   46988   46992   46996   47000   47004   47008   47012   47016   47020   47024
   47028   47032   47036   47040   47044   47048   47052   47056   47060   47064
   47068   47072   47076   47080   47084   47088   47092   47096   47100   47104
   47108   47112   47116   47120   47124   47128   47132   47136   47140   47144
   47148   47152   47156   47160   47164   47168   47172   47176   47180   47184
   47188   47192   47196   47200   47204   47208   47212   47216   47220   47224
   47228   47232   47236   47240   47244   47248   47252   47256   47260   47264
   47268   47272   47276   47280   47284   47288   47292   47296   47300   47304
   47308   47312   47316   47320   47324   47328   47332   47336   47340   47344
   47348   47352   47356   47360   47364   47368   47372   47376   47380   47384
   47388   47392   47396   47400   47404   47408   47412   47416   47420   47424
   47428   47432   47436   47440   47444   47448   47452   47456   47460   47464
   47468   47472   47476   47480   47484   47488   47492   47496   47500   47504
   47508   47512   47516   47520   47524   47528   47532   47536   47540   47544
   47548   47552   47556   47560   47564   47568   47572   47576   47580   47584
   47588   47592   47596   47600   47604   47608   47612   47616   47620   47624
   47628   47632   47636   47640   47644   47648   47652   47656   47660   47664
   47668   47672   47676   47680   47684   47688   47692   47696   47700   47704
   47708   47712   47716   47720   47724   47728   47732   47736   47740   47744
   47748   47752   47756   47760   47764   47768   47772   47776   47780   47784
   47788   47792   47796   47800   47804   47808   47812   47816   47820   47824
   47828   47832   47836   47840   47844   47848   47852   47856   47860   47864
   47868   47872   47876   47880   47884   47888   47892   47896   47900   47904
   47908   47912   47916   47920   47924   47928   47932   47936   47940   47944
   47948   47952   47956   47960   47964   47968   47972   47976   47980   47984
   47988   47992   47996   48000   48004   48008   48012   48016   48020   48024
   48028   48032   48036   48040   48044   48048   48052   48056   48060   48064
   48068   48072   48076   48080   48084   48088   48092   48096   48100   48104
   48108   48112   48116   48120   48124   48128   48132   48136   48140   48144
   48148   48152   48156   48160   48164   48168   48172   48176   48180   48184
   48188   48192   48196   48200   48204   48208   48212   48216   48220   48224
   48228   48232   48236   48240   48244   48248   48252   48256   48260   48264
   48268   48272   48276   48280   48284   48288   48292   48296   48300   48304
   48308   48312   48316   48320   48324   48328   48332   48336   48340   48344
   48348   48352   48356   48360   48364   48368   48372   48376   48380   48384
   48388   48392   48396   48400   48404   48408   48412   48416   48420   48424
   48428   48432   48436   48440   48444   48448   48452   48456   48460   48464
   48468   48472   48476   48480   48484   48488
%FLAG BOND_FORCE_CONSTANT                                                       
%FORMAT(5E16.8)                                                                 
  6.52600000E+02  3.56200000E+02  3.40000000E+02  3.17000000E+02  3.67000000E+02
  4.69000000E+02  4.69000000E+02  4.69000000E+02  4.47000000E+02  4.34000000E+02
  4.28000000E+02  3.67000000E+02  4.27000000E+02  5.46000000E+02  3.88000000E+02
  3.17000000E+02  3.40000000E+02  3.10000000E+02  3.17000000E+02  5.27300000E+02
  3.37000000E+02  3.40000000E+02  3.10000000E+02  3.10000000E+02  5.53000000E+02
  3.40000000E+02  3.20000000E+02  3.67000000E+02  4.10000000E+02  3.67000000E+02
  4.88000000E+02  4.77000000E+02  4.22000000E+02  5.12000000E+02  3.17000000E+02
  4.34000000E+02  4.81000000E+02  3.40000000E+02  3.37000000E+02  3.40000000E+02
  3.10000000E+02  3.10000000E+02  3.75900000E+02  2.32500000E+02  2.50300000E+02
  3.95700000E+02  3.78600000E+02  2.32500000E+02  2.63800000E+02  2.43200000E+02
  3.40000000E+02  3.10000000E+02  3.10000000E+02  3.40000000E+02  3.20000000E+02
  4.34000000E+02  3.40000000E+02  3.67000000E+02  3.17000000E+02  3.17000000E+02
  3.10000000E+02  3.40000000E+02  3.37000000E+02  6.56000000E+02  3.17000000E+02
  5.53000000E+02  5.53000000E+02  5.53000000E+02
%FLAG BOND_EQUIL_VALUE                                                          
%FORMAT(5E16.8)                                                                 
  1.21800000E+00  1.37900000E+00  1.09000000E+00  1.52200000E+00  1.08000000E+00
  1.40400000E+00  1.40000000E+00  1.40000000E+00  1.41900000E+00  1.01000000E+00
  1.38000000E+00  1.08000000E+00  1.38100000E+00  1.35200000E+00  1.45900000E+00
  1.49500000E+00  1.09000000E+00  1.52600000E+00  1.52200000E+00  1.01300000E+00
  1.44900000E+00  1.09000000E+00  1.52600000E+00  1.52600000E+00  9.60000000E-01
  1.09000000E+00  1.41000000E+00  1.08000000E+00  1.39400000E+00  1.08000000E+00
  1.33500000E+00  1.34300000E+00  1.38500000E+00  1.37500000E+00  1.50400000E+00
  1.01000000E+00  1.34000000E+00  1.09000000E+00  1.46300000E+00  1.09000000E+00
  1.52600000E+00  1.52600000E+00  1.09700000E+00  1.53800000E+00  1.51600000E+00
  1.08600000E+00  1.39800000E+00  1.53800000E+00  1.46200000E+00  1.52400000E+00
  1.09000000E+00  1.52600000E+00  1.52600000E+00  1.09000000E+00  1.41000000E+00
  1.01000000E+00  1.09000000E+00  1.47100000E+00  1.52200000E+00  1.51000000E+00
  1.52600000E+00  1.09000000E+00  1.44900000E+00  1.25000000E+00  1.52200000E+00
  8.72433130E-01  1.37120510E+00  1.59398330E-01
%FLAG ANGLE_FORCE_CONSTANT                                                      
%FORMAT(5E16.8)                                                                 
  1.13800000E+02  4.87000000E+01  5.00000000E+01  5.00000000E+01  3.50000000E+01
  8.00000000E+01  7.00000000E+01  5.00000000E+01  5.00000000E+01  6.30000000E+01
  6.30000000E+01  6.30000000E+01  5.00000000E+01  6.30000000E+01  6.30000000E+01
  5.00000000E+01  7.00000000E+01  7.00000000E+01  5.00000000E+01  6.30000000E+01
  5.00000000E+01  7.00000000E+01  5.00000000E+01  7.00000000E+01  6.30000000E+01
  6.30000000E+01  5.00000000E+01  6.30000000E+01  7.00000000E+01  7.00000000E+01
  5.00000000E+01  5.00000000E+01  5.00000000E+01  6.30000000E+01  8.00000000E+01
  7.00000000E+01  5.00000000E+01  5.00000000E+01  8.00000000E+01  6.30000000E+01
  4.00000000E+01  5.00000000E+01  6.30000000E+01  5.00000000E+01  5.00000000E+01
  5.00000000E+01  4.00000000E+01  8.00000000E+01  5.00000000E+01  5.00000000E+01
  5.00000000E+01  5.50000000E+01  5.00000000E+01  5.00000000E+01  5.00000000E+01
  5.00000000E+01  7.00000000E+01  5.00000000E+01  7.00000000E+01  5.00000000E+01
  7.00000000E+01  5.00000000E+01  7.00000000E+01  7.00000000E+01  5.00000000E+01
  5.00000000E+01  7.00000000E+01  7.00000000E+01  6.30000000E+01  6.53000000E+01
  3.50000000E+01  7.00000000E+01  5.00000000E+01  5.00000000E+01  3.50000000E+01
  5.00000000E+01  5.00000000E+01  5.00000000E+01  3.50000000E+01  5.00000000E+01
  8.00000000E+01  6.30000000E+01  4.00000000E+01  5.00000000E+01  5.00000000E+01
  4.00000000E+01  8.00000000E+01  4.68000000E+01  3.90000000E+01  4.62780000E+01
  6.49000000E+01  4.89000000E+01  4.75000000E+01  6.55500000E+01  6.59000000E+01
  8.32000000E+01  6.49000000E+01  8.43000000E+01  4.68000000E+01  6.49000000E+01
  4.61000000E+01  8.46000000E+01  6.53000000E+01  8.45000000E+01  3.50000000E+01
  5.00000000E+01  3.50000000E+01  6.30000000E+01  5.00000000E+01  4.00000000E+01
  5.00000000E+01  5.00000000E+01  4.00000000E+01  8.00000000E+01  5.00000000E+01
  3.50000000E+01  5.50000000E+01  5.00000000E+01  5.00000000E+01  3.50000000E+01
  5.00000000E+01  3.50000000E+01  5.00000000E+01  5.00000000E+01  8.00000000E+01
  3.50000000E+01  5.00000000E+01  8.00000000E+01  7.00000000E+01  6.30000000E+01
  5.00000000E+01  7.00000000E+01  6.30000000E+01  5.00000000E+01  5.00000000E+01
  4.00000000E+01  5.00000000E+01  3.50000000E+01  5.00000000E+01  4.00000000E+01
  5.00000000E+01  8.00000000E+01  8.00000000E+01  5.00000000E+01  7.00000000E+01
  6.30000000E+01
%FLAG ANGLE_EQUIL_VALUE                                                         
%FORMAT(5E16.8)                                                                 
  2.14762857E+00  2.05163542E+00  2.12755727E+00  1.91113635E+00  1.91113635E+00
  2.10137732E+00  2.03505478E+00  2.09439600E+00  2.09439600E+00  2.09439600E+00
  2.09439600E+00  2.14151991E+00  2.09439600E+00  2.09439600E+00  2.02807346E+00
  2.14850123E+00  2.31779824E+00  1.82212452E+00  2.09439600E+00  1.85703112E+00
  2.09439600E+00  1.94778828E+00  2.09439600E+00  1.89717371E+00  1.89891904E+00
  2.35445017E+00  1.91113635E+00  1.93906163E+00  2.18166250E+00  2.24449438E+00
  1.91113635E+00  1.91113635E+00  1.91113635E+00  2.01760148E+00  2.10137732E+00
  2.03505478E+00  2.06018753E+00  1.91113635E+00  1.91462701E+00  1.92160833E+00
  1.91113635E+00  1.91113635E+00  1.93906163E+00  1.91113635E+00  1.91113635E+00
  1.91113635E+00  1.91113635E+00  1.91462701E+00  1.91113635E+00  1.91113635E+00
  1.91113635E+00  1.89368305E+00  1.91113635E+00  1.91113635E+00  2.09439600E+00
  2.09439600E+00  2.04203610E+00  2.09439600E+00  2.09439600E+00  2.09439600E+00
  2.09439600E+00  2.09439600E+00  2.09439600E+00  2.09439600E+00  2.09439600E+00
  1.91113635E+00  2.09439600E+00  2.09439600E+00  1.97396823E+00  2.10643878E+00
  2.09439600E+00  2.09439600E+00  2.09439600E+00  1.91113635E+00  1.91113635E+00
  2.06647072E+00  2.15024656E+00  1.91113635E+00  1.91113635E+00  1.91113635E+00
  1.94080696E+00  1.93906163E+00  1.91113635E+00  1.91113635E+00  1.91113635E+00
  1.91113635E+00  1.91462701E+00  1.91637234E+00  1.87762601E+00  2.02938246E+00
  1.94621748E+00  2.09230160E+00  1.92806605E+00  1.95599133E+00  2.10783504E+00
  1.94796281E+00  1.94621748E+00  2.01027109E+00  1.91637234E+00  1.94621748E+00
  2.05390434E+00  2.15024656E+00  1.93801443E+00  1.90345690E+00  1.91113635E+00
  1.91113635E+00  1.91113635E+00  1.93906163E+00  1.91113635E+00  1.91113635E+00
  1.91113635E+00  1.91113635E+00  1.91113635E+00  1.91462701E+00  1.91113635E+00
  1.91113635E+00  1.89368305E+00  1.91113635E+00  1.91113635E+00  1.91113635E+00
  1.91113635E+00  1.91113635E+00  1.91113635E+00  1.91113635E+00  1.94080696E+00
  2.09439600E+00  1.91113635E+00  2.10137732E+00  2.03505478E+00  1.93906163E+00
  1.91113635E+00  2.09439600E+00  1.98967620E+00  2.12755727E+00  1.91113635E+00
  1.91113635E+00  1.91113635E+00  1.91113635E+00  2.05948940E+00  1.91113635E+00
  1.91113635E+00  1.91462701E+00  2.19911580E+00  1.91113635E+00  2.04203610E+00
  1.93906163E+00
%FLAG DIHEDRAL_FORCE_CONSTANT                                                   
%FORMAT(5E16.8)                                                                 
  2.00000000E+00  2.50000000E+00  0.00000000E+00  0.00000000E+00  0.00000000E+00
  0.00000000E+00  8.00000000E-01  8.00000000E-02  3.62500000E+00  3.00000000E+00
  3.50000000E+00  1.52500000E+00  6.52500000E+00  1.50000000E+00  1.67500000E+00
  1.70000000E-02  3.53000000E-01  2.34000000E-01  7.40000000E-02  1.55555556E-01
  0.00000000E+00  3.65000000E-01  4.08000000E-01  8.19000000E-01  9.50000000E-02
  7.90000000E-02  3.13000000E-01  3.10000000E-02  0.00000000E+00  0.00000000E+00
  4.06000000E-01  2.89000000E-01  1.48000000E-01  1.12000000E-01  1.60000000E-01
  1.50000000E-01  3.37000000E-01  2.16000000E-01  1.00000000E-03  6.97000000E-01
  1.19000000E-01  3.15000000E-01  1.56000000E-01  2.50000000E-01  6.43000000E-01
  7.90000000E-02  2.36000000E-01  4.80000000E-02  1.66666667E-01  6.00000000E-03
  2.51000000E-01  1.30000000E-02  6.74000000E-01  6.00000000E-03  9.50000000E-02
  5.00000000E+00  1.40000000E+00  2.40000000E+00  2.32500000E+00  5.15000000E+00
  1.43000000E-01  2.44000000E-01  2.19000000E-01  2.50000000E-02  1.60000000E-01
  3.92000000E-01  6.86000000E-01  3.70000000E-02  6.74000000E-01  7.50000000E-01
  1.22000000E-01  1.00000000E-02  3.06000000E-01  2.21000000E-01  8.90000000E-02
  6.40000000E-01  3.90000000E-01  1.02000000E+00  1.70000000E-01  1.00000000E-01
  2.00000000E-01  2.50000000E-01  1.80000000E-01  8.00000000E-02  1.20000000E-01
  3.63000000E+00  1.00000000E-01  2.12000000E+00  1.57777778E-01  3.66250000E+00
  1.10000000E-01  2.90000000E-01  1.30000000E-01  1.00000000E-02  1.61111111E-01
  1.58888889E-01  2.65000000E-01  1.00000000E-01  7.10000000E-01  0.00000000E+00
  2.70000000E-01  7.06000000E-01  6.20000000E-01  1.44000000E-01  1.90000000E-01
  3.79000000E-01  2.70000000E-02  1.42000000E-01  1.79000000E-01  9.80000000E-02
  2.59000000E-01  7.30000000E-02  6.61000000E-01  2.18000000E-01  4.01000000E-01
  1.29000000E-01  2.11000000E-01  4.44000000E-01  2.67000000E-01  7.00000000E-03
  6.66000000E-01  2.46000000E-01  1.60000000E-01  1.04600000E+00  3.03000000E-01
  3.30000000E-02  1.07000000E-01  8.28000000E-01  4.85000000E-01  3.01000000E-01
  8.00000000E-03  6.88000000E-01  2.97000000E-01  5.90000000E-02  5.50000000E-02
  4.69000000E-01  1.92000000E-01  1.20000000E-02  6.90000000E-02  4.80000000E-02
  1.20000000E-02  7.00000000E-03  2.00000000E+00  4.00000000E-01  4.24000000E-01
  4.59000000E-01  5.80000000E-02  1.54000000E-01  7.69000000E-01  3.10000000E-02
  2.15400000E+00  6.47000000E-01  1.05000000E+01  0.00000000E+00  1.10000000E+00
  1.00000000E+00
%FLAG DIHEDRAL_PERIODICITY                                                      
%FORMAT(5E16.8)                                                                 
  1.00000000E+00  2.00000000E+00  2.00000000E+00  1.00000000E+00  3.00000000E+00
  4.00000000E+00  1.00000000E+00  3.00000000E+00  2.00000000E+00  2.00000000E+00
  2.00000000E+00  2.00000000E+00  2.00000000E+00  2.00000000E+00  2.00000000E+00
  1.00000000E+00  2.00000000E+00  3.00000000E+00  4.00000000E+00  3.00000000E+00
  3.00000000E+00  1.00000000E+00  2.00000000E+00  3.00000000E+00  4.00000000E+00
  1.00000000E+00  2.00000000E+00  4.00000000E+00  1.00000000E+00  2.00000000E+00
  1.00000000E+00  2.00000000E+00  3.00000000E+00  4.00000000E+00  3.00000000E+00
  3.00000000E+00  1.00000000E+00  2.00000000E+00  4.00000000E+00  1.00000000E+00
  2.00000000E+00  3.00000000E+00  4.00000000E+00  1.00000000E+00  1.00000000E+00
  2.00000000E+00  3.00000000E+00  4.00000000E+00  3.00000000E+00  1.00000000E+00
  2.00000000E+00  4.00000000E+00  1.00000000E+00  2.00000000E+00  4.00000000E+00
  2.00000000E+00  2.00000000E+00  2.00000000E+00  2.00000000E+00  2.00000000E+00
  1.00000000E+00  2.00000000E+00  3.00000000E+00  4.00000000E+00  1.00000000E+00
  2.00000000E+00  3.00000000E+00  4.00000000E+00  1.00000000E+00  2.00000000E+00
  3.00000000E+00  4.00000000E+00  1.00000000E+00  2.00000000E+00  4.00000000E+00
  1.00000000E+00  2.00000000E+00  1.00000000E+00  3.00000000E+00  4.00000000E+00
  1.00000000E+00  2.00000000E+00  3.00000000E+00  3.00000000E+00  3.00000000E+00
  2.00000000E+00  1.00000000E+00  2.00000000E+00  3.00000000E+00  2.00000000E+00
  1.00000000E+00  2.00000000E+00  3.00000000E+00  2.00000000E+00  3.00000000E+00
  3.00000000E+00  2.00000000E+00  3.00000000E+00  2.00000000E+00  4.00000000E+00
  2.00000000E+00  1.00000000E+00  2.00000000E+00  3.00000000E+00  4.00000000E+00
  1.00000000E+00  2.00000000E+00  3.00000000E+00  4.00000000E+00  1.00000000E+00
  2.00000000E+00  4.00000000E+00  1.00000000E+00  2.00000000E+00  3.00000000E+00
  4.00000000E+00  1.00000000E+00  2.00000000E+00  3.00000000E+00  4.00000000E+00
  1.00000000E+00  2.00000000E+00  4.00000000E+00  1.00000000E+00  2.00000000E+00
  3.00000000E+00  4.00000000E+00  1.00000000E+00  2.00000000E+00  3.00000000E+00
  4.00000000E+00  1.00000000E+00  2.00000000E+00  4.00000000E+00  1.00000000E+00
  2.00000000E+00  3.00000000E+00  4.00000000E+00  2.00000000E+00  4.00000000E+00
  1.00000000E+00  4.00000000E+00  2.00000000E+00  3.00000000E+00  1.00000000E+00
  2.00000000E+00  3.00000000E+00  4.00000000E+00  2.00000000E+00  4.00000000E+00
  1.00000000E+00  2.00000000E+00  2.00000000E+00  2.00000000E+00  2.00000000E+00
  2.00000000E+00
%FLAG DIHEDRAL_PHASE                                                            
%FORMAT(5E16.8)                                                                 
  0.00000000E+00  3.14159400E+00  0.00000000E+00  0.00000000E+00  0.00000000E+00
  0.00000000E+00  0.00000000E+00  3.14159400E+00  3.14159400E+00  3.14159400E+00
  3.14159400E+00  3.14159400E+00  3.14159400E+00  3.14159400E+00  3.14159400E+00
  3.14159400E+00  3.14159400E+00  0.00000000E+00  0.00000000E+00  0.00000000E+00
  3.14159400E+00  0.00000000E+00  0.00000000E+00  0.00000000E+00  3.14159400E+00
  0.00000000E+00  3.14159400E+00  0.00000000E+00  3.14159400E+00  3.14159400E+00
  3.14159400E+00  3.14159400E+00  0.00000000E+00  0.00000000E+00  0.00000000E+00
  0.00000000E+00  0.00000000E+00  3.14159400E+00  3.14159400E+00  3.14159400E+00
  3.14159400E+00  0.00000000E+00  0.00000000E+00  0.00000000E+00  0.00000000E+00
  3.14159400E+00  0.00000000E+00  0.00000000E+00  0.00000000E+00  3.14159400E+00
  0.00000000E+00  0.00000000E+00  0.00000000E+00  0.00000000E+00  0.00000000E+00
  3.14159400E+00  3.14159400E+00  3.14159400E+00  3.14159400E+00  3.14159400E+00
  3.14159400E+00  3.14159400E+00  0.00000000E+00  0.00000000E+00  3.14159400E+00
  3.14159400E+00  0.00000000E+00  3.14159400E+00  3.14159400E+00  0.00000000E+00
  3.14159400E+00  3.14159400E+00  3.14159400E+00  3.14159400E+00  0.00000000E+00
  0.00000000E+00  3.14159400E+00  3.14159400E+00  0.00000000E+00  3.14159400E+00
  3.14159400E+00  3.14159400E+00  0.00000000E+00  0.00000000E+00  0.00000000E+00
  3.14159400E+00  3.14159400E+00  3.14159400E+00  0.00000000E+00  3.14159400E+00
  0.00000000E+00  3.14159400E+00  0.00000000E+00  3.14159400E+00  0.00000000E+00
  0.00000000E+00  3.14159400E+00  0.00000000E+00  3.14159400E+00  3.14159400E+00
  3.14159400E+00  0.00000000E+00  3.14159400E+00  0.00000000E+00  0.00000000E+00
  0.00000000E+00  3.14159400E+00  0.00000000E+00  0.00000000E+00  0.00000000E+00
  3.14159400E+00  0.00000000E+00  3.14159400E+00  3.14159400E+00  0.00000000E+00
  0.00000000E+00  0.00000000E+00  0.00000000E+00  0.00000000E+00  0.00000000E+00
  0.00000000E+00  3.14159400E+00  0.00000000E+00  0.00000000E+00  3.14159400E+00
  0.00000000E+00  0.00000000E+00  3.14159400E+00  3.14159400E+00  3.14159400E+00
  0.00000000E+00  3.14159400E+00  3.14159400E+00  0.00000000E+00  0.00000000E+00
  3.14159400E+00  0.00000000E+00  3.14159400E+00  3.14159400E+00  3.14159400E+00
  3.14159400E+00  3.14159400E+00  0.00000000E+00  0.00000000E+00  0.00000000E+00
  3.14159400E+00  0.00000000E+00  0.00000000E+00  3.14159400E+00  3.14159400E+00
  3.14159400E+00  3.14159400E+00  3.14159400E+00  3.14159400E+00  3.14159400E+00
  3.14159400E+00
%FLAG SCEE_SCALE_FACTOR                                                         
%FORMAT(5E16.8)                                                                 
  1.20000000E+00  1.20000000E+00  1.20000000E+00  1.20000000E+00  1.20000000E+00
  1.20000000E+00  1.20000000E+00  1.20000000E+00  1.20000000E+00  1.20000000E+00
  1.20000000E+00  1.20000000E+00  1.20000000E+00  1.20000000E+00  1.20000000E+00
  1.20000000E+00  1.20000000E+00  1.20000000E+00  1.20000000E+00  1.20000000E+00
  1.20000000E+00  1.20000000E+00  1.20000000E+00  1.20000000E+00  1.20000000E+00
  1.20000000E+00  1.20000000E+00  1.20000000E+00  1.20000000E+00  1.20000000E+00
  1.20000000E+00  1.20000000E+00  1.20000000E+00  1.20000000E+00  1.20000000E+00
  1.20000000E+00  1.20000000E+00  1.20000000E+00  1.20000000E+00  1.20000000E+00
  1.20000000E+00  1.20000000E+00  1.20000000E+00  1.20000000E+00  1.20000000E+00
  1.20000000E+00  1.20000000E+00  1.20000000E+00  1.20000000E+00  1.20000000E+00
  1.20000000E+00  1.20000000E+00  1.20000000E+00  1.20000000E+00  1.20000000E+00
  1.20000000E+00  1.20000000E+00  1.20000000E+00  1.20000000E+00  1.20000000E+00
  1.20000000E+00  1.20000000E+00  1.20000000E+00  1.20000000E+00  1.20000000E+00
  1.20000000E+00  1.20000000E+00  1.20000000E+00  1.20000000E+00  1.20000000E+00
  1.20000000E+00  1.20000000E+00  1.20000000E+00  1.20000000E+00  1.20000000E+00
  1.20000000E+00  1.20000000E+00  1.20000000E+00  1.20000000E+00  1.20000000E+00
  1.20000000E+00  1.20000000E+00  1.20000000E+00  1.20000000E+00  1.20000000E+00
  1.20000000E+00  1.20000000E+00  1.20000000E+00  1.20000000E+00  1.20000000E+00
  1.20000000E+00  1.20000000E+00  1.20000000E+00  1.20000000E+00  1.20000000E+00
  1.20000000E+00  1.20000000E+00  1.20000000E+00  1.20000000E+00  1.20000000E+00
  1.20000000E+00  1.20000000E+00  1.20000000E+00  1.20000000E+00  1.20000000E+00
  1.20000000E+00  1.20000000E+00  1.20000000E+00  1.20000000E+00  1.20000000E+00
  1.20000000E+00  1.20000000E+00  1.20000000E+00  1.20000000E+00  1.20000000E+00
  1.20000000E+00  1.20000000E+00  1.20000000E+00  1.20000000E+00  1.20000000E+00
  1.20000000E+00  1.20000000E+00  1.20000000E+00  1.20000000E+00  1.20000000E+00
  1.20000000E+00  1.20000000E+00  1.20000000E+00  1.20000000E+00  1.20000000E+00
  1.20000000E+00  1.20000000E+00  1.20000000E+00  1.20000000E+00  1.20000000E+00
  1.20000000E+00  1.20000000E+00  1.20000000E+00  1.20000000E+00  1.20000000E+00
  1.20000000E+00  1.20000000E+00  1.20000000E+00  1.20000000E+00  1.20000000E+00
  1.20000000E+00  1.20000000E+00  1.20000000E+00  1.20000000E+00  1.20000000E+00
  1.20000000E+00  1.20000000E+00  0.00000000E+00  0.00000000E+00  0.00000000E+00
  0.00000000E+00
%FLAG SCNB_SCALE_FACTOR                                                         
%FORMAT(5E16.8)                                                                 
  2.00000000E+00  2.00000000E+00  2.00000000E+00  2.00000000E+00  2.00000000E+00
  2.00000000E+00  2.00000000E+00  2.00000000E+00  2.00000000E+00  2.00000000E+00
  2.00000000E+00  2.00000000E+00  2.00000000E+00  2.00000000E+00  2.00000000E+00
  2.00000000E+00  2.00000000E+00  2.00000000E+00  2.00000000E+00  2.00000000E+00
  2.00000000E+00  2.00000000E+00  2.00000000E+00  2.00000000E+00  2.00000000E+00
  2.00000000E+00  2.00000000E+00  2.00000000E+00  2.00000000E+00  2.00000000E+00
  2.00000000E+00  2.00000000E+00  2.00000000E+00  2.00000000E+00  2.00000000E+00
  2.00000000E+00  2.00000000E+00  2.00000000E+00  2.00000000E+00  2.00000000E+00
  2.00000000E+00  2.00000000E+00  2.00000000E+00  2.00000000E+00  2.00000000E+00
  2.00000000E+00  2.00000000E+00  2.00000000E+00  2.00000000E+00  2.00000000E+00
  2.00000000E+00  2.00000000E+00  2.00000000E+00  2.00000000E+00  2.00000000E+00
  2.00000000E+00  2.00000000E+00  2.00000000E+00  2.00000000E+00  2.00000000E+00
  2.00000000E+00  2.00000000E+00  2.00000000E+00  2.00000000E+00  2.00000000E+00
  2.00000000E+00  2.00000000E+00  2.00000000E+00  2.00000000E+00  2.00000000E+00
  2.00000000E+00  2.00000000E+00  2.00000000E+00  2.00000000E+00  2.00000000E+00
  2.00000000E+00  2.00000000E+00  2.00000000E+00  2.00000000E+00  2.00000000E+00
  2.00000000E+00  2.00000000E+00  2.00000000E+00  2.00000000E+00  2.00000000E+00
  2.00000000E+00  2.00000000E+00  2.00000000E+00  2.00000000E+00  2.00000000E+00
  2.00000000E+00  2.00000000E+00  2.00000000E+00  2.00000000E+00  2.00000000E+00
  2.00000000E+00  2.00000000E+00  2.00000000E+00  2.00000000E+00  2.00000000E+00
  2.00000000E+00  2.00000000E+00  2.00000000E+00  2.00000000E+00  2.00000000E+00
  2.00000000E+00  2.00000000E+00  2.00000000E+00  2.00000000E+00  2.00000000E+00
  2.00000000E+00  2.00000000E+00  2.00000000E+00  2.00000000E+00  2.00000000E+00
  2.00000000E+00  2.00000000E+00  2.00000000E+00  2.00000000E+00  2.00000000E+00
  2.00000000E+00  2.00000000E+00  2.00000000E+00  2.00000000E+00  2.00000000E+00
  2.00000000E+00  2.00000000E+00  2.00000000E+00  2.00000000E+00  2.00000000E+00
  2.00000000E+00  2.00000000E+00  2.00000000E+00  2.00000000E+00  2.00000000E+00
  2.00000000E+00  2.00000000E+00  2.00000000E+00  2.00000000E+00  2.00000000E+00
  2.00000000E+00  2.00000000E+00  2.00000000E+00  2.00000000E+00  2.00000000E+00
  2.00000000E+00  2.00000000E+00  2.00000000E+00  2.00000000E+00  2.00000000E+00
  2.00000000E+00  2.00000000E+00  0.00000000E+00  0.00000000E+00  0.00000000E+00
  0.00000000E+00
%FLAG SOLTY                                                                     
%FORMAT(5E16.8)                                                                 
  0.00000000E+00  0.00000000E+00  0.00000000E+00  0.00000000E+00  0.00000000E+00
  0.00000000E+00  0.00000000E+00  0.00000000E+00  0.00000000E+00  0.00000000E+00
  0.00000000E+00  0.00000000E+00  0.00000000E+00  0.00000000E+00  0.00000000E+00
  0.00000000E+00  0.00000000E+00  0.00000000E+00  0.00000000E+00  0.00000000E+00
  0.00000000E+00  0.00000000E+00  0.00000000E+00  0.00000000E+00  0.00000000E+00
  0.00000000E+00  0.00000000E+00  0.00000000E+00  0.00000000E+00  0.00000000E+00
  0.00000000E+00  0.00000000E+00  0.00000000E+00  0.00000000E+00  0.00000000E+00
  0.00000000E+00  0.00000000E+00  0.00000000E+00  0.00000000E+00
%FLAG LENNARD_JONES_ACOEF                                                       
%FORMAT(5E16.8)                                                                 
  7.94617769E+03  1.01372942E+05  1.04308023E+06  8.12662403E+04  8.53193737E+05
  6.96551276E+05  5.68021765E+04  6.37913494E+05  5.17507491E+05  3.76435470E+05
  7.93773615E+04  8.61458248E+05  7.01106848E+05  5.15491878E+05  7.02078680E+05
  9.47421632E+01  2.26409483E+03  1.71458823E+03  9.87857350E+02  1.52360475E+03
  1.34728399E-01  5.22955465E+03  7.06006146E+04  5.63013422E+04  3.86646725E+04
  5.45183252E+04  5.24570081E+01  3.39005767E+03  8.98799076E+04  9.24822270E+05
  7.56463928E+05  5.65590822E+05  7.63791460E+05  2.00740581E+03  6.25963552E+04
  8.19971662E+05  5.47737117E+03  7.18621074E+04  5.74592031E+04  3.98127143E+04
  5.58833643E+04  5.99788431E+01  3.57795711E+03  6.37148278E+04  3.76169105E+03
  9.33217616E+04  9.95480466E+05  8.11497350E+05  5.99897901E+05  8.14793385E+05
  1.88178855E+03  6.43853349E+04  8.82619071E+05  6.58473870E+04  9.44293233E+05
  7.41026906E+03  9.38067954E+04  7.52549148E+04  5.27277400E+04  7.35931098E+04
  9.04434904E+01  4.88692384E+03  8.31715633E+04  5.11317150E+03  8.64679274E+04
  6.90855956E+03  7.08225575E+04  7.91544157E+05  6.42430744E+05  4.68011805E+05
  6.40405042E+05  1.24900897E+03  4.82692694E+04  7.01803794E+05  4.96707306E+04
  7.44975864E+05  6.57310418E+04  5.81803229E+05  0.00000000E+00  0.00000000E+00
  0.00000000E+00  0.00000000E+00  0.00000000E+00  0.00000000E+00  0.00000000E+00
  0.00000000E+00  0.00000000E+00  0.00000000E+00  0.00000000E+00  0.00000000E+00
  0.00000000E+00  4.43530964E+03  5.98885646E+04  4.77581094E+04  3.27958584E+04
  4.62444096E+04  4.44659845E+01  2.87505342E+03  5.30987710E+04  3.03448006E+03
  5.46147253E+04  4.14474284E+03  4.09427581E+04  0.00000000E+00  2.43828624E+03
  1.00235148E+05  1.03184851E+06  8.43969952E+05  6.30925504E+05  8.52084164E+05
  2.23577481E+03  6.97998263E+04  9.14863930E+05  7.10513128E+04  9.84684600E+05
  9.27554496E+04  7.82881336E+05  0.00000000E+00  5.92092559E+04  1.02073671E+06
  1.42703904E+03  2.27401052E+04  1.78601506E+04  1.16505362E+04  1.68636880E+04
  8.45902425E+00  8.84544347E+02  2.01619733E+04  9.55000044E+02  2.01791425E+04
  1.34169202E+03  1.45985502E+04  0.00000000E+00  7.50063100E+02  2.24743442E+04
  2.01823541E+02  5.63419090E+04  6.47841731E+05  5.24402060E+05  3.78641356E+05
  5.20462539E+05  9.14858779E+02  3.81142515E+04  5.74393458E+05  3.93690817E+04
  6.06829342E+05  5.23449021E+04  4.71003287E+05  0.00000000E+00  3.23283631E+04
  6.40712560E+05  1.12780457E+04  3.79876399E+05  9.78427953E+03  1.24298247E+05
  9.96834078E+04  6.97666560E+04  9.74293067E+04  1.18150877E+02  6.44646734E+03
  1.10206083E+05  6.74812668E+03  1.14506480E+05  9.12301018E+03  8.69788452E+04
  0.00000000E+00  5.46742125E+03  1.22904242E+05  1.76494537E+03  6.92332636E+04
  1.20465683E+04  1.14473311E+06  9.95563331E+06  8.27439234E+06  6.52407029E+06
  8.57639600E+06  4.05705611E+04  8.32594410E+05  8.82692541E+06  8.29137544E+05
  9.77669063E+06  1.05299389E+06  8.06472025E+06  0.00000000E+00  7.06361584E+05
  9.85204211E+06  3.03899730E+05  6.74908715E+06  1.39907136E+06  8.29924504E+07
  8.78765379E+04  9.57153878E+05  7.78724870E+05  5.71910667E+05  7.79368039E+05
  1.66932268E+03  6.02986271E+04  8.48637713E+05  6.18379568E+04  9.04754248E+05
  8.14835231E+04  7.10552826E+05  0.00000000E+00  5.11473202E+04  9.46731090E+05
  1.86002079E+04  5.77196189E+05  1.07868966E+05  9.55632483E+06  8.65113123E+05
  0.00000000E+00  0.00000000E+00  0.00000000E+00  0.00000000E+00  0.00000000E+00
  0.00000000E+00  0.00000000E+00  0.00000000E+00  0.00000000E+00  0.00000000E+00
  0.00000000E+00  0.00000000E+00  0.00000000E+00  0.00000000E+00  0.00000000E+00
  0.00000000E+00  0.00000000E+00  0.00000000E+00  0.00000000E+00  0.00000000E+00
  0.00000000E+00  0.00000000E+00  0.00000000E+00  0.00000000E+00  0.00000000E+00
  0.00000000E+00  0.00000000E+00  0.00000000E+00  0.00000000E+00  0.00000000E+00
  0.00000000E+00  0.00000000E+00  0.00000000E+00  0.00000000E+00  0.00000000E+00
  0.00000000E+00  0.00000000E+00  0.00000000E+00  0.00000000E+00  0.00000000E+00
  0.00000000E+00  0.00000000E+00  0.00000000E+00
%FLAG LENNARD_JONES_BCOEF                                                       
%FORMAT(5E16.8)                                                                 
  2.57122925E+01  1.39078880E+02  6.75612247E+02  1.21392023E+02  5.95658566E+02
  5.24668528E+02  1.11953944E+02  5.68167388E+02  4.98871431E+02  4.69350655E+02
  1.36094315E+02  6.78964813E+02  5.97113873E+02  5.64804067E+02  6.77820248E+02
  2.33785449E+00  1.73073921E+01  1.46824710E+01  1.22938581E+01  1.57004457E+01
  7.34107347E-02  2.08590256E+01  1.16065835E+02  1.01040256E+02  9.23664132E+01
  1.12788003E+02  1.73959275E+00  1.67944276E+01  1.23310980E+02  5.99015525E+02
  5.28126496E+02  5.03752097E+02  6.01987997E+02  1.53451874E+01  1.02907011E+02
  5.31102864E+02  1.96722815E+01  1.07908863E+02  9.40636541E+01  8.63723599E+01
  1.05230082E+02  1.71416196E+00  1.58996004E+01  9.56748258E+01  1.50233639E+01
  1.48987394E+02  7.36907417E+02  6.48597119E+02  6.15165511E+02  7.37244936E+02
  1.76168249E+01  1.23751804E+02  6.53361429E+02  1.15327881E+02  8.01323529E+02
  2.32899892E+01  1.25489661E+02  1.09570372E+02  1.01173582E+02  1.22913863E+02
  2.14252117E+00  1.89134207E+01  1.11262422E+02  1.78280753E+01  1.34516705E+02
  2.10929191E+01  1.36896727E+02  6.93079947E+02  6.08686716E+02  5.73100668E+02
  6.89389438E+02  1.51381989E+01  1.13016701E+02  6.14502845E+02  1.05648788E+02
  7.50714425E+02  1.23703833E+02  6.99746810E+02  0.00000000E+00  0.00000000E+00
  0.00000000E+00  0.00000000E+00  0.00000000E+00  0.00000000E+00  0.00000000E+00
  0.00000000E+00  0.00000000E+00  0.00000000E+00  0.00000000E+00  0.00000000E+00
  0.00000000E+00  1.77023375E+01  9.85097219E+01  8.57562161E+01  7.83922976E+01
  9.57256348E+01  1.47593342E+00  1.42525182E+01  8.73413012E+01  1.34932874E+01
  1.05031585E+02  1.60512210E+01  9.59185913E+01  0.00000000E+00  1.20953369E+01
  1.37787728E+02  6.69494459E+02  5.90251928E+02  5.62969425E+02  6.72777963E+02
  1.71355763E+01  1.14981426E+02  5.93591333E+02  1.06903901E+02  7.30206155E+02
  1.24325688E+02  6.86742760E+02  0.00000000E+00  9.75893223E+01  6.63431737E+02
  1.01563736E+01  6.13981767E+01  5.30440533E+01  4.72594809E+01  5.84691813E+01
  6.51126010E-01  7.99614292E+00  5.44372326E+01  7.65648470E+00  6.45756063E+01
  9.23714573E+00  5.79323581E+01  0.00000000E+00  6.78541827E+00  6.08139360E+01
  3.56012899E+00  1.22044000E+02  6.26720080E+02  5.49675335E+02  5.15240418E+02
  6.21191325E+02  1.29497639E+01  1.00379343E+02  5.55666448E+02  9.40124296E+01
  6.77220874E+02  1.10338858E+02  6.29300710E+02  0.00000000E+00  8.51921330E+01
  6.20970728E+02  5.08951803E+01  5.64885984E+02  3.11634667E+01  1.68210204E+02
  1.46847372E+02  1.35519110E+02  1.64685793E+02  2.85156961E+00  2.52954396E+01
  1.49139575E+02  2.38495359E+01  1.80257261E+02  2.82254616E+01  1.65704292E+02
  0.00000000E+00  2.14674068E+01  1.66649352E+02  1.23369002E+01  1.47767093E+02
  3.77687565E+01  7.37618163E+02  3.29421866E+03  2.92766201E+03  2.86770216E+03
  3.38113012E+03  1.15629635E+02  6.29066019E+02  2.92074060E+03  5.78495189E+02
  3.64478415E+03  6.63564343E+02  3.49156180E+03  0.00000000E+00  5.33949270E+02
  3.26498708E+03  3.54244990E+02  3.19257412E+03  8.90674642E+02  1.50112408E+04
  1.52923989E+02  7.64308217E+02  6.72054626E+02  6.35328732E+02  7.62676627E+02
  1.75506604E+01  1.26675569E+02  6.77655696E+02  1.18215302E+02  8.29661356E+02
  1.38122581E+02  7.75502024E+02  0.00000000E+00  1.07512157E+02  7.57340751E+02
  6.55778432E+01  6.98618155E+02  1.85057667E+02  3.81155700E+03  8.58130004E+02
  0.00000000E+00  0.00000000E+00  0.00000000E+00  0.00000000E+00  0.00000000E+00
  0.00000000E+00  0.00000000E+00  0.00000000E+00  0.00000000E+00  0.00000000E+00
  0.00000000E+00  0.00000000E+00  0.00000000E+00  0.00000000E+00  0.00000000E+00
  0.00000000E+00  0.00000000E+00  0.00000000E+00  0.00000000E+00  0.00000000E+00
  0.00000000E+00  0.00000000E+00  0.00000000E+00  0.00000000E+00  0.00000000E+00
  0.00000000E+00  0.00000000E+00  0.00000000E+00  0.00000000E+00  0.00000000E+00
  0.00000000E+00  0.00000000E+00  0.00000000E+00  0.00000000E+00  0.00000000E+00
  0.00000000E+00  0.00000000E+00  0.00000000E+00  0.00000000E+00  0.00000000E+00
  0.00000000E+00  0.00000000E+00  0.00000000E+00
%FLAG BONDS_INC_HYDROGEN                                                        
%FORMAT(10I8)                                                                   
       3       6       3       3       9       3       0       3       3      75
      78       5      69      72       5      63      66       5      57      60
       5      48      51      10      42      45      12      30      33       3
      30      36       3      24      27      17      18      21      20     120
     123       3     120     126       3     120     129       3     108     111
       3     108     114       3     108     117       3     102     105      22
      96      99      17      90      93      20     168     171      25     156
     159       3     156     162       3     156     165       3     150     153
      26     144     147      17     138     141      20     219     222      28
     210     213      30     204     207      10     192     195       3     192
     198       3     186     189      17     180     183      20     288     291
      36     288     294      36     279     282      36     279     285      36
     270     273      36     261     264      38     261     267      38     252
     255      40     252     258      40     243     246      40     243     249
      40     237     240      17     231     234      20     333     375      20
     330     369      43     330     372      43     327     366      46     324
     363      46     321     357      43     321     360      43     318     351
      43     318     354      43     315     345      43     315     348      43
     312     336      43     312     339      43     312     342      43     390
     393       3     390     396       3     390     399       3     384     387
      17     378     381      20     414     417      17     414     420      17
     408     411      20     468     471       3     468     474       3     468
     477       3     456     459       3     456     462       3     456     465
       3     450     453      22     441     444      51     441     447      51
     435     438      17     429     432      20     504     528      20     501
     522      43     501     525      43     498     516      43     498     519
      43     495     507      43     495     510      43     495     513      43
     552     555      25     543     546      54     543     549      54     537
     540      17     531     534      20     621     624      36     621     627
      36     612     615      36     612     618      36     603     606      36
     594     597      38     594     600      38     585     588      40     585
     591      40     576     579      40     576     582      40     570     573
      17     564     567      20     657     660      25     648     651      54
     648     654      54     642     645      17     636     639      20     675
     678      17     675     681      17     669     672      20     696     699
      17     696     702      17     690     693      20     741     744       3
     741     747       3     741     750       3     729     732       3     729
     735       3     729     738       3     723     726      22     717     720
      17     711     714      20     789     792       3     789     795       3
     789     798       3     777     780       3     777     783       3     777
     786       3     771     774      22     765     768      17     759     762
      20     855     858      56     855     861      56     855     864      56
     846     849      57     846     852      57     837     840      40     837
     843      40     828     831      40     828     834      40     819     822
      40     819     825      40     813     816      17     807     810      20
     900     903      20     900     906      20     885     888      51     885
     891      51     879     882      17     873     876      20     942     945
      20     942     948      20     927     930      51     927     933      51
     921     924      17     915     918      20    1005    1008       5     999
    1002       5     993     996       5     987     990       5     981     984
       5     969     972       3     969     975       3     963     966      17
     957     960      20    1047    1050       3    1047    1053       3    1047
    1056       3    1035    1038       3    1035    1041       3    1035    1044
       3    1029    1032      22    1023    1026      17    1017    1020      20
    1095    1098      17    1086    1089       3    1086    1092       3    1077
    1080       3    1077    1083       3    1068    1071      62    1068    1074
      62    1137    1140      25    1125    1128       3    1125    1131       3
    1125    1134       3    1119    1122      26    1113    1116      17    1107
    1110      20    1161    1164      51    1161    1167      51    1155    1158
      17    1149    1152      20    1215    1218       3    1215    1221       3
    1215    1224       3    1203    1206       3    1203    1209       3    1203
    1212       3    1197    1200      22    1191    1194      17    1185    1188
      20    1239    1242      17    1239    1245      17    1233    1236      20
    1284    1287      17    1275    1278       3    1275    1281       3    1266
    1269       3    1266    1272       3    1257    1260      62    1257    1263
      62    1344    1347       5    1338    1341       5    1332    1335       5
    1326    1329       5    1320    1323       5    1308    1311       3    1308
    1314       3    1302    1305      17    1296    1299      20    1368    1371
       3    1368    1374       3    1368    1377       3    1362    1365      17
    1356    1359      20    1434    1437       5    1428    1431       5    1422
    1425       5    1416    1419       5    1410    1413       5    1398    1401
       3    1398    1404       3    1392    1395      17    1386    1389      20
    1446    1449      20    1446    1452      20    1584    1581      66    1587
    1581      66    1587    1584      67    1596    1593      66    1599    1593
      66    1599    1596      67    1608    1605      66    1611    1605      66
    1611    1608      67    1620    1617      66    1623    1617      66    1623
    1620      67    1632    1629      66    1635    1629      66    1635    1632
      67    1644    1641      66    1647    1641      66    1647    1644      67
    1656    1653      66    1659    1653      66    1659    1656      67    1668
    1665      66    1671    1665      66    1671    1668      67    1680    1677
      66    1683    1677      66    1683    1680      67    1692    1689      66
    1695    1689      66    1695    1692      67    1704    1701      66    1707
    1701      66    1707    1704      67    1716    1713      66    1719    1713
      66    1719    1716      67    1728    1725      66    1731    1725      66
    1731    1728      67    1740    1737      66    1743    1737      66    1743
    1740      67    1752    1749      66    1755    1749      66    1755    1752
      67    1764    1761      66    1767    1761      66    1767    1764      67
    1776    1773      66    1779    1773      66    1779    1776      67    1788
    1785      66    1791    1785      66    1791    1788      67    1800    1797
      66    1803    1797      66    1803    1800      67    1812    1809      66
    1815    1809      66    1815    1812      67    1824    1821      66    1827
    1821      66    1827    1824      67    1836    1833      66    1839    1833
      66    1839    1836      67    1848    1845      66    1851    1845      66
    1851    1848      67    1860    1857      66    1863    1857      66    1863
    1860      67    1872    1869      66    1875    1869      66    1875    1872
      67    1884    1881      66    1887    1881      66    1887    1884      67
    1896    1893      66    1899    1893      66    1899    1896      67    1908
    1905      66    1911    1905      66    1911    1908      67    1920    1917
      66    1923    1917      66    1923    1920      67    1932    1929      66
    1935    1929      66    1935    1932      67    1944    1941      66    1947
    1941      66    1947    1944      67    1956    1953      66    1959    1953
      66    1959    1956      67    1968    1965      66    1971    1965      66
    1971    1968      67    1980    1977      66    1983    1977      66    1983
    1980      67    1992    1989      66    1995    1989      66    1995    1992
      67    2004    2001      66    2007    2001      66    2007    2004      67
    2016    2013      66    2019    2013      66    2019    2016      67    2028
    2025      66    2031    2025      66    2031    2028      67    2040    2037
      66    2043    2037      66    2043    2040      67    2052    2049      66
    2055    2049      66    2055    2052      67    2064    2061      66    2067
    2061      66    2067    2064      67    2076    2073      66    2079    2073
      66    2079    2076      67    2088    2085      66    2091    2085      66
    2091    2088      67    2100    2097      66    2103    2097      66    2103
    2100      67    2112    2109      66    2115    2109      66    2115    2112
      67    2124    2121      66    2127    2121      66    2127    2124      67
    2136    2133      66    2139    2133      66    2139    2136      67    2148
    2145      66    2151    2145      66    2151    2148      67    2160    2157
      66    2163    2157      66    2163    2160      67    2172    2169      66
    2175    2169      66    2175    2172      67    2184    2181      66    2187
    2181      66    2187    2184      67    2196    2193      66    2199    2193
      66    2199    2196      67    2208    2205      66    2211    2205      66
    2211    2208      67    2220    2217      66    2223    2217      66    2223
    2220      67    2232    2229      66    2235    2229      66    2235    2232
      67    2244    2241      66    2247    2241      66    2247    2244      67
    2256    2253      66    2259    2253      66    2259    2256      67    2268
    2265      66    2271    2265      66    2271    2268      67    2280    2277
      66    2283    2277      66    2283    2280      67    2292    2289      66
    2295    2289      66    2295    2292      67    2304    2301      66    2307
    2301      66    2307    2304      67    2316    2313      66    2319    2313
      66    2319    2316      67    2328    2325      66    2331    2325      66
    2331    2328      67    2340    2337      66    2343    2337      66    2343
    2340      67    2352    2349      66    2355    2349      66    2355    2352
      67    2364    2361      66    2367    2361      66    2367    2364      67
    2376    2373      66    2379    2373      66    2379    2376      67    2388
    2385      66    2391    2385      66    2391    2388      67    2400    2397
      66    2403    2397      66    2403    2400      67    2412    2409      66
    2415    2409      66    2415    2412      67    2424    2421      66    2427
    2421      66    2427    2424      67    2436    2433      66    2439    2433
      66    2439    2436      67    2448    2445      66    2451    2445      66
    2451    2448      67    2460    2457      66    2463    2457      66    2463
    2460      67    2472    2469      66    2475    2469      66    2475    2472
      67    2484    2481      66    2487    2481      66    2487    2484      67
    2496    2493      66    2499    2493      66    2499    2496      67    2508
    2505      66    2511    2505      66    2511    2508      67    2520    2517
      66    2523    2517      66    2523    2520      67    2532    2529      66
    2535    2529      66    2535    2532      67    2544    2541      66    2547
    2541      66    2547    2544      67    2556    2553      66    2559    2553
      66    2559    2556      67    2568    2565      66    2571    2565      66
    2571    2568      67    2580    2577      66    2583    2577      66    2583
    2580      67    2592    2589      66    2595    2589      66    2595    2592
      67    2604    2601      66    2607    2601      66    2607    2604      67
    2616    2613      66    2619    2613      66    2619    2616      67    2628
    2625      66    2631    2625      66    2631    2628      67    2640    2637
      66    2643    2637      66    2643    2640      67    2652    2649      66
    2655    2649      66    2655    2652      67    2664    2661      66    2667
    2661      66    2667    2664      67    2676    2673      66    2679    2673
      66    2679    2676      67    2688    2685      66    2691    2685      66
    2691    2688      67    2700    2697      66    2703    2697      66    2703
    2700      67    2712    2709      66    2715    2709      66    2715    2712
      67    2724    2721      66    2727    2721      66    2727    2724      67
    2736    2733      66    2739    2733      66    2739    2736      67    2748
    2745      66    2751    2745      66    2751    2748      67    2760    2757
      66    2763    2757      66    2763    2760      67    2772    2769      66
    2775    2769      66    2775    2772      67    2784    2781      66    2787
    2781      66    2787    2784      67    2796    2793      66    2799    2793
      66    2799    2796      67    2808    2805      66    2811    2805      66
    2811    2808      67    2820    2817      66    2823    2817      66    2823
    2820      67    2832    2829      66    2835    2829      66    2835    2832
      67    2844    2841      66    2847    2841      66    2847    2844      67
    2856    2853      66    2859    2853      66    2859    2856      67    2868
    2865      66    2871    2865      66    2871    2868      67    2880    2877
      66    2883    2877      66    2883    2880      67    2892    2889      66
    2895    2889      66    2895    2892      67    2904    2901      66    2907
    2901      66    2907    2904      67    2916    2913      66    2919    2913
      66    2919    2916      67    2928    2925      66    2931    2925      66
    2931    2928      67    2940    2937      66    2943    2937      66    2943
    2940      67    2952    2949      66    2955    2949      66    2955    2952
      67    2964    2961      66    2967    2961      66    2967    2964      67
    2976    2973      66    2979    2973      66    2979    2976      67    2988
    2985      66    2991    2985      66    2991    2988      67    3000    2997
      66    3003    2997      66    3003    3000      67    3012    3009      66
    3015    3009      66    3015    3012      67    3024    3021      66    3027
    3021      66    3027    3024      67    3036    3033      66    3039    3033
      66    3039    3036      67    3048    3045      66    3051    3045      66
    3051    3048      67    3060    3057      66    3063    3057      66    3063
    3060      67    3072    3069      66    3075    3069      66    3075    3072
      67    3084    3081      66    3087    3081      66    3087    3084      67
    3096    3093      66    3099    3093      66    3099    3096      67    3108
    3105      66    3111    3105      66    3111    3108      67    3120    3117
      66    3123    3117      66    3123    3120      67    3132    3129      66
    3135    3129      66    3135    3132      67    3144    3141      66    3147
    3141      66    3147    3144      67    3156    3153      66    3159    3153
      66    3159    3156      67    3168    3165      66    3171    3165      66
    3171    3168      67    3180    3177      66    3183    3177      66    3183
    3180      67    3192    3189      66    3195    3189      66    3195    3192
      67    3204    3201      66    3207    3201      66    3207    3204      67
    3216    3213      66    3219    3213      66    3219    3216      67    3228
    3225      66    3231    3225      66    3231    3228      67    3240    3237
      66    3243    3237      66    3243    3240      67    3252    3249      66
    3255    3249      66    3255    3252      67    3264    3261      66    3267
    3261      66    3267    3264      67    3276    3273      66    3279    3273
      66    3279    3276      67    3288    3285      66    3291    3285      66
    3291    3288      67    3300    3297      66    3303    3297      66    3303
    3300      67    3312    3309      66    3315    3309      66    3315    3312
      67    3324    3321      66    3327    3321      66    3327    3324      67
    3336    3333      66    3339    3333      66    3339    3336      67    3348
    3345      66    3351    3345      66    3351    3348      67    3360    3357
      66    3363    3357      66    3363    3360      67    3372    3369      66
    3375    3369      66    3375    3372      67    3384    3381      66    3387
    3381      66    3387    3384      67    3396    3393      66    3399    3393
      66    3399    3396      67    3408    3405      66    3411    3405      66
    3411    3408      67    3420    3417      66    3423    3417      66    3423
    3420      67    3432    3429      66    3435    3429      66    3435    3432
      67    3444    3441      66    3447    3441      66    3447    3444      67
    3456    3453      66    3459    3453      66    3459    3456      67    3468
    3465      66    3471    3465      66    3471    3468      67    3480    3477
      66    3483    3477      66    3483    3480      67    3492    3489      66
    3495    3489      66    3495    3492      67    3504    3501      66    3507
    3501      66    3507    3504      67    3516    3513      66    3519    3513
      66    3519    3516      67    3528    3525      66    3531    3525      66
    3531    3528      67    3540    3537      66    3543    3537      66    3543
    3540      67    3552    3549      66    3555    3549      66    3555    3552
      67    3564    3561      66    3567    3561      66    3567    3564      67
    3576    3573      66    3579    3573      66    3579    3576      67    3588
    3585      66    3591    3585      66    3591    3588      67    3600    3597
      66    3603    3597      66    3603    3600      67    3612    3609      66
    3615    3609      66    3615    3612      67    3624    3621      66    3627
    3621      66    3627    3624      67    3636    3633      66    3639    3633
      66    3639    3636      67    3648    3645      66    3651    3645      66
    3651    3648      67    3660    3657      66    3663    3657      66    3663
    3660      67    3672    3669      66    3675    3669      66    3675    3672
      67    3684    3681      66    3687    3681      66    3687    3684      67
    3696    3693      66    3699    3693      66    3699    3696      67    3708
    3705      66    3711    3705      66    3711    3708      67    3720    3717
      66    3723    3717      66    3723    3720      67    3732    3729      66
    3735    3729      66    3735    3732      67    3744    3741      66    3747
    3741      66    3747    3744      67    3756    3753      66    3759    3753
      66    3759    3756      67    3768    3765      66    3771    3765      66
    3771    3768      67    3780    3777      66    3783    3777      66    3783
    3780      67    3792    3789      66    3795    3789      66    3795    3792
      67    3804    3801      66    3807    3801      66    3807    3804      67
    3816    3813      66    3819    3813      66    3819    3816      67    3828
    3825      66    3831    3825      66    3831    3828      67    3840    3837
      66    3843    3837      66    3843    3840      67    3852    3849      66
    3855    3849      66    3855    3852      67    3864    3861      66    3867
    3861      66    3867    3864      67    3876    3873      66    3879    3873
      66    3879    3876      67    3888    3885      66    3891    3885      66
    3891    3888      67    3900    3897      66    3903    3897      66    3903
    3900      67    3912    3909      66    3915    3909      66    3915    3912
      67    3924    3921      66    3927    3921      66    3927    3924      67
    3936    3933      66    3939    3933      66    3939    3936      67    3948
    3945      66    3951    3945      66    3951    3948      67    3960    3957
      66    3963    3957      66    3963    3960      67    3972    3969      66
    3975    3969      66    3975    3972      67    3984    3981      66    3987
    3981      66    3987    3984      67    3996    3993      66    3999    3993
      66    3999    3996      67    4008    4005      66    4011    4005      66
    4011    4008      67    4020    4017      66    4023    4017      66    4023
    4020      67    4032    4029      66    4035    4029      66    4035    4032
      67    4044    4041      66    4047    4041      66    4047    4044      67
    4056    4053      66    4059    4053      66    4059    4056      67    4068
    4065      66    4071    4065      66    4071    4068      67    4080    4077
      66    4083    4077      66    4083    4080      67    4092    4089      66
    4095    4089      66    4095    4092      67    4104    4101      66    4107
    4101      66    4107    4104      67    4116    4113      66    4119    4113
      66    4119    4116      67    4128    4125      66    4131    4125      66
    4131    4128      67    4140    4137      66    4143    4137      66    4143
    4140      67    4152    4149      66    4155    4149      66    4155    4152
      67    4164    4161      66    4167    4161      66    4167    4164      67
    4176    4173      66    4179    4173      66    4179    4176      67    4188
    4185      66    4191    4185      66    4191    4188      67    4200    4197
      66    4203    4197      66    4203    4200      67    4212    4209      66
    4215    4209      66    4215    4212      67    4224    4221      66    4227
    4221      66    4227    4224      67    4236    4233      66    4239    4233
      66    4239    4236      67    4248    4245      66    4251    4245      66
    4251    4248      67    4260    4257      66    4263    4257      66    4263
    4260      67    4272    4269      66    4275    4269      66    4275    4272
      67    4284    4281      66    4287    4281      66    4287    4284      67
    4296    4293      66    4299    4293      66    4299    4296      67    4308
    4305      66    4311    4305      66    4311    4308      67    4320    4317
      66    4323    4317      66    4323    4320      67    4332    4329      66
    4335    4329      66    4335    4332      67    4344    4341      66    4347
    4341      66    4347    4344      67    4356    4353      66    4359    4353
      66    4359    4356      67    4368    4365      66    4371    4365      66
    4371    4368      67    4380    4377      66    4383    4377      66    4383
    4380      67    4392    4389      66    4395    4389      66    4395    4392
      67    4404    4401      66    4407    4401      66    4407    4404      67
    4416    4413      66    4419    4413      66    4419    4416      67    4428
    4425      66    4431    4425      66    4431    4428      67    4440    4437
      66    4443    4437      66    4443    4440      67    4452    4449      66
    4455    4449      66    4455    4452      67    4464    4461      66    4467
    4461      66    4467    4464      67    4476    4473      66    4479    4473
      66    4479    4476      67    4488    4485      66    4491    4485      66
    4491    4488      67    4500    4497      66    4503    4497      66    4503
    4500      67    4512    4509      66    4515    4509      66    4515    4512
      67    4524    4521      66    4527    4521      66    4527    4524      67
    4536    4533      66    4539    4533      66    4539    4536      67    4548
    4545      66    4551    4545      66    4551    4548      67    4560    4557
      66    4563    4557      66    4563    4560      67    4572    4569      66
    4575    4569      66    4575    4572      67    4584    4581      66    4587
    4581      66    4587    4584      67    4596    4593      66    4599    4593
      66    4599    4596      67    4608    4605      66    4611    4605      66
    4611    4608      67    4620    4617      66    4623    4617      66    4623
    4620      67    4632    4629      66    4635    4629      66    4635    4632
      67    4644    4641      66    4647    4641      66    4647    4644      67
    4656    4653      66    4659    4653      66    4659    4656      67    4668
    4665      66    4671    4665      66    4671    4668      67    4680    4677
      66    4683    4677      66    4683    4680      67    4692    4689      66
    4695    4689      66    4695    4692      67    4704    4701      66    4707
    4701      66    4707    4704      67    4716    4713      66    4719    4713
      66    4719    4716      67    4728    4725      66    4731    4725      66
    4731    4728      67    4740    4737      66    4743    4737      66    4743
    4740      67    4752    4749      66    4755    4749      66    4755    4752
      67    4764    4761      66    4767    4761      66    4767    4764      67
    4776    4773      66    4779    4773      66    4779    4776      67    4788
    4785      66    4791    4785      66    4791    4788      67    4800    4797
      66    4803    4797      66    4803    4800      67    4812    4809      66
    4815    4809      66    4815    4812      67    4824    4821      66    4827
    4821      66    4827    4824      67    4836    4833      66    4839    4833
      66    4839    4836      67    4848    4845      66    4851    4845      66
    4851    4848      67    4860    4857      66    4863    4857      66    4863
    4860      67    4872    4869      66    4875    4869      66    4875    4872
      67    4884    4881      66    4887    4881      66    4887    4884      67
    4896    4893      66    4899    4893      66    4899    4896      67    4908
    4905      66    4911    4905      66    4911    4908      67    4920    4917
      66    4923    4917      66    4923    4920      67    4932    4929      66
    4935    4929      66    4935    4932      67    4944    4941      66    4947
    4941      66    4947    4944      67    4956    4953      66    4959    4953
      66    4959    4956      67    4968    4965      66    4971    4965      66
    4971    4968      67    4980    4977      66    4983    4977      66    4983
    4980      67    4992    4989      66    4995    4989      66    4995    4992
      67    5004    5001      66    5007    5001      66    5007    5004      67
    5016    5013      66    5019    5013      66    5019    5016      67    5028
    5025      66    5031    5025      66    5031    5028      67    5040    5037
      66    5043    5037      66    5043    5040      67    5052    5049      66
    5055    5049      66    5055    5052      67    5064    5061      66    5067
    5061      66    5067    5064      67    5076    5073      66    5079    5073
      66    5079    5076      67    5088    5085      66    5091    5085      66
    5091    5088      67    5100    5097      66    5103    5097      66    5103
    5100      67    5112    5109      66    5115    5109      66    5115    5112
      67    5124    5121      66    5127    5121      66    5127    5124      67
    5136    5133      66    5139    5133      66    5139    5136      67    5148
    5145      66    5151    5145      66    5151    5148      67    5160    5157
      66    5163    5157      66    5163    5160      67    5172    5169      66
    5175    5169      66    5175    5172      67    5184    5181      66    5187
    5181      66    5187    5184      67    5196    5193      66    5199    5193
      66    5199    5196      67    5208    5205      66    5211    5205      66
    5211    5208      67    5220    5217      66    5223    5217      66    5223
    5220      67    5232    5229      66    5235    5229      66    5235    5232
      67    5244    5241      66    5247    5241      66    5247    5244      67
    5256    5253      66    5259    5253      66    5259    5256      67    5268
    5265      66    5271    5265      66    5271    5268      67    5280    5277
      66    5283    5277      66    5283    5280      67    5292    5289      66
    5295    5289      66    5295    5292      67    5304    5301      66    5307
    5301      66    5307    5304      67    5316    5313      66    5319    5313
      66    5319    5316      67    5328    5325      66    5331    5325      66
    5331    5328      67    5340    5337      66    5343    5337      66    5343
    5340      67    5352    5349      66    5355    5349      66    5355    5352
      67    5364    5361      66    5367    5361      66    5367    5364      67
    5376    5373      66    5379    5373      66    5379    5376      67    5388
    5385      66    5391    5385      66    5391    5388      67    5400    5397
      66    5403    5397      66    5403    5400      67    5412    5409      66
    5415    5409      66    5415    5412      67    5424    5421      66    5427
    5421      66    5427    5424      67    5436    5433      66    5439    5433
      66    5439    5436      67    5448    5445      66    5451    5445      66
    5451    5448      67    5460    5457      66    5463    5457      66    5463
    5460      67    5472    5469      66    5475    5469      66    5475    5472
      67    5484    5481      66    5487    5481      66    5487    5484      67
    5496    5493      66    5499    5493      66    5499    5496      67    5508
    5505      66    5511    5505      66    5511    5508      67    5520    5517
      66    5523    5517      66    5523    5520      67    5532    5529      66
    5535    5529      66    5535    5532      67    5544    5541      66    5547
    5541      66    5547    5544      67    5556    5553      66    5559    5553
      66    5559    5556      67    5568    5565      66    5571    5565      66
    5571    5568      67    5580    5577      66    5583    5577      66    5583
    5580      67    5592    5589      66    5595    5589      66    5595    5592
      67    5604    5601      66    5607    5601      66    5607    5604      67
    5616    5613      66    5619    5613      66    5619    5616      67    5628
    5625      66    5631    5625      66    5631    5628      67    5640    5637
      66    5643    5637      66    5643    5640      67    5652    5649      66
    5655    5649      66    5655    5652      67    5664    5661      66    5667
    5661      66    5667    5664      67    5676    5673      66    5679    5673
      66    5679    5676      67    5688    5685      66    5691    5685      66
    5691    5688      67    5700    5697      66    5703    5697      66    5703
    5700      67    5712    5709      66    5715    5709      66    5715    5712
      67    5724    5721      66    5727    5721      66    5727    5724      67
    5736    5733      66    5739    5733      66    5739    5736      67    5748
    5745      66    5751    5745      66    5751    5748      67    5760    5757
      66    5763    5757      66    5763    5760      67    5772    5769      66
    5775    5769      66    5775    5772      67    5784    5781      66    5787
    5781      66    5787    5784      67    5796    5793      66    5799    5793
      66    5799    5796      67    5808    5805      66    5811    5805      66
    5811    5808      67    5820    5817      66    5823    5817      66    5823
    5820      67    5832    5829      66    5835    5829      66    5835    5832
      67    5844    5841      66    5847    5841      66    5847    5844      67
    5856    5853      66    5859    5853      66    5859    5856      67    5868
    5865      66    5871    5865      66    5871    5868      67    5880    5877
      66    5883    5877      66    5883    5880      67    5892    5889      66
    5895    5889      66    5895    5892      67    5904    5901      66    5907
    5901      66    5907    5904      67    5916    5913      66    5919    5913
      66    5919    5916      67    5928    5925      66    5931    5925      66
    5931    5928      67    5940    5937      66    5943    5937      66    5943
    5940      67    5952    5949      66    5955    5949      66    5955    5952
      67    5964    5961      66    5967    5961      66    5967    5964      67
    5976    5973      66    5979    5973      66    5979    5976      67    5988
    5985      66    5991    5985      66    5991    5988      67    6000    5997
      66    6003    5997      66    6003    6000      67    6012    6009      66
    6015    6009      66    6015    6012      67    6024    6021      66    6027
    6021      66    6027    6024      67    6036    6033      66    6039    6033
      66    6039    6036      67    6048    6045      66    6051    6045      66
    6051    6048      67    6060    6057      66    6063    6057      66    6063
    6060      67    6072    6069      66    6075    6069      66    6075    6072
      67    6084    6081      66    6087    6081      66    6087    6084      67
    6096    6093      66    6099    6093      66    6099    6096      67    6108
    6105      66    6111    6105      66    6111    6108      67    6120    6117
      66    6123    6117      66    6123    6120      67    6132    6129      66
    6135    6129      66    6135    6132      67    6144    6141      66    6147
    6141      66    6147    6144      67    6156    6153      66    6159    6153
      66    6159    6156      67    6168    6165      66    6171    6165      66
    6171    6168      67    6180    6177      66    6183    6177      66    6183
    6180      67    6192    6189      66    6195    6189      66    6195    6192
      67    6204    6201      66    6207    6201      66    6207    6204      67
    6216    6213      66    6219    6213      66    6219    6216      67    6228
    6225      66    6231    6225      66    6231    6228      67    6240    6237
      66    6243    6237      66    6243    6240      67    6252    6249      66
    6255    6249      66    6255    6252      67    6264    6261      66    6267
    6261      66    6267    6264      67    6276    6273      66    6279    6273
      66    6279    6276      67    6288    6285      66    6291    6285      66
    6291    6288      67    6300    6297      66    6303    6297      66    6303
    6300      67    6312    6309      66    6315    6309      66    6315    6312
      67    6324    6321      66    6327    6321      66    6327    6324      67
    6336    6333      66    6339    6333      66    6339    6336      67    6348
    6345      66    6351    6345      66    6351    6348      67    6360    6357
      66    6363    6357      66    6363    6360      67    6372    6369      66
    6375    6369      66    6375    6372      67    6384    6381      66    6387
    6381      66    6387    6384      67    6396    6393      66    6399    6393
      66    6399    6396      67    6408    6405      66    6411    6405      66
    6411    6408      67    6420    6417      66    6423    6417      66    6423
    6420      67    6432    6429      66    6435    6429      66    6435    6432
      67    6444    6441      66    6447    6441      66    6447    6444      67
    6456    6453      66    6459    6453      66    6459    6456      67    6468
    6465      66    6471    6465      66    6471    6468      67    6480    6477
      66    6483    6477      66    6483    6480      67    6492    6489      66
    6495    6489      66    6495    6492      67    6504    6501      66    6507
    6501      66    6507    6504      67    6516    6513      66    6519    6513
      66    6519    6516      67    6528    6525      66    6531    6525      66
    6531    6528      67    6540    6537      66    6543    6537      66    6543
    6540      67    6552    6549      66    6555    6549      66    6555    6552
      67    6564    6561      66    6567    6561      66    6567    6564      67
    6576    6573      66    6579    6573      66    6579    6576      67    6588
    6585      66    6591    6585      66    6591    6588      67    6600    6597
      66    6603    6597      66    6603    6600      67    6612    6609      66
    6615    6609      66    6615    6612      67    6624    6621      66    6627
    6621      66    6627    6624      67    6636    6633      66    6639    6633
      66    6639    6636      67    6648    6645      66    6651    6645      66
    6651    6648      67    6660    6657      66    6663    6657      66    6663
    6660      67    6672    6669      66    6675    6669      66    6675    6672
      67    6684    6681      66    6687    6681      66    6687    6684      67
    6696    6693      66    6699    6693      66    6699    6696      67    6708
    6705      66    6711    6705      66    6711    6708      67    6720    6717
      66    6723    6717      66    6723    6720      67    6732    6729      66
    6735    6729      66    6735    6732      67    6744    6741      66    6747
    6741      66    6747    6744      67    6756    6753      66    6759    6753
      66    6759    6756      67    6768    6765      66    6771    6765      66
    6771    6768      67    6780    6777      66    6783    6777      66    6783
    6780      67    6792    6789      66    6795    6789      66    6795    6792
      67    6804    6801      66    6807    6801      66    6807    6804      67
    6816    6813      66    6819    6813      66    6819    6816      67    6828
    6825      66    6831    6825      66    6831    6828      67    6840    6837
      66    6843    6837      66    6843    6840      67    6852    6849      66
    6855    6849      66    6855    6852      67    6864    6861      66    6867
    6861      66    6867    6864      67    6876    6873      66    6879    6873
      66    6879    6876      67    6888    6885      66    6891    6885      66
    6891    6888      67    6900    6897      66    6903    6897      66    6903
    6900      67    6912    6909      66    6915    6909      66    6915    6912
      67    6924    6921      66    6927    6921      66    6927    6924      67
    6936    6933      66    6939    6933      66    6939    6936      67    6948
    6945      66    6951    6945      66    6951    6948      67    6960    6957
      66    6963    6957      66    6963    6960      67    6972    6969      66
    6975    6969      66    6975    6972      67    6984    6981      66    6987
    6981      66    6987    6984      67    6996    6993      66    6999    6993
      66    6999    6996      67    7008    7005      66    7011    7005      66
    7011    7008      67    7020    7017      66    7023    7017      66    7023
    7020      67    7032    7029      66    7035    7029      66    7035    7032
      67    7044    7041      66    7047    7041      66    7047    7044      67
    7056    7053      66    7059    7053      66    7059    7056      67    7068
    7065      66    7071    7065      66    7071    7068      67    7080    7077
      66    7083    7077      66    7083    7080      67    7092    7089      66
    7095    7089      66    7095    7092      67    7104    7101      66    7107
    7101      66    7107    7104      67    7116    7113      66    7119    7113
      66    7119    7116      67    7128    7125      66    7131    7125      66
    7131    7128      67    7140    7137      66    7143    7137      66    7143
    7140      67    7152    7149      66    7155    7149      66    7155    7152
      67    7164    7161      66    7167    7161      66    7167    7164      67
    7176    7173      66    7179    7173      66    7179    7176      67    7188
    7185      66    7191    7185      66    7191    7188      67    7200    7197
      66    7203    7197      66    7203    7200      67    7212    7209      66
    7215    7209      66    7215    7212      67    7224    7221      66    7227
    7221      66    7227    7224      67    7236    7233      66    7239    7233
      66    7239    7236      67    7248    7245      66    7251    7245      66
    7251    7248      67    7260    7257      66    7263    7257      66    7263
    7260      67    7272    7269      66    7275    7269      66    7275    7272
      67    7284    7281      66    7287    7281      66    7287    7284      67
    7296    7293      66    7299    7293      66    7299    7296      67    7308
    7305      66    7311    7305      66    7311    7308      67    7320    7317
      66    7323    7317      66    7323    7320      67    7332    7329      66
    7335    7329      66    7335    7332      67    7344    7341      66    7347
    7341      66    7347    7344      67    7356    7353      66    7359    7353
      66    7359    7356      67    7368    7365      66    7371    7365      66
    7371    7368      67    7380    7377      66    7383    7377      66    7383
    7380      67    7392    7389      66    7395    7389      66    7395    7392
      67    7404    7401      66    7407    7401      66    7407    7404      67
    7416    7413      66    7419    7413      66    7419    7416      67    7428
    7425      66    7431    7425      66    7431    7428      67    7440    7437
      66    7443    7437      66    7443    7440      67    7452    7449      66
    7455    7449      66    7455    7452      67    7464    7461      66    7467
    7461      66    7467    7464      67    7476    7473      66    7479    7473
      66    7479    7476      67    7488    7485      66    7491    7485      66
    7491    7488      67    7500    7497      66    7503    7497      66    7503
    7500      67    7512    7509      66    7515    7509      66    7515    7512
      67    7524    7521      66    7527    7521      66    7527    7524      67
    7536    7533      66    7539    7533      66    7539    7536      67    7548
    7545      66    7551    7545      66    7551    7548      67    7560    7557
      66    7563    7557      66    7563    7560      67    7572    7569      66
    7575    7569      66    7575    7572      67    7584    7581      66    7587
    7581      66    7587    7584      67    7596    7593      66    7599    7593
      66    7599    7596      67    7608    7605      66    7611    7605      66
    7611    7608      67    7620    7617      66    7623    7617      66    7623
    7620      67    7632    7629      66    7635    7629      66    7635    7632
      67    7644    7641      66    7647    7641      66    7647    7644      67
    7656    7653      66    7659    7653      66    7659    7656      67    7668
    7665      66    7671    7665      66    7671    7668      67    7680    7677
      66    7683    7677      66    7683    7680      67    7692    7689      66
    7695    7689      66    7695    7692      67    7704    7701      66    7707
    7701      66    7707    7704      67    7716    7713      66    7719    7713
      66    7719    7716      67    7728    7725      66    7731    7725      66
    7731    7728      67    7740    7737      66    7743    7737      66    7743
    7740      67    7752    7749      66    7755    7749      66    7755    7752
      67    7764    7761      66    7767    7761      66    7767    7764      67
    7776    7773      66    7779    7773      66    7779    7776      67    7788
    7785      66    7791    7785      66    7791    7788      67    7800    7797
      66    7803    7797      66    7803    7800      67    7812    7809      66
    7815    7809      66    7815    7812      67    7824    7821      66    7827
    7821      66    7827    7824      67    7836    7833      66    7839    7833
      66    7839    7836      67    7848    7845      66    7851    7845      66
    7851    7848      67    7860    7857      66    7863    7857      66    7863
    7860      67    7872    7869      66    7875    7869      66    7875    7872
      67    7884    7881      66    7887    7881      66    7887    7884      67
    7896    7893      66    7899    7893      66    7899    7896      67    7908
    7905      66    7911    7905      66    7911    7908      67    7920    7917
      66    7923    7917      66    7923    7920      67    7932    7929      66
    7935    7929      66    7935    7932      67    7944    7941      66    7947
    7941      66    7947    7944      67    7956    7953      66    7959    7953
      66    7959    7956      67    7968    7965      66    7971    7965      66
    7971    7968      67    7980    7977      66    7983    7977      66    7983
    7980      67    7992    7989      66    7995    7989      66    7995    7992
      67    8004    8001      66    8007    8001      66    8007    8004      67
    8016    8013      66    8019    8013      66    8019    8016      67    8028
    8025      66    8031    8025      66    8031    8028      67    8040    8037
      66    8043    8037      66    8043    8040      67    8052    8049      66
    8055    8049      66    8055    8052      67    8064    8061      66    8067
    8061      66    8067    8064      67    8076    8073      66    8079    8073
      66    8079    8076      67    8088    8085      66    8091    8085      66
    8091    8088      67    8100    8097      66    8103    8097      66    8103
    8100      67    8112    8109      66    8115    8109      66    8115    8112
      67    8124    8121      66    8127    8121      66    8127    8124      67
    8136    8133      66    8139    8133      66    8139    8136      67    8148
    8145      66    8151    8145      66    8151    8148      67    8160    8157
      66    8163    8157      66    8163    8160      67    8172    8169      66
    8175    8169      66    8175    8172      67    8184    8181      66    8187
    8181      66    8187    8184      67    8196    8193      66    8199    8193
      66    8199    8196      67    8208    8205      66    8211    8205      66
    8211    8208      67    8220    8217      66    8223    8217      66    8223
    8220      67    8232    8229      66    8235    8229      66    8235    8232
      67    8244    8241      66    8247    8241      66    8247    8244      67
    8256    8253      66    8259    8253      66    8259    8256      67    8268
    8265      66    8271    8265      66    8271    8268      67    8280    8277
      66    8283    8277      66    8283    8280      67    8292    8289      66
    8295    8289      66    8295    8292      67    8304    8301      66    8307
    8301      66    8307    8304      67    8316    8313      66    8319    8313
      66    8319    8316      67    8328    8325      66    8331    8325      66
    8331    8328      67    8340    8337      66    8343    8337      66    8343
    8340      67    8352    8349      66    8355    8349      66    8355    8352
      67    8364    8361      66    8367    8361      66    8367    8364      67
    8376    8373      66    8379    8373      66    8379    8376      67    8388
    8385      66    8391    8385      66    8391    8388      67    8400    8397
      66    8403    8397      66    8403    8400      67    8412    8409      66
    8415    8409      66    8415    8412      67    8424    8421      66    8427
    8421      66    8427    8424      67    8436    8433      66    8439    8433
      66    8439    8436      67    8448    8445      66    8451    8445      66
    8451    8448      67    8460    8457      66    8463    8457      66    8463
    8460      67    8472    8469      66    8475    8469      66    8475    8472
      67    8484    8481      66    8487    8481      66    8487    8484      67
    8496    8493      66    8499    8493      66    8499    8496      67    8508
    8505      66    8511    8505      66    8511    8508      67    8520    8517
      66    8523    8517      66    8523    8520      67    8532    8529      66
    8535    8529      66    8535    8532      67    8544    8541      66    8547
    8541      66    8547    8544      67    8556    8553      66    8559    8553
      66    8559    8556      67    8568    8565      66    8571    8565      66
    8571    8568      67    8580    8577      66    8583    8577      66    8583
    8580      67    8592    8589      66    8595    8589      66    8595    8592
      67    8604    8601      66    8607    8601      66    8607    8604      67
    8616    8613      66    8619    8613      66    8619    8616      67    8628
    8625      66    8631    8625      66    8631    8628      67    8640    8637
      66    8643    8637      66    8643    8640      67    8652    8649      66
    8655    8649      66    8655    8652      67    8664    8661      66    8667
    8661      66    8667    8664      67    8676    8673      66    8679    8673
      66    8679    8676      67    8688    8685      66    8691    8685      66
    8691    8688      67    8700    8697      66    8703    8697      66    8703
    8700      67    8712    8709      66    8715    8709      66    8715    8712
      67    8724    8721      66    8727    8721      66    8727    8724      67
    8736    8733      66    8739    8733      66    8739    8736      67    8748
    8745      66    8751    8745      66    8751    8748      67    8760    8757
      66    8763    8757      66    8763    8760      67    8772    8769      66
    8775    8769      66    8775    8772      67    8784    8781      66    8787
    8781      66    8787    8784      67    8796    8793      66    8799    8793
      66    8799    8796      67    8808    8805      66    8811    8805      66
    8811    8808      67    8820    8817      66    8823    8817      66    8823
    8820      67    8832    8829      66    8835    8829      66    8835    8832
      67    8844    8841      66    8847    8841      66    8847    8844      67
    8856    8853      66    8859    8853      66    8859    8856      67    8868
    8865      66    8871    8865      66    8871    8868      67    8880    8877
      66    8883    8877      66    8883    8880      67    8892    8889      66
    8895    8889      66    8895    8892      67    8904    8901      66    8907
    8901      66    8907    8904      67    8916    8913      66    8919    8913
      66    8919    8916      67    8928    8925      66    8931    8925      66
    8931    8928      67    8940    8937      66    8943    8937      66    8943
    8940      67    8952    8949      66    8955    8949      66    8955    8952
      67    8964    8961      66    8967    8961      66    8967    8964      67
    8976    8973      66    8979    8973      66    8979    8976      67    8988
    8985      66    8991    8985      66    8991    8988      67    9000    8997
      66    9003    8997      66    9003    9000      67    9012    9009      66
    9015    9009      66    9015    9012      67    9024    9021      66    9027
    9021      66    9027    9024      67    9036    9033      66    9039    9033
      66    9039    9036      67    9048    9045      66    9051    9045      66
    9051    9048      67    9060    9057      66    9063    9057      66    9063
    9060      67    9072    9069      66    9075    9069      66    9075    9072
      67    9084    9081      66    9087    9081      66    9087    9084      67
    9096    9093      66    9099    9093      66    9099    9096      67    9108
    9105      66    9111    9105      66    9111    9108      67    9120    9117
      66    9123    9117      66    9123    9120      67    9132    9129      66
    9135    9129      66    9135    9132      67    9144    9141      66    9147
    9141      66    9147    9144      67    9156    9153      66    9159    9153
      66    9159    9156      67    9168    9165      66    9171    9165      66
    9171    9168      67    9180    9177      66    9183    9177      66    9183
    9180      67    9192    9189      66    9195    9189      66    9195    9192
      67    9204    9201      66    9207    9201      66    9207    9204      67
    9216    9213      66    9219    9213      66    9219    9216      67    9228
    9225      66    9231    9225      66    9231    9228      67    9240    9237
      66    9243    9237      66    9243    9240      67    9252    9249      66
    9255    9249      66    9255    9252      67    9264    9261      66    9267
    9261      66    9267    9264      67    9276    9273      66    9279    9273
      66    9279    9276      67    9288    9285      66    9291    9285      66
    9291    9288      67    9300    9297      66    9303    9297      66    9303
    9300      67    9312    9309      66    9315    9309      66    9315    9312
      67    9324    9321      66    9327    9321      66    9327    9324      67
    9336    9333      66    9339    9333      66    9339    9336      67    9348
    9345      66    9351    9345      66    9351    9348      67    9360    9357
      66    9363    9357      66    9363    9360      67    9372    9369      66
    9375    9369      66    9375    9372      67    9384    9381      66    9387
    9381      66    9387    9384      67    9396    9393      66    9399    9393
      66    9399    9396      67    9408    9405      66    9411    9405      66
    9411    9408      67    9420    9417      66    9423    9417      66    9423
    9420      67    9432    9429      66    9435    9429      66    9435    9432
      67    9444    9441      66    9447    9441      66    9447    9444      67
    9456    9453      66    9459    9453      66    9459    9456      67    9468
    9465      66    9471    9465      66    9471    9468      67    9480    9477
      66    9483    9477      66    9483    9480      67    9492    9489      66
    9495    9489      66    9495    9492      67    9504    9501      66    9507
    9501      66    9507    9504      67    9516    9513      66    9519    9513
      66    9519    9516      67    9528    9525      66    9531    9525      66
    9531    9528      67    9540    9537      66    9543    9537      66    9543
    9540      67    9552    9549      66    9555    9549      66    9555    9552
      67    9564    9561      66    9567    9561      66    9567    9564      67
    9576    9573      66    9579    9573      66    9579    9576      67    9588
    9585      66    9591    9585      66    9591    9588      67    9600    9597
      66    9603    9597      66    9603    9600      67    9612    9609      66
    9615    9609      66    9615    9612      67    9624    9621      66    9627
    9621      66    9627    9624      67    9636    9633      66    9639    9633
      66    9639    9636      67    9648    9645      66    9651    9645      66
    9651    9648      67    9660    9657      66    9663    9657      66    9663
    9660      67    9672    9669      66    9675    9669      66    9675    9672
      67    9684    9681      66    9687    9681      66    9687    9684      67
    9696    9693      66    9699    9693      66    9699    9696      67    9708
    9705      66    9711    9705      66    9711    9708      67    9720    9717
      66    9723    9717      66    9723    9720      67    9732    9729      66
    9735    9729      66    9735    9732      67    9744    9741      66    9747
    9741      66    9747    9744      67    9756    9753      66    9759    9753
      66    9759    9756      67    9768    9765      66    9771    9765      66
    9771    9768      67    9780    9777      66    9783    9777      66    9783
    9780      67    9792    9789      66    9795    9789      66    9795    9792
      67    9804    9801      66    9807    9801      66    9807    9804      67
    9816    9813      66    9819    9813      66    9819    9816      67    9828
    9825      66    9831    9825      66    9831    9828      67    9840    9837
      66    9843    9837      66    9843    9840      67    9852    9849      66
    9855    9849      66    9855    9852      67    9864    9861      66    9867
    9861      66    9867    9864      67    9876    9873      66    9879    9873
      66    9879    9876      67    9888    9885      66    9891    9885      66
    9891    9888      67    9900    9897      66    9903    9897      66    9903
    9900      67    9912    9909      66    9915    9909      66    9915    9912
      67    9924    9921      66    9927    9921      66    9927    9924      67
    9936    9933      66    9939    9933      66    9939    9936      67    9948
    9945      66    9951    9945      66    9951    9948      67    9960    9957
      66    9963    9957      66    9963    9960      67    9972    9969      66
    9975    9969      66    9975    9972      67    9984    9981      66    9987
    9981      66    9987    9984      67    9996    9993      66    9999    9993
      66    9999    9996      67   10008   10005      66   10011   10005      66
   10011   10008      67   10020   10017      66   10023   10017      66   10023
   10020      67   10032   10029      66   10035   10029      66   10035   10032
      67   10044   10041      66   10047   10041      66   10047   10044      67
   10056   10053      66   10059   10053      66   10059   10056      67   10068
   10065      66   10071   10065      66   10071   10068      67   10080   10077
      66   10083   10077      66   10083   10080      67   10092   10089      66
   10095   10089      66   10095   10092      67   10104   10101      66   10107
   10101      66   10107   10104      67   10116   10113      66   10119   10113
      66   10119   10116      67   10128   10125      66   10131   10125      66
   10131   10128      67   10140   10137      66   10143   10137      66   10143
   10140      67   10152   10149      66   10155   10149      66   10155   10152
      67   10164   10161      66   10167   10161      66   10167   10164      67
   10176   10173      66   10179   10173      66   10179   10176      67   10188
   10185      66   10191   10185      66   10191   10188      67   10200   10197
      66   10203   10197      66   10203   10200      67   10212   10209      66
   10215   10209      66   10215   10212      67   10224   10221      66   10227
   10221      66   10227   10224      67   10236   10233      66   10239   10233
      66   10239   10236      67   10248   10245      66   10251   10245      66
   10251   10248      67   10260   10257      66   10263   10257      66   10263
   10260      67   10272   10269      66   10275   10269      66   10275   10272
      67   10284   10281      66   10287   10281      66   10287   10284      67
   10296   10293      66   10299   10293      66   10299   10296      67   10308
   10305      66   10311   10305      66   10311   10308      67   10320   10317
      66   10323   10317      66   10323   10320      67   10332   10329      66
   10335   10329      66   10335   10332      67   10344   10341      66   10347
   10341      66   10347   10344      67   10356   10353      66   10359   10353
      66   10359   10356      67   10368   10365      66   10371   10365      66
   10371   10368      67   10380   10377      66   10383   10377      66   10383
   10380      67   10392   10389      66   10395   10389      66   10395   10392
      67   10404   10401      66   10407   10401      66   10407   10404      67
   10416   10413      66   10419   10413      66   10419   10416      67   10428
   10425      66   10431   10425      66   10431   10428      67   10440   10437
      66   10443   10437      66   10443   10440      67   10452   10449      66
   10455   10449      66   10455   10452      67   10464   10461      66   10467
   10461      66   10467   10464      67   10476   10473      66   10479   10473
      66   10479   10476      67   10488   10485      66   10491   10485      66
   10491   10488      67   10500   10497      66   10503   10497      66   10503
   10500      67   10512   10509      66   10515   10509      66   10515   10512
      67   10524   10521      66   10527   10521      66   10527   10524      67
   10536   10533      66   10539   10533      66   10539   10536      67   10548
   10545      66   10551   10545      66   10551   10548      67   10560   10557
      66   10563   10557      66   10563   10560      67   10572   10569      66
   10575   10569      66   10575   10572      67   10584   10581      66   10587
   10581      66   10587   10584      67   10596   10593      66   10599   10593
      66   10599   10596      67   10608   10605      66   10611   10605      66
   10611   10608      67   10620   10617      66   10623   10617      66   10623
   10620      67   10632   10629      66   10635   10629      66   10635   10632
      67   10644   10641      66   10647   10641      66   10647   10644      67
   10656   10653      66   10659   10653      66   10659   10656      67   10668
   10665      66   10671   10665      66   10671   10668      67   10680   10677
      66   10683   10677      66   10683   10680      67   10692   10689      66
   10695   10689      66   10695   10692      67   10704   10701      66   10707
   10701      66   10707   10704      67   10716   10713      66   10719   10713
      66   10719   10716      67   10728   10725      66   10731   10725      66
   10731   10728      67   10740   10737      66   10743   10737      66   10743
   10740      67   10752   10749      66   10755   10749      66   10755   10752
      67   10764   10761      66   10767   10761      66   10767   10764      67
   10776   10773      66   10779   10773      66   10779   10776      67   10788
   10785      66   10791   10785      66   10791   10788      67   10800   10797
      66   10803   10797      66   10803   10800      67   10812   10809      66
   10815   10809      66   10815   10812      67   10824   10821      66   10827
   10821      66   10827   10824      67   10836   10833      66   10839   10833
      66   10839   10836      67   10848   10845      66   10851   10845      66
   10851   10848      67   10860   10857      66   10863   10857      66   10863
   10860      67   10872   10869      66   10875   10869      66   10875   10872
      67   10884   10881      66   10887   10881      66   10887   10884      67
   10896   10893      66   10899   10893      66   10899   10896      67   10908
   10905      66   10911   10905      66   10911   10908      67   10920   10917
      66   10923   10917      66   10923   10920      67   10932   10929      66
   10935   10929      66   10935   10932      67   10944   10941      66   10947
   10941      66   10947   10944      67   10956   10953      66   10959   10953
      66   10959   10956      67   10968   10965      66   10971   10965      66
   10971   10968      67   10980   10977      66   10983   10977      66   10983
   10980      67   10992   10989      66   10995   10989      66   10995   10992
      67   11004   11001      66   11007   11001      66   11007   11004      67
   11016   11013      66   11019   11013      66   11019   11016      67   11028
   11025      66   11031   11025      66   11031   11028      67   11040   11037
      66   11043   11037      66   11043   11040      67   11052   11049      66
   11055   11049      66   11055   11052      67   11064   11061      66   11067
   11061      66   11067   11064      67   11076   11073      66   11079   11073
      66   11079   11076      67   11088   11085      66   11091   11085      66
   11091   11088      67   11100   11097      66   11103   11097      66   11103
   11100      67   11112   11109      66   11115   11109      66   11115   11112
      67   11124   11121      66   11127   11121      66   11127   11124      67
   11136   11133      66   11139   11133      66   11139   11136      67   11148
   11145      66   11151   11145      66   11151   11148      67   11160   11157
      66   11163   11157      66   11163   11160      67   11172   11169      66
   11175   11169      66   11175   11172      67   11184   11181      66   11187
   11181      66   11187   11184      67   11196   11193      66   11199   11193
      66   11199   11196      67   11208   11205      66   11211   11205      66
   11211   11208      67   11220   11217      66   11223   11217      66   11223
   11220      67   11232   11229      66   11235   11229      66   11235   11232
      67   11244   11241      66   11247   11241      66   11247   11244      67
   11256   11253      66   11259   11253      66   11259   11256      67   11268
   11265      66   11271   11265      66   11271   11268      67   11280   11277
      66   11283   11277      66   11283   11280      67   11292   11289      66
   11295   11289      66   11295   11292      67   11304   11301      66   11307
   11301      66   11307   11304      67   11316   11313      66   11319   11313
      66   11319   11316      67   11328   11325      66   11331   11325      66
   11331   11328      67   11340   11337      66   11343   11337      66   11343
   11340      67   11352   11349      66   11355   11349      66   11355   11352
      67   11364   11361      66   11367   11361      66   11367   11364      67
   11376   11373      66   11379   11373      66   11379   11376      67   11388
   11385      66   11391   11385      66   11391   11388      67   11400   11397
      66   11403   11397      66   11403   11400      67   11412   11409      66
   11415   11409      66   11415   11412      67   11424   11421      66   11427
   11421      66   11427   11424      67   11436   11433      66   11439   11433
      66   11439   11436      67   11448   11445      66   11451   11445      66
   11451   11448      67   11460   11457      66   11463   11457      66   11463
   11460      67   11472   11469      66   11475   11469      66   11475   11472
      67   11484   11481      66   11487   11481      66   11487   11484      67
   11496   11493      66   11499   11493      66   11499   11496      67   11508
   11505      66   11511   11505      66   11511   11508      67   11520   11517
      66   11523   11517      66   11523   11520      67   11532   11529      66
   11535   11529      66   11535   11532      67   11544   11541      66   11547
   11541      66   11547   11544      67   11556   11553      66   11559   11553
      66   11559   11556      67   11568   11565      66   11571   11565      66
   11571   11568      67   11580   11577      66   11583   11577      66   11583
   11580      67   11592   11589      66   11595   11589      66   11595   11592
      67   11604   11601      66   11607   11601      66   11607   11604      67
   11616   11613      66   11619   11613      66   11619   11616      67   11628
   11625      66   11631   11625      66   11631   11628      67   11640   11637
      66   11643   11637      66   11643   11640      67   11652   11649      66
   11655   11649      66   11655   11652      67   11664   11661      66   11667
   11661      66   11667   11664      67   11676   11673      66   11679   11673
      66   11679   11676      67   11688   11685      66   11691   11685      66
   11691   11688      67   11700   11697      66   11703   11697      66   11703
   11700      67   11712   11709      66   11715   11709      66   11715   11712
      67   11724   11721      66   11727   11721      66   11727   11724      67
   11736   11733      66   11739   11733      66   11739   11736      67   11748
   11745      66   11751   11745      66   11751   11748      67   11760   11757
      66   11763   11757      66   11763   11760      67   11772   11769      66
   11775   11769      66   11775   11772      67   11784   11781      66   11787
   11781      66   11787   11784      67   11796   11793      66   11799   11793
      66   11799   11796      67   11808   11805      66   11811   11805      66
   11811   11808      67   11820   11817      66   11823   11817      66   11823
   11820      67   11832   11829      66   11835   11829      66   11835   11832
      67   11844   11841      66   11847   11841      66   11847   11844      67
   11856   11853      66   11859   11853      66   11859   11856      67   11868
   11865      66   11871   11865      66   11871   11868      67   11880   11877
      66   11883   11877      66   11883   11880      67   11892   11889      66
   11895   11889      66   11895   11892      67   11904   11901      66   11907
   11901      66   11907   11904      67   11916   11913      66   11919   11913
      66   11919   11916      67   11928   11925      66   11931   11925      66
   11931   11928      67   11940   11937      66   11943   11937      66   11943
   11940      67   11952   11949      66   11955   11949      66   11955   11952
      67   11964   11961      66   11967   11961      66   11967   11964      67
   11976   11973      66   11979   11973      66   11979   11976      67   11988
   11985      66   11991   11985      66   11991   11988      67   12000   11997
      66   12003   11997      66   12003   12000      67   12012   12009      66
   12015   12009      66   12015   12012      67   12024   12021      66   12027
   12021      66   12027   12024      67   12036   12033      66   12039   12033
      66   12039   12036      67   12048   12045      66   12051   12045      66
   12051   12048      67   12060   12057      66   12063   12057      66   12063
   12060      67   12072   12069      66   12075   12069      66   12075   12072
      67   12084   12081      66   12087   12081      66   12087   12084      67
   12096   12093      66   12099   12093      66   12099   12096      67   12108
   12105      66   12111   12105      66   12111   12108      67   12120   12117
      66   12123   12117      66   12123   12120      67   12132   12129      66
   12135   12129      66   12135   12132      67   12144   12141      66   12147
   12141      66   12147   12144      67   12156   12153      66   12159   12153
      66   12159   12156      67   12168   12165      66   12171   12165      66
   12171   12168      67   12180   12177      66   12183   12177      66   12183
   12180      67   12192   12189      66   12195   12189      66   12195   12192
      67   12204   12201      66   12207   12201      66   12207   12204      67
   12216   12213      66   12219   12213      66   12219   12216      67   12228
   12225      66   12231   12225      66   12231   12228      67   12240   12237
      66   12243   12237      66   12243   12240      67   12252   12249      66
   12255   12249      66   12255   12252      67   12264   12261      66   12267
   12261      66   12267   12264      67   12276   12273      66   12279   12273
      66   12279   12276      67   12288   12285      66   12291   12285      66
   12291   12288      67   12300   12297      66   12303   12297      66   12303
   12300      67   12312   12309      66   12315   12309      66   12315   12312
      67   12324   12321      66   12327   12321      66   12327   12324      67
   12336   12333      66   12339   12333      66   12339   12336      67   12348
   12345      66   12351   12345      66   12351   12348      67   12360   12357
      66   12363   12357      66   12363   12360      67   12372   12369      66
   12375   12369      66   12375   12372      67   12384   12381      66   12387
   12381      66   12387   12384      67   12396   12393      66   12399   12393
      66   12399   12396      67   12408   12405      66   12411   12405      66
   12411   12408      67   12420   12417      66   12423   12417      66   12423
   12420      67   12432   12429      66   12435   12429      66   12435   12432
      67   12444   12441      66   12447   12441      66   12447   12444      67
   12456   12453      66   12459   12453      66   12459   12456      67   12468
   12465      66   12471   12465      66   12471   12468      67   12480   12477
      66   12483   12477      66   12483   12480      67   12492   12489      66
   12495   12489      66   12495   12492      67   12504   12501      66   12507
   12501      66   12507   12504      67   12516   12513      66   12519   12513
      66   12519   12516      67   12528   12525      66   12531   12525      66
   12531   12528      67   12540   12537      66   12543   12537      66   12543
   12540      67   12552   12549      66   12555   12549      66   12555   12552
      67   12564   12561      66   12567   12561      66   12567   12564      67
   12576   12573      66   12579   12573      66   12579   12576      67   12588
   12585      66   12591   12585      66   12591   12588      67   12600   12597
      66   12603   12597      66   12603   12600      67   12612   12609      66
   12615   12609      66   12615   12612      67   12624   12621      66   12627
   12621      66   12627   12624      67   12636   12633      66   12639   12633
      66   12639   12636      67   12648   12645      66   12651   12645      66
   12651   12648      67   12660   12657      66   12663   12657      66   12663
   12660      67   12672   12669      66   12675   12669      66   12675   12672
      67   12684   12681      66   12687   12681      66   12687   12684      67
   12696   12693      66   12699   12693      66   12699   12696      67   12708
   12705      66   12711   12705      66   12711   12708      67   12720   12717
      66   12723   12717      66   12723   12720      67   12732   12729      66
   12735   12729      66   12735   12732      67   12744   12741      66   12747
   12741      66   12747   12744      67   12756   12753      66   12759   12753
      66   12759   12756      67   12768   12765      66   12771   12765      66
   12771   12768      67   12780   12777      66   12783   12777      66   12783
   12780      67   12792   12789      66   12795   12789      66   12795   12792
      67   12804   12801      66   12807   12801      66   12807   12804      67
   12816   12813      66   12819   12813      66   12819   12816      67   12828
   12825      66   12831   12825      66   12831   12828      67   12840   12837
      66   12843   12837      66   12843   12840      67   12852   12849      66
   12855   12849      66   12855   12852      67   12864   12861      66   12867
   12861      66   12867   12864      67   12876   12873      66   12879   12873
      66   12879   12876      67   12888   12885      66   12891   12885      66
   12891   12888      67   12900   12897      66   12903   12897      66   12903
   12900      67   12912   12909      66   12915   12909      66   12915   12912
      67   12924   12921      66   12927   12921      66   12927   12924      67
   12936   12933      66   12939   12933      66   12939   12936      67   12948
   12945      66   12951   12945      66   12951   12948      67   12960   12957
      66   12963   12957      66   12963   12960      67   12972   12969      66
   12975   12969      66   12975   12972      67   12984   12981      66   12987
   12981      66   12987   12984      67   12996   12993      66   12999   12993
      66   12999   12996      67   13008   13005      66   13011   13005      66
   13011   13008      67   13020   13017      66   13023   13017      66   13023
   13020      67   13032   13029      66   13035   13029      66   13035   13032
      67   13044   13041      66   13047   13041      66   13047   13044      67
   13056   13053      66   13059   13053      66   13059   13056      67   13068
   13065      66   13071   13065      66   13071   13068      67   13080   13077
      66   13083   13077      66   13083   13080      67   13092   13089      66
   13095   13089      66   13095   13092      67   13104   13101      66   13107
   13101      66   13107   13104      67   13116   13113      66   13119   13113
      66   13119   13116      67   13128   13125      66   13131   13125      66
   13131   13128      67   13140   13137      66   13143   13137      66   13143
   13140      67   13152   13149      66   13155   13149      66   13155   13152
      67   13164   13161      66   13167   13161      66   13167   13164      67
   13176   13173      66   13179   13173      66   13179   13176      67   13188
   13185      66   13191   13185      66   13191   13188      67   13200   13197
      66   13203   13197      66   13203   13200      67   13212   13209      66
   13215   13209      66   13215   13212      67   13224   13221      66   13227
   13221      66   13227   13224      67   13236   13233      66   13239   13233
      66   13239   13236      67   13248   13245      66   13251   13245      66
   13251   13248      67   13260   13257      66   13263   13257      66   13263
   13260      67   13272   13269      66   13275   13269      66   13275   13272
      67   13284   13281      66   13287   13281      66   13287   13284      67
   13296   13293      66   13299   13293      66   13299   13296      67   13308
   13305      66   13311   13305      66   13311   13308      67   13320   13317
      66   13323   13317      66   13323   13320      67   13332   13329      66
   13335   13329      66   13335   13332      67   13344   13341      66   13347
   13341      66   13347   13344      67   13356   13353      66   13359   13353
      66   13359   13356      67   13368   13365      66   13371   13365      66
   13371   13368      67   13380   13377      66   13383   13377      66   13383
   13380      67   13392   13389      66   13395   13389      66   13395   13392
      67   13404   13401      66   13407   13401      66   13407   13404      67
   13416   13413      66   13419   13413      66   13419   13416      67   13428
   13425      66   13431   13425      66   13431   13428      67   13440   13437
      66   13443   13437      66   13443   13440      67   13452   13449      66
   13455   13449      66   13455   13452      67   13464   13461      66   13467
   13461      66   13467   13464      67   13476   13473      66   13479   13473
      66   13479   13476      67   13488   13485      66   13491   13485      66
   13491   13488      67   13500   13497      66   13503   13497      66   13503
   13500      67   13512   13509      66   13515   13509      66   13515   13512
      67   13524   13521      66   13527   13521      66   13527   13524      67
   13536   13533      66   13539   13533      66   13539   13536      67   13548
   13545      66   13551   13545      66   13551   13548      67   13560   13557
      66   13563   13557      66   13563   13560      67   13572   13569      66
   13575   13569      66   13575   13572      67   13584   13581      66   13587
   13581      66   13587   13584      67   13596   13593      66   13599   13593
      66   13599   13596      67   13608   13605      66   13611   13605      66
   13611   13608      67   13620   13617      66   13623   13617      66   13623
   13620      67   13632   13629      66   13635   13629      66   13635   13632
      67   13644   13641      66   13647   13641      66   13647   13644      67
   13656   13653      66   13659   13653      66   13659   13656      67   13668
   13665      66   13671   13665      66   13671   13668      67   13680   13677
      66   13683   13677      66   13683   13680      67   13692   13689      66
   13695   13689      66   13695   13692      67   13704   13701      66   13707
   13701      66   13707   13704      67   13716   13713      66   13719   13713
      66   13719   13716      67   13728   13725      66   13731   13725      66
   13731   13728      67   13740   13737      66   13743   13737      66   13743
   13740      67   13752   13749      66   13755   13749      66   13755   13752
      67   13764   13761      66   13767   13761      66   13767   13764      67
   13776   13773      66   13779   13773      66   13779   13776      67   13788
   13785      66   13791   13785      66   13791   13788      67   13800   13797
      66   13803   13797      66   13803   13800      67   13812   13809      66
   13815   13809      66   13815   13812      67   13824   13821      66   13827
   13821      66   13827   13824      67   13836   13833      66   13839   13833
      66   13839   13836      67   13848   13845      66   13851   13845      66
   13851   13848      67   13860   13857      66   13863   13857      66   13863
   13860      67   13872   13869      66   13875   13869      66   13875   13872
      67   13884   13881      66   13887   13881      66   13887   13884      67
   13896   13893      66   13899   13893      66   13899   13896      67   13908
   13905      66   13911   13905      66   13911   13908      67   13920   13917
      66   13923   13917      66   13923   13920      67   13932   13929      66
   13935   13929      66   13935   13932      67   13944   13941      66   13947
   13941      66   13947   13944      67   13956   13953      66   13959   13953
      66   13959   13956      67   13968   13965      66   13971   13965      66
   13971   13968      67   13980   13977      66   13983   13977      66   13983
   13980      67   13992   13989      66   13995   13989      66   13995   13992
      67   14004   14001      66   14007   14001      66   14007   14004      67
   14016   14013      66   14019   14013      66   14019   14016      67   14028
   14025      66   14031   14025      66   14031   14028      67   14040   14037
      66   14043   14037      66   14043   14040      67   14052   14049      66
   14055   14049      66   14055   14052      67   14064   14061      66   14067
   14061      66   14067   14064      67   14076   14073      66   14079   14073
      66   14079   14076      67   14088   14085      66   14091   14085      66
   14091   14088      67   14100   14097      66   14103   14097      66   14103
   14100      67   14112   14109      66   14115   14109      66   14115   14112
      67   14124   14121      66   14127   14121      66   14127   14124      67
   14136   14133      66   14139   14133      66   14139   14136      67   14148
   14145      66   14151   14145      66   14151   14148      67   14160   14157
      66   14163   14157      66   14163   14160      67   14172   14169      66
   14175   14169      66   14175   14172      67   14184   14181      66   14187
   14181      66   14187   14184      67   14196   14193      66   14199   14193
      66   14199   14196      67   14208   14205      66   14211   14205      66
   14211   14208      67   14220   14217      66   14223   14217      66   14223
   14220      67   14232   14229      66   14235   14229      66   14235   14232
      67   14244   14241      66   14247   14241      66   14247   14244      67
   14256   14253      66   14259   14253      66   14259   14256      67   14268
   14265      66   14271   14265      66   14271   14268      67   14280   14277
      66   14283   14277      66   14283   14280      67   14292   14289      66
   14295   14289      66   14295   14292      67   14304   14301      66   14307
   14301      66   14307   14304      67   14316   14313      66   14319   14313
      66   14319   14316      67   14328   14325      66   14331   14325      66
   14331   14328      67   14340   14337      66   14343   14337      66   14343
   14340      67   14352   14349      66   14355   14349      66   14355   14352
      67   14364   14361      66   14367   14361      66   14367   14364      67
   14376   14373      66   14379   14373      66   14379   14376      67   14388
   14385      66   14391   14385      66   14391   14388      67   14400   14397
      66   14403   14397      66   14403   14400      67   14412   14409      66
   14415   14409      66   14415   14412      67   14424   14421      66   14427
   14421      66   14427   14424      67   14436   14433      66   14439   14433
      66   14439   14436      67   14448   14445      66   14451   14445      66
   14451   14448      67   14460   14457      66   14463   14457      66   14463
   14460      67   14472   14469      66   14475   14469      66   14475   14472
      67   14484   14481      66   14487   14481      66   14487   14484      67
   14496   14493      66   14499   14493      66   14499   14496      67   14508
   14505      66   14511   14505      66   14511   14508      67   14520   14517
      66   14523   14517      66   14523   14520      67   14532   14529      66
   14535   14529      66   14535   14532      67   14544   14541      66   14547
   14541      66   14547   14544      67   14556   14553      66   14559   14553
      66   14559   14556      67   14568   14565      66   14571   14565      66
   14571   14568      67   14580   14577      66   14583   14577      66   14583
   14580      67   14592   14589      66   14595   14589      66   14595   14592
      67   14604   14601      66   14607   14601      66   14607   14604      67
   14616   14613      66   14619   14613      66   14619   14616      67   14628
   14625      66   14631   14625      66   14631   14628      67   14640   14637
      66   14643   14637      66   14643   14640      67   14652   14649      66
   14655   14649      66   14655   14652      67   14664   14661      66   14667
   14661      66   14667   14664      67   14676   14673      66   14679   14673
      66   14679   14676      67   14688   14685      66   14691   14685      66
   14691   14688      67   14700   14697      66   14703   14697      66   14703
   14700      67   14712   14709      66   14715   14709      66   14715   14712
      67   14724   14721      66   14727   14721      66   14727   14724      67
   14736   14733      66   14739   14733      66   14739   14736      67   14748
   14745      66   14751   14745      66   14751   14748      67   14760   14757
      66   14763   14757      66   14763   14760      67   14772   14769      66
   14775   14769      66   14775   14772      67   14784   14781      66   14787
   14781      66   14787   14784      67   14796   14793      66   14799   14793
      66   14799   14796      67   14808   14805      66   14811   14805      66
   14811   14808      67   14820   14817      66   14823   14817      66   14823
   14820      67   14832   14829      66   14835   14829      66   14835   14832
      67   14844   14841      66   14847   14841      66   14847   14844      67
   14856   14853      66   14859   14853      66   14859   14856      67   14868
   14865      66   14871   14865      66   14871   14868      67   14880   14877
      66   14883   14877      66   14883   14880      67   14892   14889      66
   14895   14889      66   14895   14892      67   14904   14901      66   14907
   14901      66   14907   14904      67   14916   14913      66   14919   14913
      66   14919   14916      67   14928   14925      66   14931   14925      66
   14931   14928      67   14940   14937      66   14943   14937      66   14943
   14940      67   14952   14949      66   14955   14949      66   14955   14952
      67   14964   14961      66   14967   14961      66   14967   14964      67
   14976   14973      66   14979   14973      66   14979   14976      67   14988
   14985      66   14991   14985      66   14991   14988      67   15000   14997
      66   15003   14997      66   15003   15000      67   15012   15009      66
   15015   15009      66   15015   15012      67   15024   15021      66   15027
   15021      66   15027   15024      67   15036   15033      66   15039   15033
      66   15039   15036      67   15048   15045      66   15051   15045      66
   15051   15048      67   15060   15057      66   15063   15057      66   15063
   15060      67   15072   15069      66   15075   15069      66   15075   15072
      67   15084   15081      66   15087   15081      66   15087   15084      67
   15096   15093      66   15099   15093      66   15099   15096      67   15108
   15105      66   15111   15105      66   15111   15108      67   15120   15117
      66   15123   15117      66   15123   15120      67   15132   15129      66
   15135   15129      66   15135   15132      67   15144   15141      66   15147
   15141      66   15147   15144      67   15156   15153      66   15159   15153
      66   15159   15156      67   15168   15165      66   15171   15165      66
   15171   15168      67   15180   15177      66   15183   15177      66   15183
   15180      67   15192   15189      66   15195   15189      66   15195   15192
      67   15204   15201      66   15207   15201      66   15207   15204      67
   15216   15213      66   15219   15213      66   15219   15216      67   15228
   15225      66   15231   15225      66   15231   15228      67   15240   15237
      66   15243   15237      66   15243   15240      67   15252   15249      66
   15255   15249      66   15255   15252      67   15264   15261      66   15267
   15261      66   15267   15264      67   15276   15273      66   15279   15273
      66   15279   15276      67   15288   15285      66   15291   15285      66
   15291   15288      67   15300   15297      66   15303   15297      66   15303
   15300      67   15312   15309      66   15315   15309      66   15315   15312
      67   15324   15321      66   15327   15321      66   15327   15324      67
   15336   15333      66   15339   15333      66   15339   15336      67   15348
   15345      66   15351   15345      66   15351   15348      67   15360   15357
      66   15363   15357      66   15363   15360      67   15372   15369      66
   15375   15369      66   15375   15372      67   15384   15381      66   15387
   15381      66   15387   15384      67   15396   15393      66   15399   15393
      66   15399   15396      67   15408   15405      66   15411   15405      66
   15411   15408      67   15420   15417      66   15423   15417      66   15423
   15420      67   15432   15429      66   15435   15429      66   15435   15432
      67   15444   15441      66   15447   15441      66   15447   15444      67
   15456   15453      66   15459   15453      66   15459   15456      67   15468
   15465      66   15471   15465      66   15471   15468      67   15480   15477
      66   15483   15477      66   15483   15480      67   15492   15489      66
   15495   15489      66   15495   15492      67   15504   15501      66   15507
   15501      66   15507   15504      67   15516   15513      66   15519   15513
      66   15519   15516      67   15528   15525      66   15531   15525      66
   15531   15528      67   15540   15537      66   15543   15537      66   15543
   15540      67   15552   15549      66   15555   15549      66   15555   15552
      67   15564   15561      66   15567   15561      66   15567   15564      67
   15576   15573      66   15579   15573      66   15579   15576      67   15588
   15585      66   15591   15585      66   15591   15588      67   15600   15597
      66   15603   15597      66   15603   15600      67   15612   15609      66
   15615   15609      66   15615   15612      67   15624   15621      66   15627
   15621      66   15627   15624      67   15636   15633      66   15639   15633
      66   15639   15636      67   15648   15645      66   15651   15645      66
   15651   15648      67   15660   15657      66   15663   15657      66   15663
   15660      67   15672   15669      66   15675   15669      66   15675   15672
      67   15684   15681      66   15687   15681      66   15687   15684      67
   15696   15693      66   15699   15693      66   15699   15696      67   15708
   15705      66   15711   15705      66   15711   15708      67   15720   15717
      66   15723   15717      66   15723   15720      67   15732   15729      66
   15735   15729      66   15735   15732      67   15744   15741      66   15747
   15741      66   15747   15744      67   15756   15753      66   15759   15753
      66   15759   15756      67   15768   15765      66   15771   15765      66
   15771   15768      67   15780   15777      66   15783   15777      66   15783
   15780      67   15792   15789      66   15795   15789      66   15795   15792
      67   15804   15801      66   15807   15801      66   15807   15804      67
   15816   15813      66   15819   15813      66   15819   15816      67   15828
   15825      66   15831   15825      66   15831   15828      67   15840   15837
      66   15843   15837      66   15843   15840      67   15852   15849      66
   15855   15849      66   15855   15852      67   15864   15861      66   15867
   15861      66   15867   15864      67   15876   15873      66   15879   15873
      66   15879   15876      67   15888   15885      66   15891   15885      66
   15891   15888      67   15900   15897      66   15903   15897      66   15903
   15900      67   15912   15909      66   15915   15909      66   15915   15912
      67   15924   15921      66   15927   15921      66   15927   15924      67
   15936   15933      66   15939   15933      66   15939   15936      67   15948
   15945      66   15951   15945      66   15951   15948      67   15960   15957
      66   15963   15957      66   15963   15960      67   15972   15969      66
   15975   15969      66   15975   15972      67   15984   15981      66   15987
   15981      66   15987   15984      67   15996   15993      66   15999   15993
      66   15999   15996      67   16008   16005      66   16011   16005      66
   16011   16008      67   16020   16017      66   16023   16017      66   16023
   16020      67   16032   16029      66   16035   16029      66   16035   16032
      67   16044   16041      66   16047   16041      66   16047   16044      67
   16056   16053      66   16059   16053      66   16059   16056      67   16068
   16065      66   16071   16065      66   16071   16068      67   16080   16077
      66   16083   16077      66   16083   16080      67   16092   16089      66
   16095   16089      66   16095   16092      67   16104   16101      66   16107
   16101      66   16107   16104      67   16116   16113      66   16119   16113
      66   16119   16116      67   16128   16125      66   16131   16125      66
   16131   16128      67   16140   16137      66   16143   16137      66   16143
   16140      67   16152   16149      66   16155   16149      66   16155   16152
      67   16164   16161      66   16167   16161      66   16167   16164      67
   16176   16173      66   16179   16173      66   16179   16176      67   16188
   16185      66   16191   16185      66   16191   16188      67   16200   16197
      66   16203   16197      66   16203   16200      67   16212   16209      66
   16215   16209      66   16215   16212      67   16224   16221      66   16227
   16221      66   16227   16224      67   16236   16233      66   16239   16233
      66   16239   16236      67   16248   16245      66   16251   16245      66
   16251   16248      67   16260   16257      66   16263   16257      66   16263
   16260      67   16272   16269      66   16275   16269      66   16275   16272
      67   16284   16281      66   16287   16281      66   16287   16284      67
   16296   16293      66   16299   16293      66   16299   16296      67   16308
   16305      66   16311   16305      66   16311   16308      67   16320   16317
      66   16323   16317      66   16323   16320      67   16332   16329      66
   16335   16329      66   16335   16332      67   16344   16341      66   16347
   16341      66   16347   16344      67   16356   16353      66   16359   16353
      66   16359   16356      67   16368   16365      66   16371   16365      66
   16371   16368      67   16380   16377      66   16383   16377      66   16383
   16380      67   16392   16389      66   16395   16389      66   16395   16392
      67   16404   16401      66   16407   16401      66   16407   16404      67
   16416   16413      66   16419   16413      66   16419   16416      67   16428
   16425      66   16431   16425      66   16431   16428      67   16440   16437
      66   16443   16437      66   16443   16440      67   16452   16449      66
   16455   16449      66   16455   16452      67   16464   16461      66   16467
   16461      66   16467   16464      67   16476   16473      66   16479   16473
      66   16479   16476      67   16488   16485      66   16491   16485      66
   16491   16488      67   16500   16497      66   16503   16497      66   16503
   16500      67   16512   16509      66   16515   16509      66   16515   16512
      67   16524   16521      66   16527   16521      66   16527   16524      67
   16536   16533      66   16539   16533      66   16539   16536      67   16548
   16545      66   16551   16545      66   16551   16548      67   16560   16557
      66   16563   16557      66   16563   16560      67   16572   16569      66
   16575   16569      66   16575   16572      67   16584   16581      66   16587
   16581      66   16587   16584      67   16596   16593      66   16599   16593
      66   16599   16596      67   16608   16605      66   16611   16605      66
   16611   16608      67   16620   16617      66   16623   16617      66   16623
   16620      67   16632   16629      66   16635   16629      66   16635   16632
      67   16644   16641      66   16647   16641      66   16647   16644      67
   16656   16653      66   16659   16653      66   16659   16656      67   16668
   16665      66   16671   16665      66   16671   16668      67   16680   16677
      66   16683   16677      66   16683   16680      67   16692   16689      66
   16695   16689      66   16695   16692      67   16704   16701      66   16707
   16701      66   16707   16704      67   16716   16713      66   16719   16713
      66   16719   16716      67   16728   16725      66   16731   16725      66
   16731   16728      67   16740   16737      66   16743   16737      66   16743
   16740      67   16752   16749      66   16755   16749      66   16755   16752
      67   16764   16761      66   16767   16761      66   16767   16764      67
   16776   16773      66   16779   16773      66   16779   16776      67   16788
   16785      66   16791   16785      66   16791   16788      67   16800   16797
      66   16803   16797      66   16803   16800      67   16812   16809      66
   16815   16809      66   16815   16812      67   16824   16821      66   16827
   16821      66   16827   16824      67   16836   16833      66   16839   16833
      66   16839   16836      67   16848   16845      66   16851   16845      66
   16851   16848      67   16860   16857      66   16863   16857      66   16863
   16860      67   16872   16869      66   16875   16869      66   16875   16872
      67   16884   16881      66   16887   16881      66   16887   16884      67
   16896   16893      66   16899   16893      66   16899   16896      67   16908
   16905      66   16911   16905      66   16911   16908      67   16920   16917
      66   16923   16917      66   16923   16920      67   16932   16929      66
   16935   16929      66   16935   16932      67   16944   16941      66   16947
   16941      66   16947   16944      67   16956   16953      66   16959   16953
      66   16959   16956      67   16968   16965      66   16971   16965      66
   16971   16968      67   16980   16977      66   16983   16977      66   16983
   16980      67   16992   16989      66   16995   16989      66   16995   16992
      67   17004   17001      66   17007   17001      66   17007   17004      67
   17016   17013      66   17019   17013      66   17019   17016      67   17028
   17025      66   17031   17025      66   17031   17028      67   17040   17037
      66   17043   17037      66   17043   17040      67   17052   17049      66
   17055   17049      66   17055   17052      67   17064   17061      66   17067
   17061      66   17067   17064      67   17076   17073      66   17079   17073
      66   17079   17076      67   17088   17085      66   17091   17085      66
   17091   17088      67   17100   17097      66   17103   17097      66   17103
   17100      67   17112   17109      66   17115   17109      66   17115   17112
      67   17124   17121      66   17127   17121      66   17127   17124      67
   17136   17133      66   17139   17133      66   17139   17136      67   17148
   17145      66   17151   17145      66   17151   17148      67   17160   17157
      66   17163   17157      66   17163   17160      67   17172   17169      66
   17175   17169      66   17175   17172      67   17184   17181      66   17187
   17181      66   17187   17184      67   17196   17193      66   17199   17193
      66   17199   17196      67   17208   17205      66   17211   17205      66
   17211   17208      67   17220   17217      66   17223   17217      66   17223
   17220      67   17232   17229      66   17235   17229      66   17235   17232
      67   17244   17241      66   17247   17241      66   17247   17244      67
   17256   17253      66   17259   17253      66   17259   17256      67   17268
   17265      66   17271   17265      66   17271   17268      67   17280   17277
      66   17283   17277      66   17283   17280      67   17292   17289      66
   17295   17289      66   17295   17292      67   17304   17301      66   17307
   17301      66   17307   17304      67   17316   17313      66   17319   17313
      66   17319   17316      67   17328   17325      66   17331   17325      66
   17331   17328      67   17340   17337      66   17343   17337      66   17343
   17340      67   17352   17349      66   17355   17349      66   17355   17352
      67   17364   17361      66   17367   17361      66   17367   17364      67
   17376   17373      66   17379   17373      66   17379   17376      67   17388
   17385      66   17391   17385      66   17391   17388      67   17400   17397
      66   17403   17397      66   17403   17400      67   17412   17409      66
   17415   17409      66   17415   17412      67   17424   17421      66   17427
   17421      66   17427   17424      67   17436   17433      66   17439   17433
      66   17439   17436      67   17448   17445      66   17451   17445      66
   17451   17448      67   17460   17457      66   17463   17457      66   17463
   17460      67   17472   17469      66   17475   17469      66   17475   17472
      67   17484   17481      66   17487   17481      66   17487   17484      67
   17496   17493      66   17499   17493      66   17499   17496      67   17508
   17505      66   17511   17505      66   17511   17508      67   17520   17517
      66   17523   17517      66   17523   17520      67   17532   17529      66
   17535   17529      66   17535   17532      67   17544   17541      66   17547
   17541      66   17547   17544      67   17556   17553      66   17559   17553
      66   17559   17556      67   17568   17565      66   17571   17565      66
   17571   17568      67   17580   17577      66   17583   17577      66   17583
   17580      67   17592   17589      66   17595   17589      66   17595   17592
      67   17604   17601      66   17607   17601      66   17607   17604      67
   17616   17613      66   17619   17613      66   17619   17616      67   17628
   17625      66   17631   17625      66   17631   17628      67   17640   17637
      66   17643   17637      66   17643   17640      67   17652   17649      66
   17655   17649      66   17655   17652      67   17664   17661      66   17667
   17661      66   17667   17664      67   17676   17673      66   17679   17673
      66   17679   17676      67   17688   17685      66   17691   17685      66
   17691   17688      67   17700   17697      66   17703   17697      66   17703
   17700      67   17712   17709      66   17715   17709      66   17715   17712
      67   17724   17721      66   17727   17721      66   17727   17724      67
   17736   17733      66   17739   17733      66   17739   17736      67   17748
   17745      66   17751   17745      66   17751   17748      67   17760   17757
      66   17763   17757      66   17763   17760      67   17772   17769      66
   17775   17769      66   17775   17772      67   17784   17781      66   17787
   17781      66   17787   17784      67   17796   17793      66   17799   17793
      66   17799   17796      67   17808   17805      66   17811   17805      66
   17811   17808      67   17820   17817      66   17823   17817      66   17823
   17820      67   17832   17829      66   17835   17829      66   17835   17832
      67   17844   17841      66   17847   17841      66   17847   17844      67
   17856   17853      66   17859   17853      66   17859   17856      67   17868
   17865      66   17871   17865      66   17871   17868      67   17880   17877
      66   17883   17877      66   17883   17880      67   17892   17889      66
   17895   17889      66   17895   17892      67   17904   17901      66   17907
   17901      66   17907   17904      67   17916   17913      66   17919   17913
      66   17919   17916      67   17928   17925      66   17931   17925      66
   17931   17928      67   17940   17937      66   17943   17937      66   17943
   17940      67   17952   17949      66   17955   17949      66   17955   17952
      67   17964   17961      66   17967   17961      66   17967   17964      67
   17976   17973      66   17979   17973      66   17979   17976      67   17988
   17985      66   17991   17985      66   17991   17988      67   18000   17997
      66   18003   17997      66   18003   18000      67   18012   18009      66
   18015   18009      66   18015   18012      67   18024   18021      66   18027
   18021      66   18027   18024      67   18036   18033      66   18039   18033
      66   18039   18036      67   18048   18045      66   18051   18045      66
   18051   18048      67   18060   18057      66   18063   18057      66   18063
   18060      67   18072   18069      66   18075   18069      66   18075   18072
      67   18084   18081      66   18087   18081      66   18087   18084      67
   18096   18093      66   18099   18093      66   18099   18096      67   18108
   18105      66   18111   18105      66   18111   18108      67   18120   18117
      66   18123   18117      66   18123   18120      67   18132   18129      66
   18135   18129      66   18135   18132      67   18144   18141      66   18147
   18141      66   18147   18144      67   18156   18153      66   18159   18153
      66   18159   18156      67   18168   18165      66   18171   18165      66
   18171   18168      67   18180   18177      66   18183   18177      66   18183
   18180      67   18192   18189      66   18195   18189      66   18195   18192
      67   18204   18201      66   18207   18201      66   18207   18204      67
   18216   18213      66   18219   18213      66   18219   18216      67   18228
   18225      66   18231   18225      66   18231   18228      67   18240   18237
      66   18243   18237      66   18243   18240      67   18252   18249      66
   18255   18249      66   18255   18252      67   18264   18261      66   18267
   18261      66   18267   18264      67   18276   18273      66   18279   18273
      66   18279   18276      67   18288   18285      66   18291   18285      66
   18291   18288      67   18300   18297      66   18303   18297      66   18303
   18300      67   18312   18309      66   18315   18309      66   18315   18312
      67   18324   18321      66   18327   18321      66   18327   18324      67
   18336   18333      66   18339   18333      66   18339   18336      67   18348
   18345      66   18351   18345      66   18351   18348      67   18360   18357
      66   18363   18357      66   18363   18360      67   18372   18369      66
   18375   18369      66   18375   18372      67   18384   18381      66   18387
   18381      66   18387   18384      67   18396   18393      66   18399   18393
      66   18399   18396      67   18408   18405      66   18411   18405      66
   18411   18408      67   18420   18417      66   18423   18417      66   18423
   18420      67   18432   18429      66   18435   18429      66   18435   18432
      67   18444   18441      66   18447   18441      66   18447   18444      67
   18456   18453      66   18459   18453      66   18459   18456      67   18468
   18465      66   18471   18465      66   18471   18468      67   18480   18477
      66   18483   18477      66   18483   18480      67   18492   18489      66
   18495   18489      66   18495   18492      67   18504   18501      66   18507
   18501      66   18507   18504      67   18516   18513      66   18519   18513
      66   18519   18516      67   18528   18525      66   18531   18525      66
   18531   18528      67   18540   18537      66   18543   18537      66   18543
   18540      67   18552   18549      66   18555   18549      66   18555   18552
      67   18564   18561      66   18567   18561      66   18567   18564      67
   18576   18573      66   18579   18573      66   18579   18576      67   18588
   18585      66   18591   18585      66   18591   18588      67   18600   18597
      66   18603   18597      66   18603   18600      67   18612   18609      66
   18615   18609      66   18615   18612      67   18624   18621      66   18627
   18621      66   18627   18624      67   18636   18633      66   18639   18633
      66   18639   18636      67   18648   18645      66   18651   18645      66
   18651   18648      67   18660   18657      66   18663   18657      66   18663
   18660      67   18672   18669      66   18675   18669      66   18675   18672
      67   18684   18681      66   18687   18681      66   18687   18684      67
   18696   18693      66   18699   18693      66   18699   18696      67   18708
   18705      66   18711   18705      66   18711   18708      67   18720   18717
      66   18723   18717      66   18723   18720      67   18732   18729      66
   18735   18729      66   18735   18732      67   18744   18741      66   18747
   18741      66   18747   18744      67   18756   18753      66   18759   18753
      66   18759   18756      67   18768   18765      66   18771   18765      66
   18771   18768      67   18780   18777      66   18783   18777      66   18783
   18780      67   18792   18789      66   18795   18789      66   18795   18792
      67   18804   18801      66   18807   18801      66   18807   18804      67
   18816   18813      66   18819   18813      66   18819   18816      67   18828
   18825      66   18831   18825      66   18831   18828      67   18840   18837
      66   18843   18837      66   18843   18840      67   18852   18849      66
   18855   18849      66   18855   18852      67   18864   18861      66   18867
   18861      66   18867   18864      67   18876   18873      66   18879   18873
      66   18879   18876      67   18888   18885      66   18891   18885      66
   18891   18888      67   18900   18897      66   18903   18897      66   18903
   18900      67   18912   18909      66   18915   18909      66   18915   18912
      67   18924   18921      66   18927   18921      66   18927   18924      67
   18936   18933      66   18939   18933      66   18939   18936      67   18948
   18945      66   18951   18945      66   18951   18948      67   18960   18957
      66   18963   18957      66   18963   18960      67   18972   18969      66
   18975   18969      66   18975   18972      67   18984   18981      66   18987
   18981      66   18987   18984      67   18996   18993      66   18999   18993
      66   18999   18996      67   19008   19005      66   19011   19005      66
   19011   19008      67   19020   19017      66   19023   19017      66   19023
   19020      67   19032   19029      66   19035   19029      66   19035   19032
      67   19044   19041      66   19047   19041      66   19047   19044      67
   19056   19053      66   19059   19053      66   19059   19056      67   19068
   19065      66   19071   19065      66   19071   19068      67   19080   19077
      66   19083   19077      66   19083   19080      67   19092   19089      66
   19095   19089      66   19095   19092      67   19104   19101      66   19107
   19101      66   19107   19104      67   19116   19113      66   19119   19113
      66   19119   19116      67   19128   19125      66   19131   19125      66
   19131   19128      67   19140   19137      66   19143   19137      66   19143
   19140      67   19152   19149      66   19155   19149      66   19155   19152
      67   19164   19161      66   19167   19161      66   19167   19164      67
   19176   19173      66   19179   19173      66   19179   19176      67   19188
   19185      66   19191   19185      66   19191   19188      67   19200   19197
      66   19203   19197      66   19203   19200      67   19212   19209      66
   19215   19209      66   19215   19212      67   19224   19221      66   19227
   19221      66   19227   19224      67   19236   19233      66   19239   19233
      66   19239   19236      67   19248   19245      66   19251   19245      66
   19251   19248      67   19260   19257      66   19263   19257      66   19263
   19260      67   19272   19269      66   19275   19269      66   19275   19272
      67   19284   19281      66   19287   19281      66   19287   19284      67
   19296   19293      66   19299   19293      66   19299   19296      67   19308
   19305      66   19311   19305      66   19311   19308      67   19320   19317
      66   19323   19317      66   19323   19320      67   19332   19329      66
   19335   19329      66   19335   19332      67   19344   19341      66   19347
   19341      66   19347   19344      67   19356   19353      66   19359   19353
      66   19359   19356      67   19368   19365      66   19371   19365      66
   19371   19368      67   19380   19377      66   19383   19377      66   19383
   19380      67   19392   19389      66   19395   19389      66   19395   19392
      67   19404   19401      66   19407   19401      66   19407   19404      67
   19416   19413      66   19419   19413      66   19419   19416      67   19428
   19425      66   19431   19425      66   19431   19428      67   19440   19437
      66   19443   19437      66   19443   19440      67   19452   19449      66
   19455   19449      66   19455   19452      67   19464   19461      66   19467
   19461      66   19467   19464      67   19476   19473      66   19479   19473
      66   19479   19476      67   19488   19485      66   19491   19485      66
   19491   19488      67   19500   19497      66   19503   19497      66   19503
   19500      67   19512   19509      66   19515   19509      66   19515   19512
      67   19524   19521      66   19527   19521      66   19527   19524      67
   19536   19533      66   19539   19533      66   19539   19536      67   19548
   19545      66   19551   19545      66   19551   19548      67   19560   19557
      66   19563   19557      66   19563   19560      67   19572   19569      66
   19575   19569      66   19575   19572      67   19584   19581      66   19587
   19581      66   19587   19584      67   19596   19593      66   19599   19593
      66   19599   19596      67   19608   19605      66   19611   19605      66
   19611   19608      67   19620   19617      66   19623   19617      66   19623
   19620      67   19632   19629      66   19635   19629      66   19635   19632
      67   19644   19641      66   19647   19641      66   19647   19644      67
   19656   19653      66   19659   19653      66   19659   19656      67   19668
   19665      66   19671   19665      66   19671   19668      67   19680   19677
      66   19683   19677      66   19683   19680      67   19692   19689      66
   19695   19689      66   19695   19692      67   19704   19701      66   19707
   19701      66   19707   19704      67   19716   19713      66   19719   19713
      66   19719   19716      67   19728   19725      66   19731   19725      66
   19731   19728      67   19740   19737      66   19743   19737      66   19743
   19740      67   19752   19749      66   19755   19749      66   19755   19752
      67   19764   19761      66   19767   19761      66   19767   19764      67
   19776   19773      66   19779   19773      66   19779   19776      67   19788
   19785      66   19791   19785      66   19791   19788      67   19800   19797
      66   19803   19797      66   19803   19800      67   19812   19809      66
   19815   19809      66   19815   19812      67   19824   19821      66   19827
   19821      66   19827   19824      67   19836   19833      66   19839   19833
      66   19839   19836      67   19848   19845      66   19851   19845      66
   19851   19848      67   19860   19857      66   19863   19857      66   19863
   19860      67   19872   19869      66   19875   19869      66   19875   19872
      67   19884   19881      66   19887   19881      66   19887   19884      67
   19896   19893      66   19899   19893      66   19899   19896      67   19908
   19905      66   19911   19905      66   19911   19908      67   19920   19917
      66   19923   19917      66   19923   19920      67   19932   19929      66
   19935   19929      66   19935   19932      67   19944   19941      66   19947
   19941      66   19947   19944      67   19956   19953      66   19959   19953
      66   19959   19956      67   19968   19965      66   19971   19965      66
   19971   19968      67   19980   19977      66   19983   19977      66   19983
   19980      67   19992   19989      66   19995   19989      66   19995   19992
      67   20004   20001      66   20007   20001      66   20007   20004      67
   20016   20013      66   20019   20013      66   20019   20016      67   20028
   20025      66   20031   20025      66   20031   20028      67   20040   20037
      66   20043   20037      66   20043   20040      67   20052   20049      66
   20055   20049      66   20055   20052      67   20064   20061      66   20067
   20061      66   20067   20064      67   20076   20073      66   20079   20073
      66   20079   20076      67   20088   20085      66   20091   20085      66
   20091   20088      67   20100   20097      66   20103   20097      66   20103
   20100      67   20112   20109      66   20115   20109      66   20115   20112
      67   20124   20121      66   20127   20121      66   20127   20124      67
   20136   20133      66   20139   20133      66   20139   20136      67   20148
   20145      66   20151   20145      66   20151   20148      67   20160   20157
      66   20163   20157      66   20163   20160      67   20172   20169      66
   20175   20169      66   20175   20172      67   20184   20181      66   20187
   20181      66   20187   20184      67   20196   20193      66   20199   20193
      66   20199   20196      67   20208   20205      66   20211   20205      66
   20211   20208      67   20220   20217      66   20223   20217      66   20223
   20220      67   20232   20229      66   20235   20229      66   20235   20232
      67   20244   20241      66   20247   20241      66   20247   20244      67
   20256   20253      66   20259   20253      66   20259   20256      67   20268
   20265      66   20271   20265      66   20271   20268      67   20280   20277
      66   20283   20277      66   20283   20280      67   20292   20289      66
   20295   20289      66   20295   20292      67   20304   20301      66   20307
   20301      66   20307   20304      67   20316   20313      66   20319   20313
      66   20319   20316      67   20328   20325      66   20331   20325      66
   20331   20328      67   20340   20337      66   20343   20337      66   20343
   20340      67   20352   20349      66   20355   20349      66   20355   20352
      67   20364   20361      66   20367   20361      66   20367   20364      67
   20376   20373      66   20379   20373      66   20379   20376      67   20388
   20385      66   20391   20385      66   20391   20388      67   20400   20397
      66   20403   20397      66   20403   20400      67   20412   20409      66
   20415   20409      66   20415   20412      67   20424   20421      66   20427
   20421      66   20427   20424      67   20436   20433      66   20439   20433
      66   20439   20436      67   20448   20445      66   20451   20445      66
   20451   20448      67   20460   20457      66   20463   20457      66   20463
   20460      67   20472   20469      66   20475   20469      66   20475   20472
      67   20484   20481      66   20487   20481      66   20487   20484      67
   20496   20493      66   20499   20493      66   20499   20496      67   20508
   20505      66   20511   20505      66   20511   20508      67   20520   20517
      66   20523   20517      66   20523   20520      67   20532   20529      66
   20535   20529      66   20535   20532      67   20544   20541      66   20547
   20541      66   20547   20544      67   20556   20553      66   20559   20553
      66   20559   20556      67   20568   20565      66   20571   20565      66
   20571   20568      67   20580   20577      66   20583   20577      66   20583
   20580      67   20592   20589      66   20595   20589      66   20595   20592
      67   20604   20601      66   20607   20601      66   20607   20604      67
   20616   20613      66   20619   20613      66   20619   20616      67   20628
   20625      66   20631   20625      66   20631   20628      67   20640   20637
      66   20643   20637      66   20643   20640      67   20652   20649      66
   20655   20649      66   20655   20652      67   20664   20661      66   20667
   20661      66   20667   20664      67   20676   20673      66   20679   20673
      66   20679   20676      67   20688   20685      66   20691   20685      66
   20691   20688      67   20700   20697      66   20703   20697      66   20703
   20700      67   20712   20709      66   20715   20709      66   20715   20712
      67   20724   20721      66   20727   20721      66   20727   20724      67
   20736   20733      66   20739   20733      66   20739   20736      67   20748
   20745      66   20751   20745      66   20751   20748      67   20760   20757
      66   20763   20757      66   20763   20760      67   20772   20769      66
   20775   20769      66   20775   20772      67   20784   20781      66   20787
   20781      66   20787   20784      67   20796   20793      66   20799   20793
      66   20799   20796      67   20808   20805      66   20811   20805      66
   20811   20808      67   20820   20817      66   20823   20817      66   20823
   20820      67   20832   20829      66   20835   20829      66   20835   20832
      67   20844   20841      66   20847   20841      66   20847   20844      67
   20856   20853      66   20859   20853      66   20859   20856      67   20868
   20865      66   20871   20865      66   20871   20868      67   20880   20877
      66   20883   20877      66   20883   20880      67   20892   20889      66
   20895   20889      66   20895   20892      67   20904   20901      66   20907
   20901      66   20907   20904      67   20916   20913      66   20919   20913
      66   20919   20916      67   20928   20925      66   20931   20925      66
   20931   20928      67   20940   20937      66   20943   20937      66   20943
   20940      67   20952   20949      66   20955   20949      66   20955   20952
      67   20964   20961      66   20967   20961      66   20967   20964      67
   20976   20973      66   20979   20973      66   20979   20976      67   20988
   20985      66   20991   20985      66   20991   20988      67   21000   20997
      66   21003   20997      66   21003   21000      67   21012   21009      66
   21015   21009      66   21015   21012      67   21024   21021      66   21027
   21021      66   21027   21024      67   21036   21033      66   21039   21033
      66   21039   21036      67   21048   21045      66   21051   21045      66
   21051   21048      67   21060   21057      66   21063   21057      66   21063
   21060      67   21072   21069      66   21075   21069      66   21075   21072
      67   21084   21081      66   21087   21081      66   21087   21084      67
   21096   21093      66   21099   21093      66   21099   21096      67   21108
   21105      66   21111   21105      66   21111   21108      67   21120   21117
      66   21123   21117      66   21123   21120      67   21132   21129      66
   21135   21129      66   21135   21132      67   21144   21141      66   21147
   21141      66   21147   21144      67   21156   21153      66   21159   21153
      66   21159   21156      67   21168   21165      66   21171   21165      66
   21171   21168      67   21180   21177      66   21183   21177      66   21183
   21180      67   21192   21189      66   21195   21189      66   21195   21192
      67   21204   21201      66   21207   21201      66   21207   21204      67
   21216   21213      66   21219   21213      66   21219   21216      67   21228
   21225      66   21231   21225      66   21231   21228      67   21240   21237
      66   21243   21237      66   21243   21240      67   21252   21249      66
   21255   21249      66   21255   21252      67   21264   21261      66   21267
   21261      66   21267   21264      67   21276   21273      66   21279   21273
      66   21279   21276      67   21288   21285      66   21291   21285      66
   21291   21288      67   21300   21297      66   21303   21297      66   21303
   21300      67   21312   21309      66   21315   21309      66   21315   21312
      67   21324   21321      66   21327   21321      66   21327   21324      67
   21336   21333      66   21339   21333      66   21339   21336      67   21348
   21345      66   21351   21345      66   21351   21348      67   21360   21357
      66   21363   21357      66   21363   21360      67   21372   21369      66
   21375   21369      66   21375   21372      67   21384   21381      66   21387
   21381      66   21387   21384      67   21396   21393      66   21399   21393
      66   21399   21396      67   21408   21405      66   21411   21405      66
   21411   21408      67   21420   21417      66   21423   21417      66   21423
   21420      67   21432   21429      66   21435   21429      66   21435   21432
      67   21444   21441      66   21447   21441      66   21447   21444      67
   21456   21453      66   21459   21453      66   21459   21456      67   21468
   21465      66   21471   21465      66   21471   21468      67   21480   21477
      66   21483   21477      66   21483   21480      67   21492   21489      66
   21495   21489      66   21495   21492      67   21504   21501      66   21507
   21501      66   21507   21504      67   21516   21513      66   21519   21513
      66   21519   21516      67   21528   21525      66   21531   21525      66
   21531   21528      67   21540   21537      66   21543   21537      66   21543
   21540      67   21552   21549      66   21555   21549      66   21555   21552
      67   21564   21561      66   21567   21561      66   21567   21564      67
   21576   21573      66   21579   21573      66   21579   21576      67   21588
   21585      66   21591   21585      66   21591   21588      67   21600   21597
      66   21603   21597      66   21603   21600      67   21612   21609      66
   21615   21609      66   21615   21612      67   21624   21621      66   21627
   21621      66   21627   21624      67   21636   21633      66   21639   21633
      66   21639   21636      67   21648   21645      66   21651   21645      66
   21651   21648      67   21660   21657      66   21663   21657      66   21663
   21660      67   21672   21669      66   21675   21669      66   21675   21672
      67   21684   21681      66   21687   21681      66   21687   21684      67
   21696   21693      66   21699   21693      66   21699   21696      67   21708
   21705      66   21711   21705      66   21711   21708      67   21720   21717
      66   21723   21717      66   21723   21720      67   21732   21729      66
   21735   21729      66   21735   21732      67   21744   21741      66   21747
   21741      66   21747   21744      67   21756   21753      66   21759   21753
      66   21759   21756      67   21768   21765      66   21771   21765      66
   21771   21768      67   21780   21777      66   21783   21777      66   21783
   21780      67   21792   21789      66   21795   21789      66   21795   21792
      67   21804   21801      66   21807   21801      66   21807   21804      67
   21816   21813      66   21819   21813      66   21819   21816      67   21828
   21825      66   21831   21825      66   21831   21828      67   21840   21837
      66   21843   21837      66   21843   21840      67   21852   21849      66
   21855   21849      66   21855   21852      67   21864   21861      66   21867
   21861      66   21867   21864      67   21876   21873      66   21879   21873
      66   21879   21876      67   21888   21885      66   21891   21885      66
   21891   21888      67   21900   21897      66   21903   21897      66   21903
   21900      67   21912   21909      66   21915   21909      66   21915   21912
      67   21924   21921      66   21927   21921      66   21927   21924      67
   21936   21933      66   21939   21933      66   21939   21936      67   21948
   21945      66   21951   21945      66   21951   21948      67   21960   21957
      66   21963   21957      66   21963   21960      67   21972   21969      66
   21975   21969      66   21975   21972      67   21984   21981      66   21987
   21981      66   21987   21984      67   21996   21993      66   21999   21993
      66   21999   21996      67   22008   22005      66   22011   22005      66
   22011   22008      67   22020   22017      66   22023   22017      66   22023
   22020      67   22032   22029      66   22035   22029      66   22035   22032
      67   22044   22041      66   22047   22041      66   22047   22044      67
   22056   22053      66   22059   22053      66   22059   22056      67   22068
   22065      66   22071   22065      66   22071   22068      67   22080   22077
      66   22083   22077      66   22083   22080      67   22092   22089      66
   22095   22089      66   22095   22092      67   22104   22101      66   22107
   22101      66   22107   22104      67   22116   22113      66   22119   22113
      66   22119   22116      67   22128   22125      66   22131   22125      66
   22131   22128      67   22140   22137      66   22143   22137      66   22143
   22140      67   22152   22149      66   22155   22149      66   22155   22152
      67   22164   22161      66   22167   22161      66   22167   22164      67
   22176   22173      66   22179   22173      66   22179   22176      67   22188
   22185      66   22191   22185      66   22191   22188      67   22200   22197
      66   22203   22197      66   22203   22200      67   22212   22209      66
   22215   22209      66   22215   22212      67   22224   22221      66   22227
   22221      66   22227   22224      67   22236   22233      66   22239   22233
      66   22239   22236      67   22248   22245      66   22251   22245      66
   22251   22248      67   22260   22257      66   22263   22257      66   22263
   22260      67   22272   22269      66   22275   22269      66   22275   22272
      67   22284   22281      66   22287   22281      66   22287   22284      67
   22296   22293      66   22299   22293      66   22299   22296      67   22308
   22305      66   22311   22305      66   22311   22308      67   22320   22317
      66   22323   22317      66   22323   22320      67   22332   22329      66
   22335   22329      66   22335   22332      67   22344   22341      66   22347
   22341      66   22347   22344      67   22356   22353      66   22359   22353
      66   22359   22356      67   22368   22365      66   22371   22365      66
   22371   22368      67   22380   22377      66   22383   22377      66   22383
   22380      67   22392   22389      66   22395   22389      66   22395   22392
      67   22404   22401      66   22407   22401      66   22407   22404      67
   22416   22413      66   22419   22413      66   22419   22416      67   22428
   22425      66   22431   22425      66   22431   22428      67   22440   22437
      66   22443   22437      66   22443   22440      67   22452   22449      66
   22455   22449      66   22455   22452      67   22464   22461      66   22467
   22461      66   22467   22464      67   22476   22473      66   22479   22473
      66   22479   22476      67   22488   22485      66   22491   22485      66
   22491   22488      67   22500   22497      66   22503   22497      66   22503
   22500      67   22512   22509      66   22515   22509      66   22515   22512
      67   22524   22521      66   22527   22521      66   22527   22524      67
   22536   22533      66   22539   22533      66   22539   22536      67   22548
   22545      66   22551   22545      66   22551   22548      67   22560   22557
      66   22563   22557      66   22563   22560      67   22572   22569      66
   22575   22569      66   22575   22572      67   22584   22581      66   22587
   22581      66   22587   22584      67   22596   22593      66   22599   22593
      66   22599   22596      67   22608   22605      66   22611   22605      66
   22611   22608      67   22620   22617      66   22623   22617      66   22623
   22620      67   22632   22629      66   22635   22629      66   22635   22632
      67   22644   22641      66   22647   22641      66   22647   22644      67
   22656   22653      66   22659   22653      66   22659   22656      67   22668
   22665      66   22671   22665      66   22671   22668      67   22680   22677
      66   22683   22677      66   22683   22680      67   22692   22689      66
   22695   22689      66   22695   22692      67   22704   22701      66   22707
   22701      66   22707   22704      67   22716   22713      66   22719   22713
      66   22719   22716      67   22728   22725      66   22731   22725      66
   22731   22728      67   22740   22737      66   22743   22737      66   22743
   22740      67   22752   22749      66   22755   22749      66   22755   22752
      67   22764   22761      66   22767   22761      66   22767   22764      67
   22776   22773      66   22779   22773      66   22779   22776      67   22788
   22785      66   22791   22785      66   22791   22788      67   22800   22797
      66   22803   22797      66   22803   22800      67   22812   22809      66
   22815   22809      66   22815   22812      67   22824   22821      66   22827
   22821      66   22827   22824      67   22836   22833      66   22839   22833
      66   22839   22836      67   22848   22845      66   22851   22845      66
   22851   22848      67   22860   22857      66   22863   22857      66   22863
   22860      67   22872   22869      66   22875   22869      66   22875   22872
      67   22884   22881      66   22887   22881      66   22887   22884      67
   22896   22893      66   22899   22893      66   22899   22896      67   22908
   22905      66   22911   22905      66   22911   22908      67   22920   22917
      66   22923   22917      66   22923   22920      67   22932   22929      66
   22935   22929      66   22935   22932      67   22944   22941      66   22947
   22941      66   22947   22944      67   22956   22953      66   22959   22953
      66   22959   22956      67   22968   22965      66   22971   22965      66
   22971   22968      67   22980   22977      66   22983   22977      66   22983
   22980      67   22992   22989      66   22995   22989      66   22995   22992
      67   23004   23001      66   23007   23001      66   23007   23004      67
   23016   23013      66   23019   23013      66   23019   23016      67   23028
   23025      66   23031   23025      66   23031   23028      67   23040   23037
      66   23043   23037      66   23043   23040      67   23052   23049      66
   23055   23049      66   23055   23052      67   23064   23061      66   23067
   23061      66   23067   23064      67   23076   23073      66   23079   23073
      66   23079   23076      67   23088   23085      66   23091   23085      66
   23091   23088      67   23100   23097      66   23103   23097      66   23103
   23100      67   23112   23109      66   23115   23109      66   23115   23112
      67   23124   23121      66   23127   23121      66   23127   23124      67
   23136   23133      66   23139   23133      66   23139   23136      67   23148
   23145      66   23151   23145      66   23151   23148      67   23160   23157
      66   23163   23157      66   23163   23160      67   23172   23169      66
   23175   23169      66   23175   23172      67   23184   23181      66   23187
   23181      66   23187   23184      67   23196   23193      66   23199   23193
      66   23199   23196      67   23208   23205      66   23211   23205      66
   23211   23208      67   23220   23217      66   23223   23217      66   23223
   23220      67   23232   23229      66   23235   23229      66   23235   23232
      67   23244   23241      66   23247   23241      66   23247   23244      67
   23256   23253      66   23259   23253      66   23259   23256      67   23268
   23265      66   23271   23265      66   23271   23268      67   23280   23277
      66   23283   23277      66   23283   23280      67   23292   23289      66
   23295   23289      66   23295   23292      67   23304   23301      66   23307
   23301      66   23307   23304      67   23316   23313      66   23319   23313
      66   23319   23316      67   23328   23325      66   23331   23325      66
   23331   23328      67   23340   23337      66   23343   23337      66   23343
   23340      67   23352   23349      66   23355   23349      66   23355   23352
      67   23364   23361      66   23367   23361      66   23367   23364      67
   23376   23373      66   23379   23373      66   23379   23376      67   23388
   23385      66   23391   23385      66   23391   23388      67   23400   23397
      66   23403   23397      66   23403   23400      67   23412   23409      66
   23415   23409      66   23415   23412      67   23424   23421      66   23427
   23421      66   23427   23424      67   23436   23433      66   23439   23433
      66   23439   23436      67   23448   23445      66   23451   23445      66
   23451   23448      67   23460   23457      66   23463   23457      66   23463
   23460      67   23472   23469      66   23475   23469      66   23475   23472
      67   23484   23481      66   23487   23481      66   23487   23484      67
   23496   23493      66   23499   23493      66   23499   23496      67   23508
   23505      66   23511   23505      66   23511   23508      67   23520   23517
      66   23523   23517      66   23523   23520      67   23532   23529      66
   23535   23529      66   23535   23532      67   23544   23541      66   23547
   23541      66   23547   23544      67   23556   23553      66   23559   23553
      66   23559   23556      67   23568   23565      66   23571   23565      66
   23571   23568      67   23580   23577      66   23583   23577      66   23583
   23580      67   23592   23589      66   23595   23589      66   23595   23592
      67   23604   23601      66   23607   23601      66   23607   23604      67
   23616   23613      66   23619   23613      66   23619   23616      67   23628
   23625      66   23631   23625      66   23631   23628      67   23640   23637
      66   23643   23637      66   23643   23640      67   23652   23649      66
   23655   23649      66   23655   23652      67   23664   23661      66   23667
   23661      66   23667   23664      67   23676   23673      66   23679   23673
      66   23679   23676      67   23688   23685      66   23691   23685      66
   23691   23688      67   23700   23697      66   23703   23697      66   23703
   23700      67   23712   23709      66   23715   23709      66   23715   23712
      67   23724   23721      66   23727   23721      66   23727   23724      67
   23736   23733      66   23739   23733      66   23739   23736      67   23748
   23745      66   23751   23745      66   23751   23748      67   23760   23757
      66   23763   23757      66   23763   23760      67   23772   23769      66
   23775   23769      66   23775   23772      67   23784   23781      66   23787
   23781      66   23787   23784      67   23796   23793      66   23799   23793
      66   23799   23796      67   23808   23805      66   23811   23805      66
   23811   23808      67   23820   23817      66   23823   23817      66   23823
   23820      67   23832   23829      66   23835   23829      66   23835   23832
      67   23844   23841      66   23847   23841      66   23847   23844      67
   23856   23853      66   23859   23853      66   23859   23856      67   23868
   23865      66   23871   23865      66   23871   23868      67   23880   23877
      66   23883   23877      66   23883   23880      67   23892   23889      66
   23895   23889      66   23895   23892      67   23904   23901      66   23907
   23901      66   23907   23904      67   23916   23913      66   23919   23913
      66   23919   23916      67   23928   23925      66   23931   23925      66
   23931   23928      67   23940   23937      66   23943   23937      66   23943
   23940      67   23952   23949      66   23955   23949      66   23955   23952
      67   23964   23961      66   23967   23961      66   23967   23964      67
   23976   23973      66   23979   23973      66   23979   23976      67   23988
   23985      66   23991   23985      66   23991   23988      67   24000   23997
      66   24003   23997      66   24003   24000      67   24012   24009      66
   24015   24009      66   24015   24012      67   24024   24021      66   24027
   24021      66   24027   24024      67   24036   24033      66   24039   24033
      66   24039   24036      67   24048   24045      66   24051   24045      66
   24051   24048      67   24060   24057      66   24063   24057      66   24063
   24060      67   24072   24069      66   24075   24069      66   24075   24072
      67   24084   24081      66   24087   24081      66   24087   24084      67
   24096   24093      66   24099   24093      66   24099   24096      67   24108
   24105      66   24111   24105      66   24111   24108      67   24120   24117
      66   24123   24117      66   24123   24120      67   24132   24129      66
   24135   24129      66   24135   24132      67   24144   24141      66   24147
   24141      66   24147   24144      67   24156   24153      66   24159   24153
      66   24159   24156      67   24168   24165      66   24171   24165      66
   24171   24168      67   24180   24177      66   24183   24177      66   24183
   24180      67   24192   24189      66   24195   24189      66   24195   24192
      67   24204   24201      66   24207   24201      66   24207   24204      67
   24216   24213      66   24219   24213      66   24219   24216      67   24228
   24225      66   24231   24225      66   24231   24228      67   24240   24237
      66   24243   24237      66   24243   24240      67   24252   24249      66
   24255   24249      66   24255   24252      67   24264   24261      66   24267
   24261      66   24267   24264      67   24276   24273      66   24279   24273
      66   24279   24276      67   24288   24285      66   24291   24285      66
   24291   24288      67   24300   24297      66   24303   24297      66   24303
   24300      67   24312   24309      66   24315   24309      66   24315   24312
      67   24324   24321      66   24327   24321      66   24327   24324      67
   24336   24333      66   24339   24333      66   24339   24336      67   24348
   24345      66   24351   24345      66   24351   24348      67   24360   24357
      66   24363   24357      66   24363   24360      67   24372   24369      66
   24375   24369      66   24375   24372      67   24384   24381      66   24387
   24381      66   24387   24384      67   24396   24393      66   24399   24393
      66   24399   24396      67   24408   24405      66   24411   24405      66
   24411   24408      67   24420   24417      66   24423   24417      66   24423
   24420      67   24432   24429      66   24435   24429      66   24435   24432
      67   24444   24441      66   24447   24441      66   24447   24444      67
   24456   24453      66   24459   24453      66   24459   24456      67   24468
   24465      66   24471   24465      66   24471   24468      67   24480   24477
      66   24483   24477      66   24483   24480      67   24492   24489      66
   24495   24489      66   24495   24492      67   24504   24501      66   24507
   24501      66   24507   24504      67   24516   24513      66   24519   24513
      66   24519   24516      67   24528   24525      66   24531   24525      66
   24531   24528      67   24540   24537      66   24543   24537      66   24543
   24540      67   24552   24549      66   24555   24549      66   24555   24552
      67   24564   24561      66   24567   24561      66   24567   24564      67
   24576   24573      66   24579   24573      66   24579   24576      67   24588
   24585      66   24591   24585      66   24591   24588      67   24600   24597
      66   24603   24597      66   24603   24600      67   24612   24609      66
   24615   24609      66   24615   24612      67   24624   24621      66   24627
   24621      66   24627   24624      67   24636   24633      66   24639   24633
      66   24639   24636      67   24648   24645      66   24651   24645      66
   24651   24648      67   24660   24657      66   24663   24657      66   24663
   24660      67   24672   24669      66   24675   24669      66   24675   24672
      67   24684   24681      66   24687   24681      66   24687   24684      67
   24696   24693      66   24699   24693      66   24699   24696      67   24708
   24705      66   24711   24705      66   24711   24708      67   24720   24717
      66   24723   24717      66   24723   24720      67   24732   24729      66
   24735   24729      66   24735   24732      67   24744   24741      66   24747
   24741      66   24747   24744      67   24756   24753      66   24759   24753
      66   24759   24756      67   24768   24765      66   24771   24765      66
   24771   24768      67   24780   24777      66   24783   24777      66   24783
   24780      67   24792   24789      66   24795   24789      66   24795   24792
      67   24804   24801      66   24807   24801      66   24807   24804      67
   24816   24813      66   24819   24813      66   24819   24816      67   24828
   24825      66   24831   24825      66   24831   24828      67   24840   24837
      66   24843   24837      66   24843   24840      67   24852   24849      66
   24855   24849      66   24855   24852      67   24864   24861      66   24867
   24861      66   24867   24864      67   24876   24873      66   24879   24873
      66   24879   24876      67   24888   24885      66   24891   24885      66
   24891   24888      67   24900   24897      66   24903   24897      66   24903
   24900      67   24912   24909      66   24915   24909      66   24915   24912
      67   24924   24921      66   24927   24921      66   24927   24924      67
   24936   24933      66   24939   24933      66   24939   24936      67   24948
   24945      66   24951   24945      66   24951   24948      67   24960   24957
      66   24963   24957      66   24963   24960      67   24972   24969      66
   24975   24969      66   24975   24972      67   24984   24981      66   24987
   24981      66   24987   24984      67   24996   24993      66   24999   24993
      66   24999   24996      67   25008   25005      66   25011   25005      66
   25011   25008      67   25020   25017      66   25023   25017      66   25023
   25020      67   25032   25029      66   25035   25029      66   25035   25032
      67   25044   25041      66   25047   25041      66   25047   25044      67
   25056   25053      66   25059   25053      66   25059   25056      67   25068
   25065      66   25071   25065      66   25071   25068      67   25080   25077
      66   25083   25077      66   25083   25080      67   25092   25089      66
   25095   25089      66   25095   25092      67   25104   25101      66   25107
   25101      66   25107   25104      67   25116   25113      66   25119   25113
      66   25119   25116      67   25128   25125      66   25131   25125      66
   25131   25128      67   25140   25137      66   25143   25137      66   25143
   25140      67   25152   25149      66   25155   25149      66   25155   25152
      67   25164   25161      66   25167   25161      66   25167   25164      67
   25176   25173      66   25179   25173      66   25179   25176      67   25188
   25185      66   25191   25185      66   25191   25188      67   25200   25197
      66   25203   25197      66   25203   25200      67   25212   25209      66
   25215   25209      66   25215   25212      67   25224   25221      66   25227
   25221      66   25227   25224      67   25236   25233      66   25239   25233
      66   25239   25236      67   25248   25245      66   25251   25245      66
   25251   25248      67   25260   25257      66   25263   25257      66   25263
   25260      67   25272   25269      66   25275   25269      66   25275   25272
      67   25284   25281      66   25287   25281      66   25287   25284      67
   25296   25293      66   25299   25293      66   25299   25296      67   25308
   25305      66   25311   25305      66   25311   25308      67   25320   25317
      66   25323   25317      66   25323   25320      67   25332   25329      66
   25335   25329      66   25335   25332      67   25344   25341      66   25347
   25341      66   25347   25344      67   25356   25353      66   25359   25353
      66   25359   25356      67   25368   25365      66   25371   25365      66
   25371   25368      67   25380   25377      66   25383   25377      66   25383
   25380      67   25392   25389      66   25395   25389      66   25395   25392
      67   25404   25401      66   25407   25401      66   25407   25404      67
   25416   25413      66   25419   25413      66   25419   25416      67   25428
   25425      66   25431   25425      66   25431   25428      67   25440   25437
      66   25443   25437      66   25443   25440      67   25452   25449      66
   25455   25449      66   25455   25452      67   25464   25461      66   25467
   25461      66   25467   25464      67   25476   25473      66   25479   25473
      66   25479   25476      67   25488   25485      66   25491   25485      66
   25491   25488      67   25500   25497      66   25503   25497      66   25503
   25500      67   25512   25509      66   25515   25509      66   25515   25512
      67   25524   25521      66   25527   25521      66   25527   25524      67
   25536   25533      66   25539   25533      66   25539   25536      67   25548
   25545      66   25551   25545      66   25551   25548      67   25560   25557
      66   25563   25557      66   25563   25560      67   25572   25569      66
   25575   25569      66   25575   25572      67   25584   25581      66   25587
   25581      66   25587   25584      67   25596   25593      66   25599   25593
      66   25599   25596      67   25608   25605      66   25611   25605      66
   25611   25608      67   25620   25617      66   25623   25617      66   25623
   25620      67   25632   25629      66   25635   25629      66   25635   25632
      67   25644   25641      66   25647   25641      66   25647   25644      67
   25656   25653      66   25659   25653      66   25659   25656      67   25668
   25665      66   25671   25665      66   25671   25668      67   25680   25677
      66   25683   25677      66   25683   25680      67   25692   25689      66
   25695   25689      66   25695   25692      67   25704   25701      66   25707
   25701      66   25707   25704      67   25716   25713      66   25719   25713
      66   25719   25716      67   25728   25725      66   25731   25725      66
   25731   25728      67   25740   25737      66   25743   25737      66   25743
   25740      67   25752   25749      66   25755   25749      66   25755   25752
      67   25764   25761      66   25767   25761      66   25767   25764      67
   25776   25773      66   25779   25773      66   25779   25776      67   25788
   25785      66   25791   25785      66   25791   25788      67   25800   25797
      66   25803   25797      66   25803   25800      67   25812   25809      66
   25815   25809      66   25815   25812      67   25824   25821      66   25827
   25821      66   25827   25824      67   25836   25833      66   25839   25833
      66   25839   25836      67   25848   25845      66   25851   25845      66
   25851   25848      67   25860   25857      66   25863   25857      66   25863
   25860      67   25872   25869      66   25875   25869      66   25875   25872
      67   25884   25881      66   25887   25881      66   25887   25884      67
   25896   25893      66   25899   25893      66   25899   25896      67   25908
   25905      66   25911   25905      66   25911   25908      67   25920   25917
      66   25923   25917      66   25923   25920      67   25932   25929      66
   25935   25929      66   25935   25932      67   25944   25941      66   25947
   25941      66   25947   25944      67   25956   25953      66   25959   25953
      66   25959   25956      67   25968   25965      66   25971   25965      66
   25971   25968      67   25980   25977      66   25983   25977      66   25983
   25980      67   25992   25989      66   25995   25989      66   25995   25992
      67   26004   26001      66   26007   26001      66   26007   26004      67
   26016   26013      66   26019   26013      66   26019   26016      67   26028
   26025      66   26031   26025      66   26031   26028      67   26040   26037
      66   26043   26037      66   26043   26040      67   26052   26049      66
   26055   26049      66   26055   26052      67   26064   26061      66   26067
   26061      66   26067   26064      67   26076   26073      66   26079   26073
      66   26079   26076      67   26088   26085      66   26091   26085      66
   26091   26088      67   26100   26097      66   26103   26097      66   26103
   26100      67   26112   26109      66   26115   26109      66   26115   26112
      67   26124   26121      66   26127   26121      66   26127   26124      67
   26136   26133      66   26139   26133      66   26139   26136      67   26148
   26145      66   26151   26145      66   26151   26148      67   26160   26157
      66   26163   26157      66   26163   26160      67   26172   26169      66
   26175   26169      66   26175   26172      67   26184   26181      66   26187
   26181      66   26187   26184      67   26196   26193      66   26199   26193
      66   26199   26196      67   26208   26205      66   26211   26205      66
   26211   26208      67   26220   26217      66   26223   26217      66   26223
   26220      67   26232   26229      66   26235   26229      66   26235   26232
      67   26244   26241      66   26247   26241      66   26247   26244      67
   26256   26253      66   26259   26253      66   26259   26256      67   26268
   26265      66   26271   26265      66   26271   26268      67   26280   26277
      66   26283   26277      66   26283   26280      67   26292   26289      66
   26295   26289      66   26295   26292      67   26304   26301      66   26307
   26301      66   26307   26304      67   26316   26313      66   26319   26313
      66   26319   26316      67   26328   26325      66   26331   26325      66
   26331   26328      67   26340   26337      66   26343   26337      66   26343
   26340      67   26352   26349      66   26355   26349      66   26355   26352
      67   26364   26361      66   26367   26361      66   26367   26364      67
   26376   26373      66   26379   26373      66   26379   26376      67   26388
   26385      66   26391   26385      66   26391   26388      67   26400   26397
      66   26403   26397      66   26403   26400      67   26412   26409      66
   26415   26409      66   26415   26412      67   26424   26421      66   26427
   26421      66   26427   26424      67   26436   26433      66   26439   26433
      66   26439   26436      67   26448   26445      66   26451   26445      66
   26451   26448      67   26460   26457      66   26463   26457      66   26463
   26460      67   26472   26469      66   26475   26469      66   26475   26472
      67   26484   26481      66   26487   26481      66   26487   26484      67
   26496   26493      66   26499   26493      66   26499   26496      67   26508
   26505      66   26511   26505      66   26511   26508      67   26520   26517
      66   26523   26517      66   26523   26520      67   26532   26529      66
   26535   26529      66   26535   26532      67   26544   26541      66   26547
   26541      66   26547   26544      67   26556   26553      66   26559   26553
      66   26559   26556      67   26568   26565      66   26571   26565      66
   26571   26568      67   26580   26577      66   26583   26577      66   26583
   26580      67   26592   26589      66   26595   26589      66   26595   26592
      67   26604   26601      66   26607   26601      66   26607   26604      67
   26616   26613      66   26619   26613      66   26619   26616      67   26628
   26625      66   26631   26625      66   26631   26628      67   26640   26637
      66   26643   26637      66   26643   26640      67   26652   26649      66
   26655   26649      66   26655   26652      67   26664   26661      66   26667
   26661      66   26667   26664      67   26676   26673      66   26679   26673
      66   26679   26676      67   26688   26685      66   26691   26685      66
   26691   26688      67   26700   26697      66   26703   26697      66   26703
   26700      67   26712   26709      66   26715   26709      66   26715   26712
      67   26724   26721      66   26727   26721      66   26727   26724      67
   26736   26733      66   26739   26733      66   26739   26736      67   26748
   26745      66   26751   26745      66   26751   26748      67   26760   26757
      66   26763   26757      66   26763   26760      67   26772   26769      66
   26775   26769      66   26775   26772      67   26784   26781      66   26787
   26781      66   26787   26784      67   26796   26793      66   26799   26793
      66   26799   26796      67   26808   26805      66   26811   26805      66
   26811   26808      67   26820   26817      66   26823   26817      66   26823
   26820      67   26832   26829      66   26835   26829      66   26835   26832
      67   26844   26841      66   26847   26841      66   26847   26844      67
   26856   26853      66   26859   26853      66   26859   26856      67   26868
   26865      66   26871   26865      66   26871   26868      67   26880   26877
      66   26883   26877      66   26883   26880      67   26892   26889      66
   26895   26889      66   26895   26892      67   26904   26901      66   26907
   26901      66   26907   26904      67   26916   26913      66   26919   26913
      66   26919   26916      67   26928   26925      66   26931   26925      66
   26931   26928      67   26940   26937      66   26943   26937      66   26943
   26940      67   26952   26949      66   26955   26949      66   26955   26952
      67   26964   26961      66   26967   26961      66   26967   26964      67
   26976   26973      66   26979   26973      66   26979   26976      67   26988
   26985      66   26991   26985      66   26991   26988      67   27000   26997
      66   27003   26997      66   27003   27000      67   27012   27009      66
   27015   27009      66   27015   27012      67   27024   27021      66   27027
   27021      66   27027   27024      67   27036   27033      66   27039   27033
      66   27039   27036      67   27048   27045      66   27051   27045      66
   27051   27048      67   27060   27057      66   27063   27057      66   27063
   27060      67   27072   27069      66   27075   27069      66   27075   27072
      67   27084   27081      66   27087   27081      66   27087   27084      67
   27096   27093      66   27099   27093      66   27099   27096      67   27108
   27105      66   27111   27105      66   27111   27108      67   27120   27117
      66   27123   27117      66   27123   27120      67   27132   27129      66
   27135   27129      66   27135   27132      67   27144   27141      66   27147
   27141      66   27147   27144      67   27156   27153      66   27159   27153
      66   27159   27156      67   27168   27165      66   27171   27165      66
   27171   27168      67   27180   27177      66   27183   27177      66   27183
   27180      67   27192   27189      66   27195   27189      66   27195   27192
      67   27204   27201      66   27207   27201      66   27207   27204      67
   27216   27213      66   27219   27213      66   27219   27216      67   27228
   27225      66   27231   27225      66   27231   27228      67   27240   27237
      66   27243   27237      66   27243   27240      67   27252   27249      66
   27255   27249      66   27255   27252      67   27264   27261      66   27267
   27261      66   27267   27264      67   27276   27273      66   27279   27273
      66   27279   27276      67   27288   27285      66   27291   27285      66
   27291   27288      67   27300   27297      66   27303   27297      66   27303
   27300      67   27312   27309      66   27315   27309      66   27315   27312
      67   27324   27321      66   27327   27321      66   27327   27324      67
   27336   27333      66   27339   27333      66   27339   27336      67   27348
   27345      66   27351   27345      66   27351   27348      67   27360   27357
      66   27363   27357      66   27363   27360      67   27372   27369      66
   27375   27369      66   27375   27372      67   27384   27381      66   27387
   27381      66   27387   27384      67   27396   27393      66   27399   27393
      66   27399   27396      67   27408   27405      66   27411   27405      66
   27411   27408      67   27420   27417      66   27423   27417      66   27423
   27420      67   27432   27429      66   27435   27429      66   27435   27432
      67   27444   27441      66   27447   27441      66   27447   27444      67
   27456   27453      66   27459   27453      66   27459   27456      67   27468
   27465      66   27471   27465      66   27471   27468      67   27480   27477
      66   27483   27477      66   27483   27480      67   27492   27489      66
   27495   27489      66   27495   27492      67   27504   27501      66   27507
   27501      66   27507   27504      67   27516   27513      66   27519   27513
      66   27519   27516      67   27528   27525      66   27531   27525      66
   27531   27528      67   27540   27537      66   27543   27537      66   27543
   27540      67   27552   27549      66   27555   27549      66   27555   27552
      67   27564   27561      66   27567   27561      66   27567   27564      67
   27576   27573      66   27579   27573      66   27579   27576      67   27588
   27585      66   27591   27585      66   27591   27588      67   27600   27597
      66   27603   27597      66   27603   27600      67   27612   27609      66
   27615   27609      66   27615   27612      67   27624   27621      66   27627
   27621      66   27627   27624      67   27636   27633      66   27639   27633
      66   27639   27636      67   27648   27645      66   27651   27645      66
   27651   27648      67   27660   27657      66   27663   27657      66   27663
   27660      67   27672   27669      66   27675   27669      66   27675   27672
      67   27684   27681      66   27687   27681      66   27687   27684      67
   27696   27693      66   27699   27693      66   27699   27696      67   27708
   27705      66   27711   27705      66   27711   27708      67   27720   27717
      66   27723   27717      66   27723   27720      67   27732   27729      66
   27735   27729      66   27735   27732      67   27744   27741      66   27747
   27741      66   27747   27744      67   27756   27753      66   27759   27753
      66   27759   27756      67   27768   27765      66   27771   27765      66
   27771   27768      67   27780   27777      66   27783   27777      66   27783
   27780      67   27792   27789      66   27795   27789      66   27795   27792
      67   27804   27801      66   27807   27801      66   27807   27804      67
   27816   27813      66   27819   27813      66   27819   27816      67   27828
   27825      66   27831   27825      66   27831   27828      67   27840   27837
      66   27843   27837      66   27843   27840      67   27852   27849      66
   27855   27849      66   27855   27852      67   27864   27861      66   27867
   27861      66   27867   27864      67   27876   27873      66   27879   27873
      66   27879   27876      67   27888   27885      66   27891   27885      66
   27891   27888      67   27900   27897      66   27903   27897      66   27903
   27900      67   27912   27909      66   27915   27909      66   27915   27912
      67   27924   27921      66   27927   27921      66   27927   27924      67
   27936   27933      66   27939   27933      66   27939   27936      67   27948
   27945      66   27951   27945      66   27951   27948      67   27960   27957
      66   27963   27957      66   27963   27960      67   27972   27969      66
   27975   27969      66   27975   27972      67   27984   27981      66   27987
   27981      66   27987   27984      67   27996   27993      66   27999   27993
      66   27999   27996      67   28008   28005      66   28011   28005      66
   28011   28008      67   28020   28017      66   28023   28017      66   28023
   28020      67   28032   28029      66   28035   28029      66   28035   28032
      67   28044   28041      66   28047   28041      66   28047   28044      67
   28056   28053      66   28059   28053      66   28059   28056      67   28068
   28065      66   28071   28065      66   28071   28068      67   28080   28077
      66   28083   28077      66   28083   28080      67   28092   28089      66
   28095   28089      66   28095   28092      67   28104   28101      66   28107
   28101      66   28107   28104      67   28116   28113      66   28119   28113
      66   28119   28116      67   28128   28125      66   28131   28125      66
   28131   28128      67   28140   28137      66   28143   28137      66   28143
   28140      67   28152   28149      66   28155   28149      66   28155   28152
      67   28164   28161      66   28167   28161      66   28167   28164      67
   28176   28173      66   28179   28173      66   28179   28176      67   28188
   28185      66   28191   28185      66   28191   28188      67   28200   28197
      66   28203   28197      66   28203   28200      67   28212   28209      66
   28215   28209      66   28215   28212      67   28224   28221      66   28227
   28221      66   28227   28224      67   28236   28233      66   28239   28233
      66   28239   28236      67   28248   28245      66   28251   28245      66
   28251   28248      67   28260   28257      66   28263   28257      66   28263
   28260      67   28272   28269      66   28275   28269      66   28275   28272
      67   28284   28281      66   28287   28281      66   28287   28284      67
   28296   28293      66   28299   28293      66   28299   28296      67   28308
   28305      66   28311   28305      66   28311   28308      67   28320   28317
      66   28323   28317      66   28323   28320      67   28332   28329      66
   28335   28329      66   28335   28332      67   28344   28341      66   28347
   28341      66   28347   28344      67   28356   28353      66   28359   28353
      66   28359   28356      67   28368   28365      66   28371   28365      66
   28371   28368      67   28380   28377      66   28383   28377      66   28383
   28380      67   28392   28389      66   28395   28389      66   28395   28392
      67   28404   28401      66   28407   28401      66   28407   28404      67
   28416   28413      66   28419   28413      66   28419   28416      67   28428
   28425      66   28431   28425      66   28431   28428      67   28440   28437
      66   28443   28437      66   28443   28440      67   28452   28449      66
   28455   28449      66   28455   28452      67   28464   28461      66   28467
   28461      66   28467   28464      67   28476   28473      66   28479   28473
      66   28479   28476      67   28488   28485      66   28491   28485      66
   28491   28488      67   28500   28497      66   28503   28497      66   28503
   28500      67   28512   28509      66   28515   28509      66   28515   28512
      67   28524   28521      66   28527   28521      66   28527   28524      67
   28536   28533      66   28539   28533      66   28539   28536      67   28548
   28545      66   28551   28545      66   28551   28548      67   28560   28557
      66   28563   28557      66   28563   28560      67   28572   28569      66
   28575   28569      66   28575   28572      67   28584   28581      66   28587
   28581      66   28587   28584      67   28596   28593      66   28599   28593
      66   28599   28596      67   28608   28605      66   28611   28605      66
   28611   28608      67   28620   28617      66   28623   28617      66   28623
   28620      67   28632   28629      66   28635   28629      66   28635   28632
      67   28644   28641      66   28647   28641      66   28647   28644      67
   28656   28653      66   28659   28653      66   28659   28656      67   28668
   28665      66   28671   28665      66   28671   28668      67   28680   28677
      66   28683   28677      66   28683   28680      67   28692   28689      66
   28695   28689      66   28695   28692      67   28704   28701      66   28707
   28701      66   28707   28704      67   28716   28713      66   28719   28713
      66   28719   28716      67   28728   28725      66   28731   28725      66
   28731   28728      67   28740   28737      66   28743   28737      66   28743
   28740      67   28752   28749      66   28755   28749      66   28755   28752
      67   28764   28761      66   28767   28761      66   28767   28764      67
   28776   28773      66   28779   28773      66   28779   28776      67   28788
   28785      66   28791   28785      66   28791   28788      67   28800   28797
      66   28803   28797      66   28803   28800      67   28812   28809      66
   28815   28809      66   28815   28812      67   28824   28821      66   28827
   28821      66   28827   28824      67   28836   28833      66   28839   28833
      66   28839   28836      67   28848   28845      66   28851   28845      66
   28851   28848      67   28860   28857      66   28863   28857      66   28863
   28860      67   28872   28869      66   28875   28869      66   28875   28872
      67   28884   28881      66   28887   28881      66   28887   28884      67
   28896   28893      66   28899   28893      66   28899   28896      67   28908
   28905      66   28911   28905      66   28911   28908      67   28920   28917
      66   28923   28917      66   28923   28920      67   28932   28929      66
   28935   28929      66   28935   28932      67   28944   28941      66   28947
   28941      66   28947   28944      67   28956   28953      66   28959   28953
      66   28959   28956      67   28968   28965      66   28971   28965      66
   28971   28968      67   28980   28977      66   28983   28977      66   28983
   28980      67   28992   28989      66   28995   28989      66   28995   28992
      67   29004   29001      66   29007   29001      66   29007   29004      67
   29016   29013      66   29019   29013      66   29019   29016      67   29028
   29025      66   29031   29025      66   29031   29028      67   29040   29037
      66   29043   29037      66   29043   29040      67   29052   29049      66
   29055   29049      66   29055   29052      67   29064   29061      66   29067
   29061      66   29067   29064      67   29076   29073      66   29079   29073
      66   29079   29076      67   29088   29085      66   29091   29085      66
   29091   29088      67   29100   29097      66   29103   29097      66   29103
   29100      67   29112   29109      66   29115   29109      66   29115   29112
      67   29124   29121      66   29127   29121      66   29127   29124      67
   29136   29133      66   29139   29133      66   29139   29136      67   29148
   29145      66   29151   29145      66   29151   29148      67   29160   29157
      66   29163   29157      66   29163   29160      67   29172   29169      66
   29175   29169      66   29175   29172      67   29184   29181      66   29187
   29181      66   29187   29184      67   29196   29193      66   29199   29193
      66   29199   29196      67   29208   29205      66   29211   29205      66
   29211   29208      67   29220   29217      66   29223   29217      66   29223
   29220      67   29232   29229      66   29235   29229      66   29235   29232
      67   29244   29241      66   29247   29241      66   29247   29244      67
   29256   29253      66   29259   29253      66   29259   29256      67   29268
   29265      66   29271   29265      66   29271   29268      67   29280   29277
      66   29283   29277      66   29283   29280      67   29292   29289      66
   29295   29289      66   29295   29292      67   29304   29301      66   29307
   29301      66   29307   29304      67   29316   29313      66   29319   29313
      66   29319   29316      67   29328   29325      66   29331   29325      66
   29331   29328      67   29340   29337      66   29343   29337      66   29343
   29340      67   29352   29349      66   29355   29349      66   29355   29352
      67   29364   29361      66   29367   29361      66   29367   29364      67
   29376   29373      66   29379   29373      66   29379   29376      67   29388
   29385      66   29391   29385      66   29391   29388      67   29400   29397
      66   29403   29397      66   29403   29400      67   29412   29409      66
   29415   29409      66   29415   29412      67   29424   29421      66   29427
   29421      66   29427   29424      67   29436   29433      66   29439   29433
      66   29439   29436      67   29448   29445      66   29451   29445      66
   29451   29448      67   29460   29457      66   29463   29457      66   29463
   29460      67   29472   29469      66   29475   29469      66   29475   29472
      67   29484   29481      66   29487   29481      66   29487   29484      67
   29496   29493      66   29499   29493      66   29499   29496      67   29508
   29505      66   29511   29505      66   29511   29508      67   29520   29517
      66   29523   29517      66   29523   29520      67   29532   29529      66
   29535   29529      66   29535   29532      67   29544   29541      66   29547
   29541      66   29547   29544      67   29556   29553      66   29559   29553
      66   29559   29556      67   29568   29565      66   29571   29565      66
   29571   29568      67   29580   29577      66   29583   29577      66   29583
   29580      67   29592   29589      66   29595   29589      66   29595   29592
      67   29604   29601      66   29607   29601      66   29607   29604      67
   29616   29613      66   29619   29613      66   29619   29616      67   29628
   29625      66   29631   29625      66   29631   29628      67   29640   29637
      66   29643   29637      66   29643   29640      67   29652   29649      66
   29655   29649      66   29655   29652      67   29664   29661      66   29667
   29661      66   29667   29664      67   29676   29673      66   29679   29673
      66   29679   29676      67   29688   29685      66   29691   29685      66
   29691   29688      67   29700   29697      66   29703   29697      66   29703
   29700      67   29712   29709      66   29715   29709      66   29715   29712
      67   29724   29721      66   29727   29721      66   29727   29724      67
   29736   29733      66   29739   29733      66   29739   29736      67   29748
   29745      66   29751   29745      66   29751   29748      67   29760   29757
      66   29763   29757      66   29763   29760      67   29772   29769      66
   29775   29769      66   29775   29772      67   29784   29781      66   29787
   29781      66   29787   29784      67   29796   29793      66   29799   29793
      66   29799   29796      67   29808   29805      66   29811   29805      66
   29811   29808      67   29820   29817      66   29823   29817      66   29823
   29820      67   29832   29829      66   29835   29829      66   29835   29832
      67   29844   29841      66   29847   29841      66   29847   29844      67
   29856   29853      66   29859   29853      66   29859   29856      67   29868
   29865      66   29871   29865      66   29871   29868      67   29880   29877
      66   29883   29877      66   29883   29880      67   29892   29889      66
   29895   29889      66   29895   29892      67   29904   29901      66   29907
   29901      66   29907   29904      67   29916   29913      66   29919   29913
      66   29919   29916      67   29928   29925      66   29931   29925      66
   29931   29928      67   29940   29937      66   29943   29937      66   29943
   29940      67   29952   29949      66   29955   29949      66   29955   29952
      67   29964   29961      66   29967   29961      66   29967   29964      67
   29976   29973      66   29979   29973      66   29979   29976      67   29988
   29985      66   29991   29985      66   29991   29988      67   30000   29997
      66   30003   29997      66   30003   30000      67   30012   30009      66
   30015   30009      66   30015   30012      67   30024   30021      66   30027
   30021      66   30027   30024      67   30036   30033      66   30039   30033
      66   30039   30036      67   30048   30045      66   30051   30045      66
   30051   30048      67   30060   30057      66   30063   30057      66   30063
   30060      67   30072   30069      66   30075   30069      66   30075   30072
      67   30084   30081      66   30087   30081      66   30087   30084      67
   30096   30093      66   30099   30093      66   30099   30096      67   30108
   30105      66   30111   30105      66   30111   30108      67   30120   30117
      66   30123   30117      66   30123   30120      67   30132   30129      66
   30135   30129      66   30135   30132      67   30144   30141      66   30147
   30141      66   30147   30144      67   30156   30153      66   30159   30153
      66   30159   30156      67   30168   30165      66   30171   30165      66
   30171   30168      67   30180   30177      66   30183   30177      66   30183
   30180      67   30192   30189      66   30195   30189      66   30195   30192
      67   30204   30201      66   30207   30201      66   30207   30204      67
   30216   30213      66   30219   30213      66   30219   30216      67   30228
   30225      66   30231   30225      66   30231   30228      67   30240   30237
      66   30243   30237      66   30243   30240      67   30252   30249      66
   30255   30249      66   30255   30252      67   30264   30261      66   30267
   30261      66   30267   30264      67   30276   30273      66   30279   30273
      66   30279   30276      67   30288   30285      66   30291   30285      66
   30291   30288      67   30300   30297      66   30303   30297      66   30303
   30300      67   30312   30309      66   30315   30309      66   30315   30312
      67   30324   30321      66   30327   30321      66   30327   30324      67
   30336   30333      66   30339   30333      66   30339   30336      67   30348
   30345      66   30351   30345      66   30351   30348      67   30360   30357
      66   30363   30357      66   30363   30360      67   30372   30369      66
   30375   30369      66   30375   30372      67   30384   30381      66   30387
   30381      66   30387   30384      67   30396   30393      66   30399   30393
      66   30399   30396      67   30408   30405      66   30411   30405      66
   30411   30408      67   30420   30417      66   30423   30417      66   30423
   30420      67   30432   30429      66   30435   30429      66   30435   30432
      67   30444   30441      66   30447   30441      66   30447   30444      67
   30456   30453      66   30459   30453      66   30459   30456      67   30468
   30465      66   30471   30465      66   30471   30468      67   30480   30477
      66   30483   30477      66   30483   30480      67   30492   30489      66
   30495   30489      66   30495   30492      67   30504   30501      66   30507
   30501      66   30507   30504      67   30516   30513      66   30519   30513
      66   30519   30516      67   30528   30525      66   30531   30525      66
   30531   30528      67   30540   30537      66   30543   30537      66   30543
   30540      67   30552   30549      66   30555   30549      66   30555   30552
      67   30564   30561      66   30567   30561      66   30567   30564      67
   30576   30573      66   30579   30573      66   30579   30576      67   30588
   30585      66   30591   30585      66   30591   30588      67   30600   30597
      66   30603   30597      66   30603   30600      67   30612   30609      66
   30615   30609      66   30615   30612      67   30624   30621      66   30627
   30621      66   30627   30624      67   30636   30633      66   30639   30633
      66   30639   30636      67   30648   30645      66   30651   30645      66
   30651   30648      67   30660   30657      66   30663   30657      66   30663
   30660      67   30672   30669      66   30675   30669      66   30675   30672
      67   30684   30681      66   30687   30681      66   30687   30684      67
   30696   30693      66   30699   30693      66   30699   30696      67   30708
   30705      66   30711   30705      66   30711   30708      67   30720   30717
      66   30723   30717      66   30723   30720      67   30732   30729      66
   30735   30729      66   30735   30732      67   30744   30741      66   30747
   30741      66   30747   30744      67   30756   30753      66   30759   30753
      66   30759   30756      67   30768   30765      66   30771   30765      66
   30771   30768      67   30780   30777      66   30783   30777      66   30783
   30780      67   30792   30789      66   30795   30789      66   30795   30792
      67   30804   30801      66   30807   30801      66   30807   30804      67
   30816   30813      66   30819   30813      66   30819   30816      67   30828
   30825      66   30831   30825      66   30831   30828      67   30840   30837
      66   30843   30837      66   30843   30840      67   30852   30849      66
   30855   30849      66   30855   30852      67   30864   30861      66   30867
   30861      66   30867   30864      67   30876   30873      66   30879   30873
      66   30879   30876      67   30888   30885      66   30891   30885      66
   30891   30888      67   30900   30897      66   30903   30897      66   30903
   30900      67   30912   30909      66   30915   30909      66   30915   30912
      67   30924   30921      66   30927   30921      66   30927   30924      67
   30936   30933      66   30939   30933      66   30939   30936      67   30948
   30945      66   30951   30945      66   30951   30948      67   30960   30957
      66   30963   30957      66   30963   30960      67   30972   30969      66
   30975   30969      66   30975   30972      67   30984   30981      66   30987
   30981      66   30987   30984      67   30996   30993      66   30999   30993
      66   30999   30996      67   31008   31005      66   31011   31005      66
   31011   31008      67   31020   31017      66   31023   31017      66   31023
   31020      67   31032   31029      66   31035   31029      66   31035   31032
      67   31044   31041      66   31047   31041      66   31047   31044      67
   31056   31053      66   31059   31053      66   31059   31056      67   31068
   31065      66   31071   31065      66   31071   31068      67   31080   31077
      66   31083   31077      66   31083   31080      67   31092   31089      66
   31095   31089      66   31095   31092      67   31104   31101      66   31107
   31101      66   31107   31104      67   31116   31113      66   31119   31113
      66   31119   31116      67   31128   31125      66   31131   31125      66
   31131   31128      67   31140   31137      66   31143   31137      66   31143
   31140      67   31152   31149      66   31155   31149      66   31155   31152
      67   31164   31161      66   31167   31161      66   31167   31164      67
   31176   31173      66   31179   31173      66   31179   31176      67   31188
   31185      66   31191   31185      66   31191   31188      67   31200   31197
      66   31203   31197      66   31203   31200      67   31212   31209      66
   31215   31209      66   31215   31212      67   31224   31221      66   31227
   31221      66   31227   31224      67   31236   31233      66   31239   31233
      66   31239   31236      67   31248   31245      66   31251   31245      66
   31251   31248      67   31260   31257      66   31263   31257      66   31263
   31260      67   31272   31269      66   31275   31269      66   31275   31272
      67   31284   31281      66   31287   31281      66   31287   31284      67
   31296   31293      66   31299   31293      66   31299   31296      67   31308
   31305      66   31311   31305      66   31311   31308      67   31320   31317
      66   31323   31317      66   31323   31320      67   31332   31329      66
   31335   31329      66   31335   31332      67   31344   31341      66   31347
   31341      66   31347   31344      67   31356   31353      66   31359   31353
      66   31359   31356      67   31368   31365      66   31371   31365      66
   31371   31368      67   31380   31377      66   31383   31377      66   31383
   31380      67   31392   31389      66   31395   31389      66   31395   31392
      67   31404   31401      66   31407   31401      66   31407   31404      67
   31416   31413      66   31419   31413      66   31419   31416      67   31428
   31425      66   31431   31425      66   31431   31428      67   31440   31437
      66   31443   31437      66   31443   31440      67   31452   31449      66
   31455   31449      66   31455   31452      67   31464   31461      66   31467
   31461      66   31467   31464      67   31476   31473      66   31479   31473
      66   31479   31476      67   31488   31485      66   31491   31485      66
   31491   31488      67   31500   31497      66   31503   31497      66   31503
   31500      67   31512   31509      66   31515   31509      66   31515   31512
      67   31524   31521      66   31527   31521      66   31527   31524      67
   31536   31533      66   31539   31533      66   31539   31536      67   31548
   31545      66   31551   31545      66   31551   31548      67   31560   31557
      66   31563   31557      66   31563   31560      67   31572   31569      66
   31575   31569      66   31575   31572      67   31584   31581      66   31587
   31581      66   31587   31584      67   31596   31593      66   31599   31593
      66   31599   31596      67   31608   31605      66   31611   31605      66
   31611   31608      67   31620   31617      66   31623   31617      66   31623
   31620      67   31632   31629      66   31635   31629      66   31635   31632
      67   31644   31641      66   31647   31641      66   31647   31644      67
   31656   31653      66   31659   31653      66   31659   31656      67   31668
   31665      66   31671   31665      66   31671   31668      67   31680   31677
      66   31683   31677      66   31683   31680      67   31692   31689      66
   31695   31689      66   31695   31692      67   31704   31701      66   31707
   31701      66   31707   31704      67   31716   31713      66   31719   31713
      66   31719   31716      67   31728   31725      66   31731   31725      66
   31731   31728      67   31740   31737      66   31743   31737      66   31743
   31740      67   31752   31749      66   31755   31749      66   31755   31752
      67   31764   31761      66   31767   31761      66   31767   31764      67
   31776   31773      66   31779   31773      66   31779   31776      67   31788
   31785      66   31791   31785      66   31791   31788      67   31800   31797
      66   31803   31797      66   31803   31800      67   31812   31809      66
   31815   31809      66   31815   31812      67   31824   31821      66   31827
   31821      66   31827   31824      67   31836   31833      66   31839   31833
      66   31839   31836      67   31848   31845      66   31851   31845      66
   31851   31848      67   31860   31857      66   31863   31857      66   31863
   31860      67   31872   31869      66   31875   31869      66   31875   31872
      67   31884   31881      66   31887   31881      66   31887   31884      67
   31896   31893      66   31899   31893      66   31899   31896      67   31908
   31905      66   31911   31905      66   31911   31908      67   31920   31917
      66   31923   31917      66   31923   31920      67   31932   31929      66
   31935   31929      66   31935   31932      67   31944   31941      66   31947
   31941      66   31947   31944      67   31956   31953      66   31959   31953
      66   31959   31956      67   31968   31965      66   31971   31965      66
   31971   31968      67   31980   31977      66   31983   31977      66   31983
   31980      67   31992   31989      66   31995   31989      66   31995   31992
      67   32004   32001      66   32007   32001      66   32007   32004      67
   32016   32013      66   32019   32013      66   32019   32016      67   32028
   32025      66   32031   32025      66   32031   32028      67   32040   32037
      66   32043   32037      66   32043   32040      67   32052   32049      66
   32055   32049      66   32055   32052      67   32064   32061      66   32067
   32061      66   32067   32064      67   32076   32073      66   32079   32073
      66   32079   32076      67   32088   32085      66   32091   32085      66
   32091   32088      67   32100   32097      66   32103   32097      66   32103
   32100      67   32112   32109      66   32115   32109      66   32115   32112
      67   32124   32121      66   32127   32121      66   32127   32124      67
   32136   32133      66   32139   32133      66   32139   32136      67   32148
   32145      66   32151   32145      66   32151   32148      67   32160   32157
      66   32163   32157      66   32163   32160      67   32172   32169      66
   32175   32169      66   32175   32172      67   32184   32181      66   32187
   32181      66   32187   32184      67   32196   32193      66   32199   32193
      66   32199   32196      67   32208   32205      66   32211   32205      66
   32211   32208      67   32220   32217      66   32223   32217      66   32223
   32220      67   32232   32229      66   32235   32229      66   32235   32232
      67   32244   32241      66   32247   32241      66   32247   32244      67
   32256   32253      66   32259   32253      66   32259   32256      67   32268
   32265      66   32271   32265      66   32271   32268      67   32280   32277
      66   32283   32277      66   32283   32280      67   32292   32289      66
   32295   32289      66   32295   32292      67   32304   32301      66   32307
   32301      66   32307   32304      67   32316   32313      66   32319   32313
      66   32319   32316      67   32328   32325      66   32331   32325      66
   32331   32328      67   32340   32337      66   32343   32337      66   32343
   32340      67   32352   32349      66   32355   32349      66   32355   32352
      67   32364   32361      66   32367   32361      66   32367   32364      67
   32376   32373      66   32379   32373      66   32379   32376      67   32388
   32385      66   32391   32385      66   32391   32388      67   32400   32397
      66   32403   32397      66   32403   32400      67   32412   32409      66
   32415   32409      66   32415   32412      67   32424   32421      66   32427
   32421      66   32427   32424      67   32436   32433      66   32439   32433
      66   32439   32436      67   32448   32445      66   32451   32445      66
   32451   32448      67   32460   32457      66   32463   32457      66   32463
   32460      67   32472   32469      66   32475   32469      66   32475   32472
      67   32484   32481      66   32487   32481      66   32487   32484      67
   32496   32493      66   32499   32493      66   32499   32496      67   32508
   32505      66   32511   32505      66   32511   32508      67   32520   32517
      66   32523   32517      66   32523   32520      67   32532   32529      66
   32535   32529      66   32535   32532      67   32544   32541      66   32547
   32541      66   32547   32544      67   32556   32553      66   32559   32553
      66   32559   32556      67   32568   32565      66   32571   32565      66
   32571   32568      67   32580   32577      66   32583   32577      66   32583
   32580      67   32592   32589      66   32595   32589      66   32595   32592
      67   32604   32601      66   32607   32601      66   32607   32604      67
   32616   32613      66   32619   32613      66   32619   32616      67   32628
   32625      66   32631   32625      66   32631   32628      67   32640   32637
      66   32643   32637      66   32643   32640      67   32652   32649      66
   32655   32649      66   32655   32652      67   32664   32661      66   32667
   32661      66   32667   32664      67   32676   32673      66   32679   32673
      66   32679   32676      67   32688   32685      66   32691   32685      66
   32691   32688      67   32700   32697      66   32703   32697      66   32703
   32700      67   32712   32709      66   32715   32709      66   32715   32712
      67   32724   32721      66   32727   32721      66   32727   32724      67
   32736   32733      66   32739   32733      66   32739   32736      67   32748
   32745      66   32751   32745      66   32751   32748      67   32760   32757
      66   32763   32757      66   32763   32760      67   32772   32769      66
   32775   32769      66   32775   32772      67   32784   32781      66   32787
   32781      66   32787   32784      67   32796   32793      66   32799   32793
      66   32799   32796      67   32808   32805      66   32811   32805      66
   32811   32808      67   32820   32817      66   32823   32817      66   32823
   32820      67   32832   32829      66   32835   32829      66   32835   32832
      67   32844   32841      66   32847   32841      66   32847   32844      67
   32856   32853      66   32859   32853      66   32859   32856      67   32868
   32865      66   32871   32865      66   32871   32868      67   32880   32877
      66   32883   32877      66   32883   32880      67   32892   32889      66
   32895   32889      66   32895   32892      67   32904   32901      66   32907
   32901      66   32907   32904      67   32916   32913      66   32919   32913
      66   32919   32916      67   32928   32925      66   32931   32925      66
   32931   32928      67   32940   32937      66   32943   32937      66   32943
   32940      67   32952   32949      66   32955   32949      66   32955   32952
      67   32964   32961      66   32967   32961      66   32967   32964      67
   32976   32973      66   32979   32973      66   32979   32976      67   32988
   32985      66   32991   32985      66   32991   32988      67   33000   32997
      66   33003   32997      66   33003   33000      67   33012   33009      66
   33015   33009      66   33015   33012      67   33024   33021      66   33027
   33021      66   33027   33024      67   33036   33033      66   33039   33033
      66   33039   33036      67   33048   33045      66   33051   33045      66
   33051   33048      67   33060   33057      66   33063   33057      66   33063
   33060      67   33072   33069      66   33075   33069      66   33075   33072
      67   33084   33081      66   33087   33081      66   33087   33084      67
   33096   33093      66   33099   33093      66   33099   33096      67   33108
   33105      66   33111   33105      66   33111   33108      67   33120   33117
      66   33123   33117      66   33123   33120      67   33132   33129      66
   33135   33129      66   33135   33132      67   33144   33141      66   33147
   33141      66   33147   33144      67   33156   33153      66   33159   33153
      66   33159   33156      67   33168   33165      66   33171   33165      66
   33171   33168      67   33180   33177      66   33183   33177      66   33183
   33180      67   33192   33189      66   33195   33189      66   33195   33192
      67   33204   33201      66   33207   33201      66   33207   33204      67
   33216   33213      66   33219   33213      66   33219   33216      67   33228
   33225      66   33231   33225      66   33231   33228      67   33240   33237
      66   33243   33237      66   33243   33240      67   33252   33249      66
   33255   33249      66   33255   33252      67   33264   33261      66   33267
   33261      66   33267   33264      67   33276   33273      66   33279   33273
      66   33279   33276      67   33288   33285      66   33291   33285      66
   33291   33288      67   33300   33297      66   33303   33297      66   33303
   33300      67   33312   33309      66   33315   33309      66   33315   33312
      67   33324   33321      66   33327   33321      66   33327   33324      67
   33336   33333      66   33339   33333      66   33339   33336      67   33348
   33345      66   33351   33345      66   33351   33348      67   33360   33357
      66   33363   33357      66   33363   33360      67   33372   33369      66
   33375   33369      66   33375   33372      67   33384   33381      66   33387
   33381      66   33387   33384      67   33396   33393      66   33399   33393
      66   33399   33396      67   33408   33405      66   33411   33405      66
   33411   33408      67   33420   33417      66   33423   33417      66   33423
   33420      67   33432   33429      66   33435   33429      66   33435   33432
      67   33444   33441      66   33447   33441      66   33447   33444      67
   33456   33453      66   33459   33453      66   33459   33456      67   33468
   33465      66   33471   33465      66   33471   33468      67   33480   33477
      66   33483   33477      66   33483   33480      67   33492   33489      66
   33495   33489      66   33495   33492      67   33504   33501      66   33507
   33501      66   33507   33504      67   33516   33513      66   33519   33513
      66   33519   33516      67   33528   33525      66   33531   33525      66
   33531   33528      67   33540   33537      66   33543   33537      66   33543
   33540      67   33552   33549      66   33555   33549      66   33555   33552
      67   33564   33561      66   33567   33561      66   33567   33564      67
   33576   33573      66   33579   33573      66   33579   33576      67   33588
   33585      66   33591   33585      66   33591   33588      67   33600   33597
      66   33603   33597      66   33603   33600      67   33612   33609      66
   33615   33609      66   33615   33612      67   33624   33621      66   33627
   33621      66   33627   33624      67   33636   33633      66   33639   33633
      66   33639   33636      67   33648   33645      66   33651   33645      66
   33651   33648      67   33660   33657      66   33663   33657      66   33663
   33660      67   33672   33669      66   33675   33669      66   33675   33672
      67   33684   33681      66   33687   33681      66   33687   33684      67
   33696   33693      66   33699   33693      66   33699   33696      67   33708
   33705      66   33711   33705      66   33711   33708      67   33720   33717
      66   33723   33717      66   33723   33720      67   33732   33729      66
   33735   33729      66   33735   33732      67   33744   33741      66   33747
   33741      66   33747   33744      67   33756   33753      66   33759   33753
      66   33759   33756      67   33768   33765      66   33771   33765      66
   33771   33768      67   33780   33777      66   33783   33777      66   33783
   33780      67   33792   33789      66   33795   33789      66   33795   33792
      67   33804   33801      66   33807   33801      66   33807   33804      67
   33816   33813      66   33819   33813      66   33819   33816      67   33828
   33825      66   33831   33825      66   33831   33828      67   33840   33837
      66   33843   33837      66   33843   33840      67   33852   33849      66
   33855   33849      66   33855   33852      67   33864   33861      66   33867
   33861      66   33867   33864      67   33876   33873      66   33879   33873
      66   33879   33876      67   33888   33885      66   33891   33885      66
   33891   33888      67   33900   33897      66   33903   33897      66   33903
   33900      67   33912   33909      66   33915   33909      66   33915   33912
      67   33924   33921      66   33927   33921      66   33927   33924      67
   33936   33933      66   33939   33933      66   33939   33936      67   33948
   33945      66   33951   33945      66   33951   33948      67   33960   33957
      66   33963   33957      66   33963   33960      67   33972   33969      66
   33975   33969      66   33975   33972      67   33984   33981      66   33987
   33981      66   33987   33984      67   33996   33993      66   33999   33993
      66   33999   33996      67   34008   34005      66   34011   34005      66
   34011   34008      67   34020   34017      66   34023   34017      66   34023
   34020      67   34032   34029      66   34035   34029      66   34035   34032
      67   34044   34041      66   34047   34041      66   34047   34044      67
   34056   34053      66   34059   34053      66   34059   34056      67   34068
   34065      66   34071   34065      66   34071   34068      67   34080   34077
      66   34083   34077      66   34083   34080      67   34092   34089      66
   34095   34089      66   34095   34092      67   34104   34101      66   34107
   34101      66   34107   34104      67   34116   34113      66   34119   34113
      66   34119   34116      67   34128   34125      66   34131   34125      66
   34131   34128      67   34140   34137      66   34143   34137      66   34143
   34140      67   34152   34149      66   34155   34149      66   34155   34152
      67   34164   34161      66   34167   34161      66   34167   34164      67
   34176   34173      66   34179   34173      66   34179   34176      67   34188
   34185      66   34191   34185      66   34191   34188      67   34200   34197
      66   34203   34197      66   34203   34200      67   34212   34209      66
   34215   34209      66   34215   34212      67   34224   34221      66   34227
   34221      66   34227   34224      67   34236   34233      66   34239   34233
      66   34239   34236      67   34248   34245      66   34251   34245      66
   34251   34248      67   34260   34257      66   34263   34257      66   34263
   34260      67   34272   34269      66   34275   34269      66   34275   34272
      67   34284   34281      66   34287   34281      66   34287   34284      67
   34296   34293      66   34299   34293      66   34299   34296      67   34308
   34305      66   34311   34305      66   34311   34308      67   34320   34317
      66   34323   34317      66   34323   34320      67   34332   34329      66
   34335   34329      66   34335   34332      67   34344   34341      66   34347
   34341      66   34347   34344      67   34356   34353      66   34359   34353
      66   34359   34356      67   34368   34365      66   34371   34365      66
   34371   34368      67   34380   34377      66   34383   34377      66   34383
   34380      67   34392   34389      66   34395   34389      66   34395   34392
      67   34404   34401      66   34407   34401      66   34407   34404      67
   34416   34413      66   34419   34413      66   34419   34416      67   34428
   34425      66   34431   34425      66   34431   34428      67   34440   34437
      66   34443   34437      66   34443   34440      67   34452   34449      66
   34455   34449      66   34455   34452      67   34464   34461      66   34467
   34461      66   34467   34464      67   34476   34473      66   34479   34473
      66   34479   34476      67   34488   34485      66   34491   34485      66
   34491   34488      67   34500   34497      66   34503   34497      66   34503
   34500      67   34512   34509      66   34515   34509      66   34515   34512
      67   34524   34521      66   34527   34521      66   34527   34524      67
   34536   34533      66   34539   34533      66   34539   34536      67   34548
   34545      66   34551   34545      66   34551   34548      67   34560   34557
      66   34563   34557      66   34563   34560      67   34572   34569      66
   34575   34569      66   34575   34572      67   34584   34581      66   34587
   34581      66   34587   34584      67   34596   34593      66   34599   34593
      66   34599   34596      67   34608   34605      66   34611   34605      66
   34611   34608      67   34620   34617      66   34623   34617      66   34623
   34620      67   34632   34629      66   34635   34629      66   34635   34632
      67   34644   34641      66   34647   34641      66   34647   34644      67
   34656   34653      66   34659   34653      66   34659   34656      67   34668
   34665      66   34671   34665      66   34671   34668      67   34680   34677
      66   34683   34677      66   34683   34680      67   34692   34689      66
   34695   34689      66   34695   34692      67   34704   34701      66   34707
   34701      66   34707   34704      67   34716   34713      66   34719   34713
      66   34719   34716      67   34728   34725      66   34731   34725      66
   34731   34728      67   34740   34737      66   34743   34737      66   34743
   34740      67   34752   34749      66   34755   34749      66   34755   34752
      67   34764   34761      66   34767   34761      66   34767   34764      67
   34776   34773      66   34779   34773      66   34779   34776      67   34788
   34785      66   34791   34785      66   34791   34788      67   34800   34797
      66   34803   34797      66   34803   34800      67   34812   34809      66
   34815   34809      66   34815   34812      67   34824   34821      66   34827
   34821      66   34827   34824      67   34836   34833      66   34839   34833
      66   34839   34836      67   34848   34845      66   34851   34845      66
   34851   34848      67   34860   34857      66   34863   34857      66   34863
   34860      67   34872   34869      66   34875   34869      66   34875   34872
      67   34884   34881      66   34887   34881      66   34887   34884      67
   34896   34893      66   34899   34893      66   34899   34896      67   34908
   34905      66   34911   34905      66   34911   34908      67   34920   34917
      66   34923   34917      66   34923   34920      67   34932   34929      66
   34935   34929      66   34935   34932      67   34944   34941      66   34947
   34941      66   34947   34944      67   34956   34953      66   34959   34953
      66   34959   34956      67   34968   34965      66   34971   34965      66
   34971   34968      67   34980   34977      66   34983   34977      66   34983
   34980      67   34992   34989      66   34995   34989      66   34995   34992
      67   35004   35001      66   35007   35001      66   35007   35004      67
   35016   35013      66   35019   35013      66   35019   35016      67   35028
   35025      66   35031   35025      66   35031   35028      67   35040   35037
      66   35043   35037      66   35043   35040      67   35052   35049      66
   35055   35049      66   35055   35052      67   35064   35061      66   35067
   35061      66   35067   35064      67   35076   35073      66   35079   35073
      66   35079   35076      67   35088   35085      66   35091   35085      66
   35091   35088      67   35100   35097      66   35103   35097      66   35103
   35100      67   35112   35109      66   35115   35109      66   35115   35112
      67   35124   35121      66   35127   35121      66   35127   35124      67
   35136   35133      66   35139   35133      66   35139   35136      67   35148
   35145      66   35151   35145      66   35151   35148      67   35160   35157
      66   35163   35157      66   35163   35160      67   35172   35169      66
   35175   35169      66   35175   35172      67   35184   35181      66   35187
   35181      66   35187   35184      67   35196   35193      66   35199   35193
      66   35199   35196      67   35208   35205      66   35211   35205      66
   35211   35208      67   35220   35217      66   35223   35217      66   35223
   35220      67   35232   35229      66   35235   35229      66   35235   35232
      67   35244   35241      66   35247   35241      66   35247   35244      67
   35256   35253      66   35259   35253      66   35259   35256      67   35268
   35265      66   35271   35265      66   35271   35268      67   35280   35277
      66   35283   35277      66   35283   35280      67   35292   35289      66
   35295   35289      66   35295   35292      67   35304   35301      66   35307
   35301      66   35307   35304      67   35316   35313      66   35319   35313
      66   35319   35316      67   35328   35325      66   35331   35325      66
   35331   35328      67   35340   35337      66   35343   35337      66   35343
   35340      67   35352   35349      66   35355   35349      66   35355   35352
      67   35364   35361      66   35367   35361      66   35367   35364      67
   35376   35373      66   35379   35373      66   35379   35376      67   35388
   35385      66   35391   35385      66   35391   35388      67   35400   35397
      66   35403   35397      66   35403   35400      67   35412   35409      66
   35415   35409      66   35415   35412      67   35424   35421      66   35427
   35421      66   35427   35424      67   35436   35433      66   35439   35433
      66   35439   35436      67   35448   35445      66   35451   35445      66
   35451   35448      67   35460   35457      66   35463   35457      66   35463
   35460      67   35472   35469      66   35475   35469      66   35475   35472
      67   35484   35481      66   35487   35481      66   35487   35484      67
   35496   35493      66   35499   35493      66   35499   35496      67   35508
   35505      66   35511   35505      66   35511   35508      67   35520   35517
      66   35523   35517      66   35523   35520      67   35532   35529      66
   35535   35529      66   35535   35532      67   35544   35541      66   35547
   35541      66   35547   35544      67   35556   35553      66   35559   35553
      66   35559   35556      67   35568   35565      66   35571   35565      66
   35571   35568      67   35580   35577      66   35583   35577      66   35583
   35580      67   35592   35589      66   35595   35589      66   35595   35592
      67   35604   35601      66   35607   35601      66   35607   35604      67
   35616   35613      66   35619   35613      66   35619   35616      67   35628
   35625      66   35631   35625      66   35631   35628      67   35640   35637
      66   35643   35637      66   35643   35640      67   35652   35649      66
   35655   35649      66   35655   35652      67   35664   35661      66   35667
   35661      66   35667   35664      67   35676   35673      66   35679   35673
      66   35679   35676      67   35688   35685      66   35691   35685      66
   35691   35688      67   35700   35697      66   35703   35697      66   35703
   35700      67   35712   35709      66   35715   35709      66   35715   35712
      67   35724   35721      66   35727   35721      66   35727   35724      67
   35736   35733      66   35739   35733      66   35739   35736      67   35748
   35745      66   35751   35745      66   35751   35748      67   35760   35757
      66   35763   35757      66   35763   35760      67   35772   35769      66
   35775   35769      66   35775   35772      67   35784   35781      66   35787
   35781      66   35787   35784      67   35796   35793      66   35799   35793
      66   35799   35796      67   35808   35805      66   35811   35805      66
   35811   35808      67   35820   35817      66   35823   35817      66   35823
   35820      67   35832   35829      66   35835   35829      66   35835   35832
      67   35844   35841      66   35847   35841      66   35847   35844      67
   35856   35853      66   35859   35853      66   35859   35856      67   35868
   35865      66   35871   35865      66   35871   35868      67   35880   35877
      66   35883   35877      66   35883   35880      67   35892   35889      66
   35895   35889      66   35895   35892      67   35904   35901      66   35907
   35901      66   35907   35904      67   35916   35913      66   35919   35913
      66   35919   35916      67   35928   35925      66   35931   35925      66
   35931   35928      67   35940   35937      66   35943   35937      66   35943
   35940      67   35952   35949      66   35955   35949      66   35955   35952
      67   35964   35961      66   35967   35961      66   35967   35964      67
   35976   35973      66   35979   35973      66   35979   35976      67   35988
   35985      66   35991   35985      66   35991   35988      67   36000   35997
      66   36003   35997      66   36003   36000      67   36012   36009      66
   36015   36009      66   36015   36012      67   36024   36021      66   36027
   36021      66   36027   36024      67   36036   36033      66   36039   36033
      66   36039   36036      67   36048   36045      66   36051   36045      66
   36051   36048      67   36060   36057      66   36063   36057      66   36063
   36060      67   36072   36069      66   36075   36069      66   36075   36072
      67   36084   36081      66   36087   36081      66   36087   36084      67
   36096   36093      66   36099   36093      66   36099   36096      67   36108
   36105      66   36111   36105      66   36111   36108      67   36120   36117
      66   36123   36117      66   36123   36120      67   36132   36129      66
   36135   36129      66   36135   36132      67   36144   36141      66   36147
   36141      66   36147   36144      67   36156   36153      66   36159   36153
      66   36159   36156      67   36168   36165      66   36171   36165      66
   36171   36168      67   36180   36177      66   36183   36177      66   36183
   36180      67   36192   36189      66   36195   36189      66   36195   36192
      67   36204   36201      66   36207   36201      66   36207   36204      67
   36216   36213      66   36219   36213      66   36219   36216      67   36228
   36225      66   36231   36225      66   36231   36228      67   36240   36237
      66   36243   36237      66   36243   36240      67   36252   36249      66
   36255   36249      66   36255   36252      67   36264   36261      66   36267
   36261      66   36267   36264      67   36276   36273      66   36279   36273
      66   36279   36276      67   36288   36285      66   36291   36285      66
   36291   36288      67   36300   36297      66   36303   36297      66   36303
   36300      67   36312   36309      66   36315   36309      66   36315   36312
      67   36324   36321      66   36327   36321      66   36327   36324      67
   36336   36333      66   36339   36333      66   36339   36336      67   36348
   36345      66   36351   36345      66   36351   36348      67   36360   36357
      66   36363   36357      66   36363   36360      67   36372   36369      66
   36375   36369      66   36375   36372      67   36384   36381      66   36387
   36381      66   36387   36384      67   36396   36393      66   36399   36393
      66   36399   36396      67   36408   36405      66   36411   36405      66
   36411   36408      67   36420   36417      66   36423   36417      66   36423
   36420      67   36432   36429      66   36435   36429      66   36435   36432
      67   36444   36441      66   36447   36441      66   36447   36444      67
   36456   36453      66   36459   36453      66   36459   36456      67   36468
   36465      66   36471   36465      66   36471   36468      67   36480   36477
      66   36483   36477      66   36483   36480      67   36492   36489      66
   36495   36489      66   36495   36492      67   36504   36501      66   36507
   36501      66   36507   36504      67   36516   36513      66   36519   36513
      66   36519   36516      67   36528   36525      66   36531   36525      66
   36531   36528      67   36540   36537      66   36543   36537      66   36543
   36540      67   36552   36549      66   36555   36549      66   36555   36552
      67   36564   36561      66   36567   36561      66   36567   36564      67
   36576   36573      66   36579   36573      66   36579   36576      67   36588
   36585      66   36591   36585      66   36591   36588      67   36600   36597
      66   36603   36597      66   36603   36600      67   36612   36609      66
   36615   36609      66   36615   36612      67   36624   36621      66   36627
   36621      66   36627   36624      67   36636   36633      66   36639   36633
      66   36639   36636      67   36648   36645      66   36651   36645      66
   36651   36648      67   36660   36657      66   36663   36657      66   36663
   36660      67   36672   36669      66   36675   36669      66   36675   36672
      67   36684   36681      66   36687   36681      66   36687   36684      67
   36696   36693      66   36699   36693      66   36699   36696      67   36708
   36705      66   36711   36705      66   36711   36708      67   36720   36717
      66   36723   36717      66   36723   36720      67   36732   36729      66
   36735   36729      66   36735   36732      67   36744   36741      66   36747
   36741      66   36747   36744      67   36756   36753      66   36759   36753
      66   36759   36756      67   36768   36765      66   36771   36765      66
   36771   36768      67   36780   36777      66   36783   36777      66   36783
   36780      67   36792   36789      66   36795   36789      66   36795   36792
      67   36804   36801      66   36807   36801      66   36807   36804      67
   36816   36813      66   36819   36813      66   36819   36816      67   36828
   36825      66   36831   36825      66   36831   36828      67   36840   36837
      66   36843   36837      66   36843   36840      67   36852   36849      66
   36855   36849      66   36855   36852      67   36864   36861      66   36867
   36861      66   36867   36864      67   36876   36873      66   36879   36873
      66   36879   36876      67   36888   36885      66   36891   36885      66
   36891   36888      67   36900   36897      66   36903   36897      66   36903
   36900      67   36912   36909      66   36915   36909      66   36915   36912
      67   36924   36921      66   36927   36921      66   36927   36924      67
   36936   36933      66   36939   36933      66   36939   36936      67   36948
   36945      66   36951   36945      66   36951   36948      67   36960   36957
      66   36963   36957      66   36963   36960      67   36972   36969      66
   36975   36969      66   36975   36972      67   36984   36981      66   36987
   36981      66   36987   36984      67   36996   36993      66   36999   36993
      66   36999   36996      67   37008   37005      66   37011   37005      66
   37011   37008      67   37020   37017      66   37023   37017      66   37023
   37020      67   37032   37029      66   37035   37029      66   37035   37032
      67   37044   37041      66   37047   37041      66   37047   37044      67
   37056   37053      66   37059   37053      66   37059   37056      67   37068
   37065      66   37071   37065      66   37071   37068      67   37080   37077
      66   37083   37077      66   37083   37080      67   37092   37089      66
   37095   37089      66   37095   37092      67   37104   37101      66   37107
   37101      66   37107   37104      67   37116   37113      66   37119   37113
      66   37119   37116      67   37128   37125      66   37131   37125      66
   37131   37128      67   37140   37137      66   37143   37137      66   37143
   37140      67   37152   37149      66   37155   37149      66   37155   37152
      67   37164   37161      66   37167   37161      66   37167   37164      67
   37176   37173      66   37179   37173      66   37179   37176      67   37188
   37185      66   37191   37185      66   37191   37188      67   37200   37197
      66   37203   37197      66   37203   37200      67   37212   37209      66
   37215   37209      66   37215   37212      67   37224   37221      66   37227
   37221      66   37227   37224      67   37236   37233      66   37239   37233
      66   37239   37236      67   37248   37245      66   37251   37245      66
   37251   37248      67   37260   37257      66   37263   37257      66   37263
   37260      67   37272   37269      66   37275   37269      66   37275   37272
      67   37284   37281      66   37287   37281      66   37287   37284      67
   37296   37293      66   37299   37293      66   37299   37296      67   37308
   37305      66   37311   37305      66   37311   37308      67   37320   37317
      66   37323   37317      66   37323   37320      67   37332   37329      66
   37335   37329      66   37335   37332      67   37344   37341      66   37347
   37341      66   37347   37344      67   37356   37353      66   37359   37353
      66   37359   37356      67   37368   37365      66   37371   37365      66
   37371   37368      67   37380   37377      66   37383   37377      66   37383
   37380      67   37392   37389      66   37395   37389      66   37395   37392
      67   37404   37401      66   37407   37401      66   37407   37404      67
   37416   37413      66   37419   37413      66   37419   37416      67   37428
   37425      66   37431   37425      66   37431   37428      67   37440   37437
      66   37443   37437      66   37443   37440      67   37452   37449      66
   37455   37449      66   37455   37452      67   37464   37461      66   37467
   37461      66   37467   37464      67   37476   37473      66   37479   37473
      66   37479   37476      67   37488   37485      66   37491   37485      66
   37491   37488      67   37500   37497      66   37503   37497      66   37503
   37500      67   37512   37509      66   37515   37509      66   37515   37512
      67   37524   37521      66   37527   37521      66   37527   37524      67
   37536   37533      66   37539   37533      66   37539   37536      67   37548
   37545      66   37551   37545      66   37551   37548      67   37560   37557
      66   37563   37557      66   37563   37560      67   37572   37569      66
   37575   37569      66   37575   37572      67   37584   37581      66   37587
   37581      66   37587   37584      67   37596   37593      66   37599   37593
      66   37599   37596      67   37608   37605      66   37611   37605      66
   37611   37608      67   37620   37617      66   37623   37617      66   37623
   37620      67   37632   37629      66   37635   37629      66   37635   37632
      67   37644   37641      66   37647   37641      66   37647   37644      67
   37656   37653      66   37659   37653      66   37659   37656      67   37668
   37665      66   37671   37665      66   37671   37668      67   37680   37677
      66   37683   37677      66   37683   37680      67   37692   37689      66
   37695   37689      66   37695   37692      67   37704   37701      66   37707
   37701      66   37707   37704      67   37716   37713      66   37719   37713
      66   37719   37716      67   37728   37725      66   37731   37725      66
   37731   37728      67   37740   37737      66   37743   37737      66   37743
   37740      67   37752   37749      66   37755   37749      66   37755   37752
      67   37764   37761      66   37767   37761      66   37767   37764      67
   37776   37773      66   37779   37773      66   37779   37776      67   37788
   37785      66   37791   37785      66   37791   37788      67   37800   37797
      66   37803   37797      66   37803   37800      67   37812   37809      66
   37815   37809      66   37815   37812      67   37824   37821      66   37827
   37821      66   37827   37824      67   37836   37833      66   37839   37833
      66   37839   37836      67   37848   37845      66   37851   37845      66
   37851   37848      67   37860   37857      66   37863   37857      66   37863
   37860      67   37872   37869      66   37875   37869      66   37875   37872
      67   37884   37881      66   37887   37881      66   37887   37884      67
   37896   37893      66   37899   37893      66   37899   37896      67   37908
   37905      66   37911   37905      66   37911   37908      67   37920   37917
      66   37923   37917      66   37923   37920      67   37932   37929      66
   37935   37929      66   37935   37932      67   37944   37941      66   37947
   37941      66   37947   37944      67   37956   37953      66   37959   37953
      66   37959   37956      67   37968   37965      66   37971   37965      66
   37971   37968      67   37980   37977      66   37983   37977      66   37983
   37980      67   37992   37989      66   37995   37989      66   37995   37992
      67   38004   38001      66   38007   38001      66   38007   38004      67
   38016   38013      66   38019   38013      66   38019   38016      67   38028
   38025      66   38031   38025      66   38031   38028      67   38040   38037
      66   38043   38037      66   38043   38040      67   38052   38049      66
   38055   38049      66   38055   38052      67   38064   38061      66   38067
   38061      66   38067   38064      67   38076   38073      66   38079   38073
      66   38079   38076      67   38088   38085      66   38091   38085      66
   38091   38088      67   38100   38097      66   38103   38097      66   38103
   38100      67   38112   38109      66   38115   38109      66   38115   38112
      67   38124   38121      66   38127   38121      66   38127   38124      67
   38136   38133      66   38139   38133      66   38139   38136      67   38148
   38145      66   38151   38145      66   38151   38148      67   38160   38157
      66   38163   38157      66   38163   38160      67   38172   38169      66
   38175   38169      66   38175   38172      67   38184   38181      66   38187
   38181      66   38187   38184      67   38196   38193      66   38199   38193
      66   38199   38196      67   38208   38205      66   38211   38205      66
   38211   38208      67   38220   38217      66   38223   38217      66   38223
   38220      67   38232   38229      66   38235   38229      66   38235   38232
      67   38244   38241      66   38247   38241      66   38247   38244      67
   38256   38253      66   38259   38253      66   38259   38256      67   38268
   38265      66   38271   38265      66   38271   38268      67   38280   38277
      66   38283   38277      66   38283   38280      67   38292   38289      66
   38295   38289      66   38295   38292      67   38304   38301      66   38307
   38301      66   38307   38304      67   38316   38313      66   38319   38313
      66   38319   38316      67   38328   38325      66   38331   38325      66
   38331   38328      67   38340   38337      66   38343   38337      66   38343
   38340      67   38352   38349      66   38355   38349      66   38355   38352
      67   38364   38361      66   38367   38361      66   38367   38364      67
   38376   38373      66   38379   38373      66   38379   38376      67   38388
   38385      66   38391   38385      66   38391   38388      67   38400   38397
      66   38403   38397      66   38403   38400      67   38412   38409      66
   38415   38409      66   38415   38412      67   38424   38421      66   38427
   38421      66   38427   38424      67   38436   38433      66   38439   38433
      66   38439   38436      67   38448   38445      66   38451   38445      66
   38451   38448      67   38460   38457      66   38463   38457      66   38463
   38460      67   38472   38469      66   38475   38469      66   38475   38472
      67   38484   38481      66   38487   38481      66   38487   38484      67
   38496   38493      66   38499   38493      66   38499   38496      67   38508
   38505      66   38511   38505      66   38511   38508      67   38520   38517
      66   38523   38517      66   38523   38520      67   38532   38529      66
   38535   38529      66   38535   38532      67   38544   38541      66   38547
   38541      66   38547   38544      67   38556   38553      66   38559   38553
      66   38559   38556      67   38568   38565      66   38571   38565      66
   38571   38568      67   38580   38577      66   38583   38577      66   38583
   38580      67   38592   38589      66   38595   38589      66   38595   38592
      67   38604   38601      66   38607   38601      66   38607   38604      67
   38616   38613      66   38619   38613      66   38619   38616      67   38628
   38625      66   38631   38625      66   38631   38628      67   38640   38637
      66   38643   38637      66   38643   38640      67   38652   38649      66
   38655   38649      66   38655   38652      67   38664   38661      66   38667
   38661      66   38667   38664      67   38676   38673      66   38679   38673
      66   38679   38676      67   38688   38685      66   38691   38685      66
   38691   38688      67   38700   38697      66   38703   38697      66   38703
   38700      67   38712   38709      66   38715   38709      66   38715   38712
      67   38724   38721      66   38727   38721      66   38727   38724      67
   38736   38733      66   38739   38733      66   38739   38736      67   38748
   38745      66   38751   38745      66   38751   38748      67   38760   38757
      66   38763   38757      66   38763   38760      67   38772   38769      66
   38775   38769      66   38775   38772      67   38784   38781      66   38787
   38781      66   38787   38784      67   38796   38793      66   38799   38793
      66   38799   38796      67   38808   38805      66   38811   38805      66
   38811   38808      67   38820   38817      66   38823   38817      66   38823
   38820      67   38832   38829      66   38835   38829      66   38835   38832
      67   38844   38841      66   38847   38841      66   38847   38844      67
   38856   38853      66   38859   38853      66   38859   38856      67   38868
   38865      66   38871   38865      66   38871   38868      67   38880   38877
      66   38883   38877      66   38883   38880      67   38892   38889      66
   38895   38889      66   38895   38892      67   38904   38901      66   38907
   38901      66   38907   38904      67   38916   38913      66   38919   38913
      66   38919   38916      67   38928   38925      66   38931   38925      66
   38931   38928      67   38940   38937      66   38943   38937      66   38943
   38940      67   38952   38949      66   38955   38949      66   38955   38952
      67   38964   38961      66   38967   38961      66   38967   38964      67
   38976   38973      66   38979   38973      66   38979   38976      67   38988
   38985      66   38991   38985      66   38991   38988      67   39000   38997
      66   39003   38997      66   39003   39000      67   39012   39009      66
   39015   39009      66   39015   39012      67   39024   39021      66   39027
   39021      66   39027   39024      67   39036   39033      66   39039   39033
      66   39039   39036      67   39048   39045      66   39051   39045      66
   39051   39048      67   39060   39057      66   39063   39057      66   39063
   39060      67   39072   39069      66   39075   39069      66   39075   39072
      67   39084   39081      66   39087   39081      66   39087   39084      67
   39096   39093      66   39099   39093      66   39099   39096      67   39108
   39105      66   39111   39105      66   39111   39108      67   39120   39117
      66   39123   39117      66   39123   39120      67   39132   39129      66
   39135   39129      66   39135   39132      67   39144   39141      66   39147
   39141      66   39147   39144      67   39156   39153      66   39159   39153
      66   39159   39156      67   39168   39165      66   39171   39165      66
   39171   39168      67   39180   39177      66   39183   39177      66   39183
   39180      67   39192   39189      66   39195   39189      66   39195   39192
      67   39204   39201      66   39207   39201      66   39207   39204      67
   39216   39213      66   39219   39213      66   39219   39216      67   39228
   39225      66   39231   39225      66   39231   39228      67   39240   39237
      66   39243   39237      66   39243   39240      67   39252   39249      66
   39255   39249      66   39255   39252      67   39264   39261      66   39267
   39261      66   39267   39264      67   39276   39273      66   39279   39273
      66   39279   39276      67   39288   39285      66   39291   39285      66
   39291   39288      67   39300   39297      66   39303   39297      66   39303
   39300      67   39312   39309      66   39315   39309      66   39315   39312
      67   39324   39321      66   39327   39321      66   39327   39324      67
   39336   39333      66   39339   39333      66   39339   39336      67   39348
   39345      66   39351   39345      66   39351   39348      67   39360   39357
      66   39363   39357      66   39363   39360      67   39372   39369      66
   39375   39369      66   39375   39372      67   39384   39381      66   39387
   39381      66   39387   39384      67   39396   39393      66   39399   39393
      66   39399   39396      67   39408   39405      66   39411   39405      66
   39411   39408      67   39420   39417      66   39423   39417      66   39423
   39420      67   39432   39429      66   39435   39429      66   39435   39432
      67   39444   39441      66   39447   39441      66   39447   39444      67
   39456   39453      66   39459   39453      66   39459   39456      67   39468
   39465      66   39471   39465      66   39471   39468      67   39480   39477
      66   39483   39477      66   39483   39480      67   39492   39489      66
   39495   39489      66   39495   39492      67   39504   39501      66   39507
   39501      66   39507   39504      67   39516   39513      66   39519   39513
      66   39519   39516      67   39528   39525      66   39531   39525      66
   39531   39528      67   39540   39537      66   39543   39537      66   39543
   39540      67   39552   39549      66   39555   39549      66   39555   39552
      67   39564   39561      66   39567   39561      66   39567   39564      67
   39576   39573      66   39579   39573      66   39579   39576      67   39588
   39585      66   39591   39585      66   39591   39588      67   39600   39597
      66   39603   39597      66   39603   39600      67   39612   39609      66
   39615   39609      66   39615   39612      67   39624   39621      66   39627
   39621      66   39627   39624      67   39636   39633      66   39639   39633
      66   39639   39636      67   39648   39645      66   39651   39645      66
   39651   39648      67   39660   39657      66   39663   39657      66   39663
   39660      67   39672   39669      66   39675   39669      66   39675   39672
      67   39684   39681      66   39687   39681      66   39687   39684      67
   39696   39693      66   39699   39693      66   39699   39696      67   39708
   39705      66   39711   39705      66   39711   39708      67   39720   39717
      66   39723   39717      66   39723   39720      67   39732   39729      66
   39735   39729      66   39735   39732      67   39744   39741      66   39747
   39741      66   39747   39744      67   39756   39753      66   39759   39753
      66   39759   39756      67   39768   39765      66   39771   39765      66
   39771   39768      67   39780   39777      66   39783   39777      66   39783
   39780      67   39792   39789      66   39795   39789      66   39795   39792
      67   39804   39801      66   39807   39801      66   39807   39804      67
   39816   39813      66   39819   39813      66   39819   39816      67   39828
   39825      66   39831   39825      66   39831   39828      67   39840   39837
      66   39843   39837      66   39843   39840      67   39852   39849      66
   39855   39849      66   39855   39852      67   39864   39861      66   39867
   39861      66   39867   39864      67   39876   39873      66   39879   39873
      66   39879   39876      67   39888   39885      66   39891   39885      66
   39891   39888      67   39900   39897      66   39903   39897      66   39903
   39900      67   39912   39909      66   39915   39909      66   39915   39912
      67   39924   39921      66   39927   39921      66   39927   39924      67
   39936   39933      66   39939   39933      66   39939   39936      67   39948
   39945      66   39951   39945      66   39951   39948      67   39960   39957
      66   39963   39957      66   39963   39960      67   39972   39969      66
   39975   39969      66   39975   39972      67   39984   39981      66   39987
   39981      66   39987   39984      67   39996   39993      66   39999   39993
      66   39999   39996      67   40008   40005      66   40011   40005      66
   40011   40008      67   40020   40017      66   40023   40017      66   40023
   40020      67   40032   40029      66   40035   40029      66   40035   40032
      67   40044   40041      66   40047   40041      66   40047   40044      67
   40056   40053      66   40059   40053      66   40059   40056      67   40068
   40065      66   40071   40065      66   40071   40068      67   40080   40077
      66   40083   40077      66   40083   40080      67   40092   40089      66
   40095   40089      66   40095   40092      67   40104   40101      66   40107
   40101      66   40107   40104      67   40116   40113      66   40119   40113
      66   40119   40116      67   40128   40125      66   40131   40125      66
   40131   40128      67   40140   40137      66   40143   40137      66   40143
   40140      67   40152   40149      66   40155   40149      66   40155   40152
      67   40164   40161      66   40167   40161      66   40167   40164      67
   40176   40173      66   40179   40173      66   40179   40176      67   40188
   40185      66   40191   40185      66   40191   40188      67   40200   40197
      66   40203   40197      66   40203   40200      67   40212   40209      66
   40215   40209      66   40215   40212      67   40224   40221      66   40227
   40221      66   40227   40224      67   40236   40233      66   40239   40233
      66   40239   40236      67   40248   40245      66   40251   40245      66
   40251   40248      67   40260   40257      66   40263   40257      66   40263
   40260      67   40272   40269      66   40275   40269      66   40275   40272
      67   40284   40281      66   40287   40281      66   40287   40284      67
   40296   40293      66   40299   40293      66   40299   40296      67   40308
   40305      66   40311   40305      66   40311   40308      67   40320   40317
      66   40323   40317      66   40323   40320      67   40332   40329      66
   40335   40329      66   40335   40332      67   40344   40341      66   40347
   40341      66   40347   40344      67   40356   40353      66   40359   40353
      66   40359   40356      67   40368   40365      66   40371   40365      66
   40371   40368      67   40380   40377      66   40383   40377      66   40383
   40380      67   40392   40389      66   40395   40389      66   40395   40392
      67   40404   40401      66   40407   40401      66   40407   40404      67
   40416   40413      66   40419   40413      66   40419   40416      67   40428
   40425      66   40431   40425      66   40431   40428      67   40440   40437
      66   40443   40437      66   40443   40440      67   40452   40449      66
   40455   40449      66   40455   40452      67   40464   40461      66   40467
   40461      66   40467   40464      67   40476   40473      66   40479   40473
      66   40479   40476      67   40488   40485      66   40491   40485      66
   40491   40488      67   40500   40497      66   40503   40497      66   40503
   40500      67   40512   40509      66   40515   40509      66   40515   40512
      67   40524   40521      66   40527   40521      66   40527   40524      67
   40536   40533      66   40539   40533      66   40539   40536      67   40548
   40545      66   40551   40545      66   40551   40548      67   40560   40557
      66   40563   40557      66   40563   40560      67   40572   40569      66
   40575   40569      66   40575   40572      67   40584   40581      66   40587
   40581      66   40587   40584      67   40596   40593      66   40599   40593
      66   40599   40596      67   40608   40605      66   40611   40605      66
   40611   40608      67   40620   40617      66   40623   40617      66   40623
   40620      67   40632   40629      66   40635   40629      66   40635   40632
      67   40644   40641      66   40647   40641      66   40647   40644      67
   40656   40653      66   40659   40653      66   40659   40656      67   40668
   40665      66   40671   40665      66   40671   40668      67   40680   40677
      66   40683   40677      66   40683   40680      67   40692   40689      66
   40695   40689      66   40695   40692      67   40704   40701      66   40707
   40701      66   40707   40704      67   40716   40713      66   40719   40713
      66   40719   40716      67   40728   40725      66   40731   40725      66
   40731   40728      67   40740   40737      66   40743   40737      66   40743
   40740      67   40752   40749      66   40755   40749      66   40755   40752
      67   40764   40761      66   40767   40761      66   40767   40764      67
   40776   40773      66   40779   40773      66   40779   40776      67   40788
   40785      66   40791   40785      66   40791   40788      67   40800   40797
      66   40803   40797      66   40803   40800      67   40812   40809      66
   40815   40809      66   40815   40812      67   40824   40821      66   40827
   40821      66   40827   40824      67   40836   40833      66   40839   40833
      66   40839   40836      67   40848   40845      66   40851   40845      66
   40851   40848      67   40860   40857      66   40863   40857      66   40863
   40860      67   40872   40869      66   40875   40869      66   40875   40872
      67   40884   40881      66   40887   40881      66   40887   40884      67
   40896   40893      66   40899   40893      66   40899   40896      67   40908
   40905      66   40911   40905      66   40911   40908      67   40920   40917
      66   40923   40917      66   40923   40920      67   40932   40929      66
   40935   40929      66   40935   40932      67   40944   40941      66   40947
   40941      66   40947   40944      67   40956   40953      66   40959   40953
      66   40959   40956      67   40968   40965      66   40971   40965      66
   40971   40968      67   40980   40977      66   40983   40977      66   40983
   40980      67   40992   40989      66   40995   40989      66   40995   40992
      67   41004   41001      66   41007   41001      66   41007   41004      67
   41016   41013      66   41019   41013      66   41019   41016      67   41028
   41025      66   41031   41025      66   41031   41028      67   41040   41037
      66   41043   41037      66   41043   41040      67   41052   41049      66
   41055   41049      66   41055   41052      67   41064   41061      66   41067
   41061      66   41067   41064      67   41076   41073      66   41079   41073
      66   41079   41076      67   41088   41085      66   41091   41085      66
   41091   41088      67   41100   41097      66   41103   41097      66   41103
   41100      67   41112   41109      66   41115   41109      66   41115   41112
      67   41124   41121      66   41127   41121      66   41127   41124      67
   41136   41133      66   41139   41133      66   41139   41136      67   41148
   41145      66   41151   41145      66   41151   41148      67   41160   41157
      66   41163   41157      66   41163   41160      67   41172   41169      66
   41175   41169      66   41175   41172      67   41184   41181      66   41187
   41181      66   41187   41184      67   41196   41193      66   41199   41193
      66   41199   41196      67   41208   41205      66   41211   41205      66
   41211   41208      67   41220   41217      66   41223   41217      66   41223
   41220      67   41232   41229      66   41235   41229      66   41235   41232
      67   41244   41241      66   41247   41241      66   41247   41244      67
   41256   41253      66   41259   41253      66   41259   41256      67   41268
   41265      66   41271   41265      66   41271   41268      67   41280   41277
      66   41283   41277      66   41283   41280      67   41292   41289      66
   41295   41289      66   41295   41292      67   41304   41301      66   41307
   41301      66   41307   41304      67   41316   41313      66   41319   41313
      66   41319   41316      67   41328   41325      66   41331   41325      66
   41331   41328      67   41340   41337      66   41343   41337      66   41343
   41340      67   41352   41349      66   41355   41349      66   41355   41352
      67   41364   41361      66   41367   41361      66   41367   41364      67
   41376   41373      66   41379   41373      66   41379   41376      67   41388
   41385      66   41391   41385      66   41391   41388      67   41400   41397
      66   41403   41397      66   41403   41400      67   41412   41409      66
   41415   41409      66   41415   41412      67   41424   41421      66   41427
   41421      66   41427   41424      67   41436   41433      66   41439   41433
      66   41439   41436      67   41448   41445      66   41451   41445      66
   41451   41448      67   41460   41457      66   41463   41457      66   41463
   41460      67   41472   41469      66   41475   41469      66   41475   41472
      67   41484   41481      66   41487   41481      66   41487   41484      67
   41496   41493      66   41499   41493      66   41499   41496      67   41508
   41505      66   41511   41505      66   41511   41508      67   41520   41517
      66   41523   41517      66   41523   41520      67   41532   41529      66
   41535   41529      66   41535   41532      67   41544   41541      66   41547
   41541      66   41547   41544      67   41556   41553      66   41559   41553
      66   41559   41556      67   41568   41565      66   41571   41565      66
   41571   41568      67   41580   41577      66   41583   41577      66   41583
   41580      67   41592   41589      66   41595   41589      66   41595   41592
      67   41604   41601      66   41607   41601      66   41607   41604      67
   41616   41613      66   41619   41613      66   41619   41616      67   41628
   41625      66   41631   41625      66   41631   41628      67   41640   41637
      66   41643   41637      66   41643   41640      67   41652   41649      66
   41655   41649      66   41655   41652      67   41664   41661      66   41667
   41661      66   41667   41664      67   41676   41673      66   41679   41673
      66   41679   41676      67   41688   41685      66   41691   41685      66
   41691   41688      67   41700   41697      66   41703   41697      66   41703
   41700      67   41712   41709      66   41715   41709      66   41715   41712
      67   41724   41721      66   41727   41721      66   41727   41724      67
   41736   41733      66   41739   41733      66   41739   41736      67   41748
   41745      66   41751   41745      66   41751   41748      67   41760   41757
      66   41763   41757      66   41763   41760      67   41772   41769      66
   41775   41769      66   41775   41772      67   41784   41781      66   41787
   41781      66   41787   41784      67   41796   41793      66   41799   41793
      66   41799   41796      67   41808   41805      66   41811   41805      66
   41811   41808      67   41820   41817      66   41823   41817      66   41823
   41820      67   41832   41829      66   41835   41829      66   41835   41832
      67   41844   41841      66   41847   41841      66   41847   41844      67
   41856   41853      66   41859   41853      66   41859   41856      67   41868
   41865      66   41871   41865      66   41871   41868      67   41880   41877
      66   41883   41877      66   41883   41880      67   41892   41889      66
   41895   41889      66   41895   41892      67   41904   41901      66   41907
   41901      66   41907   41904      67   41916   41913      66   41919   41913
      66   41919   41916      67   41928   41925      66   41931   41925      66
   41931   41928      67   41940   41937      66   41943   41937      66   41943
   41940      67   41952   41949      66   41955   41949      66   41955   41952
      67   41964   41961      66   41967   41961      66   41967   41964      67
   41976   41973      66   41979   41973      66   41979   41976      67   41988
   41985      66   41991   41985      66   41991   41988      67   42000   41997
      66   42003   41997      66   42003   42000      67   42012   42009      66
   42015   42009      66   42015   42012      67   42024   42021      66   42027
   42021      66   42027   42024      67   42036   42033      66   42039   42033
      66   42039   42036      67   42048   42045      66   42051   42045      66
   42051   42048      67   42060   42057      66   42063   42057      66   42063
   42060      67   42072   42069      66   42075   42069      66   42075   42072
      67   42084   42081      66   42087   42081      66   42087   42084      67
   42096   42093      66   42099   42093      66   42099   42096      67   42108
   42105      66   42111   42105      66   42111   42108      67   42120   42117
      66   42123   42117      66   42123   42120      67   42132   42129      66
   42135   42129      66   42135   42132      67   42144   42141      66   42147
   42141      66   42147   42144      67   42156   42153      66   42159   42153
      66   42159   42156      67   42168   42165      66   42171   42165      66
   42171   42168      67   42180   42177      66   42183   42177      66   42183
   42180      67   42192   42189      66   42195   42189      66   42195   42192
      67   42204   42201      66   42207   42201      66   42207   42204      67
   42216   42213      66   42219   42213      66   42219   42216      67   42228
   42225      66   42231   42225      66   42231   42228      67   42240   42237
      66   42243   42237      66   42243   42240      67   42252   42249      66
   42255   42249      66   42255   42252      67   42264   42261      66   42267
   42261      66   42267   42264      67   42276   42273      66   42279   42273
      66   42279   42276      67   42288   42285      66   42291   42285      66
   42291   42288      67   42300   42297      66   42303   42297      66   42303
   42300      67   42312   42309      66   42315   42309      66   42315   42312
      67   42324   42321      66   42327   42321      66   42327   42324      67
   42336   42333      66   42339   42333      66   42339   42336      67   42348
   42345      66   42351   42345      66   42351   42348      67   42360   42357
      66   42363   42357      66   42363   42360      67   42372   42369      66
   42375   42369      66   42375   42372      67   42384   42381      66   42387
   42381      66   42387   42384      67   42396   42393      66   42399   42393
      66   42399   42396      67   42408   42405      66   42411   42405      66
   42411   42408      67   42420   42417      66   42423   42417      66   42423
   42420      67   42432   42429      66   42435   42429      66   42435   42432
      67   42444   42441      66   42447   42441      66   42447   42444      67
   42456   42453      66   42459   42453      66   42459   42456      67   42468
   42465      66   42471   42465      66   42471   42468      67   42480   42477
      66   42483   42477      66   42483   42480      67   42492   42489      66
   42495   42489      66   42495   42492      67   42504   42501      66   42507
   42501      66   42507   42504      67   42516   42513      66   42519   42513
      66   42519   42516      67   42528   42525      66   42531   42525      66
   42531   42528      67   42540   42537      66   42543   42537      66   42543
   42540      67   42552   42549      66   42555   42549      66   42555   42552
      67   42564   42561      66   42567   42561      66   42567   42564      67
   42576   42573      66   42579   42573      66   42579   42576      67   42588
   42585      66   42591   42585      66   42591   42588      67   42600   42597
      66   42603   42597      66   42603   42600      67   42612   42609      66
   42615   42609      66   42615   42612      67   42624   42621      66   42627
   42621      66   42627   42624      67   42636   42633      66   42639   42633
      66   42639   42636      67   42648   42645      66   42651   42645      66
   42651   42648      67   42660   42657      66   42663   42657      66   42663
   42660      67   42672   42669      66   42675   42669      66   42675   42672
      67   42684   42681      66   42687   42681      66   42687   42684      67
   42696   42693      66   42699   42693      66   42699   42696      67   42708
   42705      66   42711   42705      66   42711   42708      67   42720   42717
      66   42723   42717      66   42723   42720      67   42732   42729      66
   42735   42729      66   42735   42732      67   42744   42741      66   42747
   42741      66   42747   42744      67   42756   42753      66   42759   42753
      66   42759   42756      67   42768   42765      66   42771   42765      66
   42771   42768      67   42780   42777      66   42783   42777      66   42783
   42780      67   42792   42789      66   42795   42789      66   42795   42792
      67   42804   42801      66   42807   42801      66   42807   42804      67
   42816   42813      66   42819   42813      66   42819   42816      67   42828
   42825      66   42831   42825      66   42831   42828      67   42840   42837
      66   42843   42837      66   42843   42840      67   42852   42849      66
   42855   42849      66   42855   42852      67   42864   42861      66   42867
   42861      66   42867   42864      67   42876   42873      66   42879   42873
      66   42879   42876      67   42888   42885      66   42891   42885      66
   42891   42888      67   42900   42897      66   42903   42897      66   42903
   42900      67   42912   42909      66   42915   42909      66   42915   42912
      67   42924   42921      66   42927   42921      66   42927   42924      67
   42936   42933      66   42939   42933      66   42939   42936      67   42948
   42945      66   42951   42945      66   42951   42948      67   42960   42957
      66   42963   42957      66   42963   42960      67   42972   42969      66
   42975   42969      66   42975   42972      67   42984   42981      66   42987
   42981      66   42987   42984      67   42996   42993      66   42999   42993
      66   42999   42996      67   43008   43005      66   43011   43005      66
   43011   43008      67   43020   43017      66   43023   43017      66   43023
   43020      67   43032   43029      66   43035   43029      66   43035   43032
      67   43044   43041      66   43047   43041      66   43047   43044      67
   43056   43053      66   43059   43053      66   43059   43056      67   43068
   43065      66   43071   43065      66   43071   43068      67   43080   43077
      66   43083   43077      66   43083   43080      67   43092   43089      66
   43095   43089      66   43095   43092      67   43104   43101      66   43107
   43101      66   43107   43104      67   43116   43113      66   43119   43113
      66   43119   43116      67   43128   43125      66   43131   43125      66
   43131   43128      67   43140   43137      66   43143   43137      66   43143
   43140      67   43152   43149      66   43155   43149      66   43155   43152
      67   43164   43161      66   43167   43161      66   43167   43164      67
   43176   43173      66   43179   43173      66   43179   43176      67   43188
   43185      66   43191   43185      66   43191   43188      67   43200   43197
      66   43203   43197      66   43203   43200      67   43212   43209      66
   43215   43209      66   43215   43212      67   43224   43221      66   43227
   43221      66   43227   43224      67   43236   43233      66   43239   43233
      66   43239   43236      67   43248   43245      66   43251   43245      66
   43251   43248      67   43260   43257      66   43263   43257      66   43263
   43260      67   43272   43269      66   43275   43269      66   43275   43272
      67   43284   43281      66   43287   43281      66   43287   43284      67
   43296   43293      66   43299   43293      66   43299   43296      67   43308
   43305      66   43311   43305      66   43311   43308      67   43320   43317
      66   43323   43317      66   43323   43320      67   43332   43329      66
   43335   43329      66   43335   43332      67   43344   43341      66   43347
   43341      66   43347   43344      67   43356   43353      66   43359   43353
      66   43359   43356      67   43368   43365      66   43371   43365      66
   43371   43368      67   43380   43377      66   43383   43377      66   43383
   43380      67   43392   43389      66   43395   43389      66   43395   43392
      67   43404   43401      66   43407   43401      66   43407   43404      67
   43416   43413      66   43419   43413      66   43419   43416      67   43428
   43425      66   43431   43425      66   43431   43428      67   43440   43437
      66   43443   43437      66   43443   43440      67   43452   43449      66
   43455   43449      66   43455   43452      67   43464   43461      66   43467
   43461      66   43467   43464      67   43476   43473      66   43479   43473
      66   43479   43476      67   43488   43485      66   43491   43485      66
   43491   43488      67   43500   43497      66   43503   43497      66   43503
   43500      67   43512   43509      66   43515   43509      66   43515   43512
      67   43524   43521      66   43527   43521      66   43527   43524      67
   43536   43533      66   43539   43533      66   43539   43536      67   43548
   43545      66   43551   43545      66   43551   43548      67   43560   43557
      66   43563   43557      66   43563   43560      67   43572   43569      66
   43575   43569      66   43575   43572      67   43584   43581      66   43587
   43581      66   43587   43584      67   43596   43593      66   43599   43593
      66   43599   43596      67   43608   43605      66   43611   43605      66
   43611   43608      67   43620   43617      66   43623   43617      66   43623
   43620      67   43632   43629      66   43635   43629      66   43635   43632
      67   43644   43641      66   43647   43641      66   43647   43644      67
   43656   43653      66   43659   43653      66   43659   43656      67   43668
   43665      66   43671   43665      66   43671   43668      67   43680   43677
      66   43683   43677      66   43683   43680      67   43692   43689      66
   43695   43689      66   43695   43692      67   43704   43701      66   43707
   43701      66   43707   43704      67   43716   43713      66   43719   43713
      66   43719   43716      67   43728   43725      66   43731   43725      66
   43731   43728      67   43740   43737      66   43743   43737      66   43743
   43740      67   43752   43749      66   43755   43749      66   43755   43752
      67   43764   43761      66   43767   43761      66   43767   43764      67
   43776   43773      66   43779   43773      66   43779   43776      67   43788
   43785      66   43791   43785      66   43791   43788      67   43800   43797
      66   43803   43797      66   43803   43800      67   43812   43809      66
   43815   43809      66   43815   43812      67   43824   43821      66   43827
   43821      66   43827   43824      67   43836   43833      66   43839   43833
      66   43839   43836      67   43848   43845      66   43851   43845      66
   43851   43848      67   43860   43857      66   43863   43857      66   43863
   43860      67   43872   43869      66   43875   43869      66   43875   43872
      67   43884   43881      66   43887   43881      66   43887   43884      67
   43896   43893      66   43899   43893      66   43899   43896      67   43908
   43905      66   43911   43905      66   43911   43908      67   43920   43917
      66   43923   43917      66   43923   43920      67   43932   43929      66
   43935   43929      66   43935   43932      67   43944   43941      66   43947
   43941      66   43947   43944      67   43956   43953      66   43959   43953
      66   43959   43956      67   43968   43965      66   43971   43965      66
   43971   43968      67   43980   43977      66   43983   43977      66   43983
   43980      67   43992   43989      66   43995   43989      66   43995   43992
      67   44004   44001      66   44007   44001      66   44007   44004      67
   44016   44013      66   44019   44013      66   44019   44016      67   44028
   44025      66   44031   44025      66   44031   44028      67   44040   44037
      66   44043   44037      66   44043   44040      67   44052   44049      66
   44055   44049      66   44055   44052      67   44064   44061      66   44067
   44061      66   44067   44064      67   44076   44073      66   44079   44073
      66   44079   44076      67   44088   44085      66   44091   44085      66
   44091   44088      67   44100   44097      66   44103   44097      66   44103
   44100      67   44112   44109      66   44115   44109      66   44115   44112
      67   44124   44121      66   44127   44121      66   44127   44124      67
   44136   44133      66   44139   44133      66   44139   44136      67   44148
   44145      66   44151   44145      66   44151   44148      67   44160   44157
      66   44163   44157      66   44163   44160      67   44172   44169      66
   44175   44169      66   44175   44172      67   44184   44181      66   44187
   44181      66   44187   44184      67   44196   44193      66   44199   44193
      66   44199   44196      67   44208   44205      66   44211   44205      66
   44211   44208      67   44220   44217      66   44223   44217      66   44223
   44220      67   44232   44229      66   44235   44229      66   44235   44232
      67   44244   44241      66   44247   44241      66   44247   44244      67
   44256   44253      66   44259   44253      66   44259   44256      67   44268
   44265      66   44271   44265      66   44271   44268      67   44280   44277
      66   44283   44277      66   44283   44280      67   44292   44289      66
   44295   44289      66   44295   44292      67   44304   44301      66   44307
   44301      66   44307   44304      67   44316   44313      66   44319   44313
      66   44319   44316      67   44328   44325      66   44331   44325      66
   44331   44328      67   44340   44337      66   44343   44337      66   44343
   44340      67   44352   44349      66   44355   44349      66   44355   44352
      67   44364   44361      66   44367   44361      66   44367   44364      67
   44376   44373      66   44379   44373      66   44379   44376      67   44388
   44385      66   44391   44385      66   44391   44388      67   44400   44397
      66   44403   44397      66   44403   44400      67   44412   44409      66
   44415   44409      66   44415   44412      67   44424   44421      66   44427
   44421      66   44427   44424      67   44436   44433      66   44439   44433
      66   44439   44436      67   44448   44445      66   44451   44445      66
   44451   44448      67   44460   44457      66   44463   44457      66   44463
   44460      67   44472   44469      66   44475   44469      66   44475   44472
      67   44484   44481      66   44487   44481      66   44487   44484      67
   44496   44493      66   44499   44493      66   44499   44496      67   44508
   44505      66   44511   44505      66   44511   44508      67   44520   44517
      66   44523   44517      66   44523   44520      67   44532   44529      66
   44535   44529      66   44535   44532      67   44544   44541      66   44547
   44541      66   44547   44544      67   44556   44553      66   44559   44553
      66   44559   44556      67   44568   44565      66   44571   44565      66
   44571   44568      67   44580   44577      66   44583   44577      66   44583
   44580      67   44592   44589      66   44595   44589      66   44595   44592
      67   44604   44601      66   44607   44601      66   44607   44604      67
   44616   44613      66   44619   44613      66   44619   44616      67   44628
   44625      66   44631   44625      66   44631   44628      67   44640   44637
      66   44643   44637      66   44643   44640      67   44652   44649      66
   44655   44649      66   44655   44652      67   44664   44661      66   44667
   44661      66   44667   44664      67   44676   44673      66   44679   44673
      66   44679   44676      67   44688   44685      66   44691   44685      66
   44691   44688      67   44700   44697      66   44703   44697      66   44703
   44700      67   44712   44709      66   44715   44709      66   44715   44712
      67   44724   44721      66   44727   44721      66   44727   44724      67
   44736   44733      66   44739   44733      66   44739   44736      67   44748
   44745      66   44751   44745      66   44751   44748      67   44760   44757
      66   44763   44757      66   44763   44760      67   44772   44769      66
   44775   44769      66   44775   44772      67   44784   44781      66   44787
   44781      66   44787   44784      67   44796   44793      66   44799   44793
      66   44799   44796      67   44808   44805      66   44811   44805      66
   44811   44808      67   44820   44817      66   44823   44817      66   44823
   44820      67   44832   44829      66   44835   44829      66   44835   44832
      67   44844   44841      66   44847   44841      66   44847   44844      67
   44856   44853      66   44859   44853      66   44859   44856      67   44868
   44865      66   44871   44865      66   44871   44868      67   44880   44877
      66   44883   44877      66   44883   44880      67   44892   44889      66
   44895   44889      66   44895   44892      67   44904   44901      66   44907
   44901      66   44907   44904      67   44916   44913      66   44919   44913
      66   44919   44916      67   44928   44925      66   44931   44925      66
   44931   44928      67   44940   44937      66   44943   44937      66   44943
   44940      67   44952   44949      66   44955   44949      66   44955   44952
      67   44964   44961      66   44967   44961      66   44967   44964      67
   44976   44973      66   44979   44973      66   44979   44976      67   44988
   44985      66   44991   44985      66   44991   44988      67   45000   44997
      66   45003   44997      66   45003   45000      67   45012   45009      66
   45015   45009      66   45015   45012      67   45024   45021      66   45027
   45021      66   45027   45024      67   45036   45033      66   45039   45033
      66   45039   45036      67   45048   45045      66   45051   45045      66
   45051   45048      67   45060   45057      66   45063   45057      66   45063
   45060      67   45072   45069      66   45075   45069      66   45075   45072
      67   45084   45081      66   45087   45081      66   45087   45084      67
   45096   45093      66   45099   45093      66   45099   45096      67   45108
   45105      66   45111   45105      66   45111   45108      67   45120   45117
      66   45123   45117      66   45123   45120      67   45132   45129      66
   45135   45129      66   45135   45132      67   45144   45141      66   45147
   45141      66   45147   45144      67   45156   45153      66   45159   45153
      66   45159   45156      67   45168   45165      66   45171   45165      66
   45171   45168      67   45180   45177      66   45183   45177      66   45183
   45180      67   45192   45189      66   45195   45189      66   45195   45192
      67   45204   45201      66   45207   45201      66   45207   45204      67
   45216   45213      66   45219   45213      66   45219   45216      67   45228
   45225      66   45231   45225      66   45231   45228      67   45240   45237
      66   45243   45237      66   45243   45240      67   45252   45249      66
   45255   45249      66   45255   45252      67   45264   45261      66   45267
   45261      66   45267   45264      67   45276   45273      66   45279   45273
      66   45279   45276      67   45288   45285      66   45291   45285      66
   45291   45288      67   45300   45297      66   45303   45297      66   45303
   45300      67   45312   45309      66   45315   45309      66   45315   45312
      67   45324   45321      66   45327   45321      66   45327   45324      67
   45336   45333      66   45339   45333      66   45339   45336      67   45348
   45345      66   45351   45345      66   45351   45348      67   45360   45357
      66   45363   45357      66   45363   45360      67   45372   45369      66
   45375   45369      66   45375   45372      67   45384   45381      66   45387
   45381      66   45387   45384      67   45396   45393      66   45399   45393
      66   45399   45396      67   45408   45405      66   45411   45405      66
   45411   45408      67   45420   45417      66   45423   45417      66   45423
   45420      67   45432   45429      66   45435   45429      66   45435   45432
      67   45444   45441      66   45447   45441      66   45447   45444      67
   45456   45453      66   45459   45453      66   45459   45456      67   45468
   45465      66   45471   45465      66   45471   45468      67   45480   45477
      66   45483   45477      66   45483   45480      67   45492   45489      66
   45495   45489      66   45495   45492      67   45504   45501      66   45507
   45501      66   45507   45504      67   45516   45513      66   45519   45513
      66   45519   45516      67   45528   45525      66   45531   45525      66
   45531   45528      67   45540   45537      66   45543   45537      66   45543
   45540      67   45552   45549      66   45555   45549      66   45555   45552
      67   45564   45561      66   45567   45561      66   45567   45564      67
   45576   45573      66   45579   45573      66   45579   45576      67   45588
   45585      66   45591   45585      66   45591   45588      67   45600   45597
      66   45603   45597      66   45603   45600      67   45612   45609      66
   45615   45609      66   45615   45612      67   45624   45621      66   45627
   45621      66   45627   45624      67   45636   45633      66   45639   45633
      66   45639   45636      67   45648   45645      66   45651   45645      66
   45651   45648      67   45660   45657      66   45663   45657      66   45663
   45660      67   45672   45669      66   45675   45669      66   45675   45672
      67   45684   45681      66   45687   45681      66   45687   45684      67
   45696   45693      66   45699   45693      66   45699   45696      67   45708
   45705      66   45711   45705      66   45711   45708      67   45720   45717
      66   45723   45717      66   45723   45720      67   45732   45729      66
   45735   45729      66   45735   45732      67   45744   45741      66   45747
   45741      66   45747   45744      67   45756   45753      66   45759   45753
      66   45759   45756      67   45768   45765      66   45771   45765      66
   45771   45768      67   45780   45777      66   45783   45777      66   45783
   45780      67   45792   45789      66   45795   45789      66   45795   45792
      67   45804   45801      66   45807   45801      66   45807   45804      67
   45816   45813      66   45819   45813      66   45819   45816      67   45828
   45825      66   45831   45825      66   45831   45828      67   45840   45837
      66   45843   45837      66   45843   45840      67   45852   45849      66
   45855   45849      66   45855   45852      67   45864   45861      66   45867
   45861      66   45867   45864      67   45876   45873      66   45879   45873
      66   45879   45876      67   45888   45885      66   45891   45885      66
   45891   45888      67   45900   45897      66   45903   45897      66   45903
   45900      67   45912   45909      66   45915   45909      66   45915   45912
      67   45924   45921      66   45927   45921      66   45927   45924      67
   45936   45933      66   45939   45933      66   45939   45936      67   45948
   45945      66   45951   45945      66   45951   45948      67   45960   45957
      66   45963   45957      66   45963   45960      67   45972   45969      66
   45975   45969      66   45975   45972      67   45984   45981      66   45987
   45981      66   45987   45984      67   45996   45993      66   45999   45993
      66   45999   45996      67   46008   46005      66   46011   46005      66
   46011   46008      67   46020   46017      66   46023   46017      66   46023
   46020      67   46032   46029      66   46035   46029      66   46035   46032
      67   46044   46041      66   46047   46041      66   46047   46044      67
   46056   46053      66   46059   46053      66   46059   46056      67   46068
   46065      66   46071   46065      66   46071   46068      67   46080   46077
      66   46083   46077      66   46083   46080      67   46092   46089      66
   46095   46089      66   46095   46092      67   46104   46101      66   46107
   46101      66   46107   46104      67   46116   46113      66   46119   46113
      66   46119   46116      67   46128   46125      66   46131   46125      66
   46131   46128      67   46140   46137      66   46143   46137      66   46143
   46140      67   46152   46149      66   46155   46149      66   46155   46152
      67   46164   46161      66   46167   46161      66   46167   46164      67
   46176   46173      66   46179   46173      66   46179   46176      67   46188
   46185      66   46191   46185      66   46191   46188      67   46200   46197
      66   46203   46197      66   46203   46200      67   46212   46209      66
   46215   46209      66   46215   46212      67   46224   46221      66   46227
   46221      66   46227   46224      67   46236   46233      66   46239   46233
      66   46239   46236      67   46248   46245      66   46251   46245      66
   46251   46248      67   46260   46257      66   46263   46257      66   46263
   46260      67   46272   46269      66   46275   46269      66   46275   46272
      67   46284   46281      66   46287   46281      66   46287   46284      67
   46296   46293      66   46299   46293      66   46299   46296      67   46308
   46305      66   46311   46305      66   46311   46308      67   46320   46317
      66   46323   46317      66   46323   46320      67   46332   46329      66
   46335   46329      66   46335   46332      67   46344   46341      66   46347
   46341      66   46347   46344      67   46356   46353      66   46359   46353
      66   46359   46356      67   46368   46365      66   46371   46365      66
   46371   46368      67   46380   46377      66   46383   46377      66   46383
   46380      67   46392   46389      66   46395   46389      66   46395   46392
      67   46404   46401      66   46407   46401      66   46407   46404      67
   46416   46413      66   46419   46413      66   46419   46416      67   46428
   46425      66   46431   46425      66   46431   46428      67   46440   46437
      66   46443   46437      66   46443   46440      67   46452   46449      66
   46455   46449      66   46455   46452      67   46464   46461      66   46467
   46461      66   46467   46464      67   46476   46473      66   46479   46473
      66   46479   46476      67   46488   46485      66   46491   46485      66
   46491   46488      67   46500   46497      66   46503   46497      66   46503
   46500      67   46512   46509      66   46515   46509      66   46515   46512
      67   46524   46521      66   46527   46521      66   46527   46524      67
   46536   46533      66   46539   46533      66   46539   46536      67   46548
   46545      66   46551   46545      66   46551   46548      67   46560   46557
      66   46563   46557      66   46563   46560      67   46572   46569      66
   46575   46569      66   46575   46572      67   46584   46581      66   46587
   46581      66   46587   46584      67   46596   46593      66   46599   46593
      66   46599   46596      67   46608   46605      66   46611   46605      66
   46611   46608      67   46620   46617      66   46623   46617      66   46623
   46620      67   46632   46629      66   46635   46629      66   46635   46632
      67   46644   46641      66   46647   46641      66   46647   46644      67
   46656   46653      66   46659   46653      66   46659   46656      67   46668
   46665      66   46671   46665      66   46671   46668      67   46680   46677
      66   46683   46677      66   46683   46680      67   46692   46689      66
   46695   46689      66   46695   46692      67   46704   46701      66   46707
   46701      66   46707   46704      67   46716   46713      66   46719   46713
      66   46719   46716      67   46728   46725      66   46731   46725      66
   46731   46728      67   46740   46737      66   46743   46737      66   46743
   46740      67   46752   46749      66   46755   46749      66   46755   46752
      67   46764   46761      66   46767   46761      66   46767   46764      67
   46776   46773      66   46779   46773      66   46779   46776      67   46788
   46785      66   46791   46785      66   46791   46788      67   46800   46797
      66   46803   46797      66   46803   46800      67   46812   46809      66
   46815   46809      66   46815   46812      67   46824   46821      66   46827
   46821      66   46827   46824      67   46836   46833      66   46839   46833
      66   46839   46836      67   46848   46845      66   46851   46845      66
   46851   46848      67   46860   46857      66   46863   46857      66   46863
   46860      67   46872   46869      66   46875   46869      66   46875   46872
      67   46884   46881      66   46887   46881      66   46887   46884      67
   46896   46893      66   46899   46893      66   46899   46896      67   46908
   46905      66   46911   46905      66   46911   46908      67   46920   46917
      66   46923   46917      66   46923   46920      67   46932   46929      66
   46935   46929      66   46935   46932      67   46944   46941      66   46947
   46941      66   46947   46944      67   46956   46953      66   46959   46953
      66   46959   46956      67   46968   46965      66   46971   46965      66
   46971   46968      67   46980   46977      66   46983   46977      66   46983
   46980      67   46992   46989      66   46995   46989      66   46995   46992
      67   47004   47001      66   47007   47001      66   47007   47004      67
   47016   47013      66   47019   47013      66   47019   47016      67   47028
   47025      66   47031   47025      66   47031   47028      67   47040   47037
      66   47043   47037      66   47043   47040      67   47052   47049      66
   47055   47049      66   47055   47052      67   47064   47061      66   47067
   47061      66   47067   47064      67   47076   47073      66   47079   47073
      66   47079   47076      67   47088   47085      66   47091   47085      66
   47091   47088      67   47100   47097      66   47103   47097      66   47103
   47100      67   47112   47109      66   47115   47109      66   47115   47112
      67   47124   47121      66   47127   47121      66   47127   47124      67
   47136   47133      66   47139   47133      66   47139   47136      67   47148
   47145      66   47151   47145      66   47151   47148      67   47160   47157
      66   47163   47157      66   47163   47160      67   47172   47169      66
   47175   47169      66   47175   47172      67   47184   47181      66   47187
   47181      66   47187   47184      67   47196   47193      66   47199   47193
      66   47199   47196      67   47208   47205      66   47211   47205      66
   47211   47208      67   47220   47217      66   47223   47217      66   47223
   47220      67   47232   47229      66   47235   47229      66   47235   47232
      67   47244   47241      66   47247   47241      66   47247   47244      67
   47256   47253      66   47259   47253      66   47259   47256      67   47268
   47265      66   47271   47265      66   47271   47268      67   47280   47277
      66   47283   47277      66   47283   47280      67   47292   47289      66
   47295   47289      66   47295   47292      67   47304   47301      66   47307
   47301      66   47307   47304      67   47316   47313      66   47319   47313
      66   47319   47316      67   47328   47325      66   47331   47325      66
   47331   47328      67   47340   47337      66   47343   47337      66   47343
   47340      67   47352   47349      66   47355   47349      66   47355   47352
      67   47364   47361      66   47367   47361      66   47367   47364      67
   47376   47373      66   47379   47373      66   47379   47376      67   47388
   47385      66   47391   47385      66   47391   47388      67   47400   47397
      66   47403   47397      66   47403   47400      67   47412   47409      66
   47415   47409      66   47415   47412      67   47424   47421      66   47427
   47421      66   47427   47424      67   47436   47433      66   47439   47433
      66   47439   47436      67   47448   47445      66   47451   47445      66
   47451   47448      67   47460   47457      66   47463   47457      66   47463
   47460      67   47472   47469      66   47475   47469      66   47475   47472
      67   47484   47481      66   47487   47481      66   47487   47484      67
   47496   47493      66   47499   47493      66   47499   47496      67   47508
   47505      66   47511   47505      66   47511   47508      67   47520   47517
      66   47523   47517      66   47523   47520      67   47532   47529      66
   47535   47529      66   47535   47532      67   47544   47541      66   47547
   47541      66   47547   47544      67   47556   47553      66   47559   47553
      66   47559   47556      67   47568   47565      66   47571   47565      66
   47571   47568      67   47580   47577      66   47583   47577      66   47583
   47580      67   47592   47589      66   47595   47589      66   47595   47592
      67   47604   47601      66   47607   47601      66   47607   47604      67
   47616   47613      66   47619   47613      66   47619   47616      67   47628
   47625      66   47631   47625      66   47631   47628      67   47640   47637
      66   47643   47637      66   47643   47640      67   47652   47649      66
   47655   47649      66   47655   47652      67   47664   47661      66   47667
   47661      66   47667   47664      67   47676   47673      66   47679   47673
      66   47679   47676      67   47688   47685      66   47691   47685      66
   47691   47688      67   47700   47697      66   47703   47697      66   47703
   47700      67   47712   47709      66   47715   47709      66   47715   47712
      67   47724   47721      66   47727   47721      66   47727   47724      67
   47736   47733      66   47739   47733      66   47739   47736      67   47748
   47745      66   47751   47745      66   47751   47748      67   47760   47757
      66   47763   47757      66   47763   47760      67   47772   47769      66
   47775   47769      66   47775   47772      67   47784   47781      66   47787
   47781      66   47787   47784      67   47796   47793      66   47799   47793
      66   47799   47796      67   47808   47805      66   47811   47805      66
   47811   47808      67   47820   47817      66   47823   47817      66   47823
   47820      67   47832   47829      66   47835   47829      66   47835   47832
      67   47844   47841      66   47847   47841      66   47847   47844      67
   47856   47853      66   47859   47853      66   47859   47856      67   47868
   47865      66   47871   47865      66   47871   47868      67   47880   47877
      66   47883   47877      66   47883   47880      67   47892   47889      66
   47895   47889      66   47895   47892      67   47904   47901      66   47907
   47901      66   47907   47904      67   47916   47913      66   47919   47913
      66   47919   47916      67   47928   47925      66   47931   47925      66
   47931   47928      67   47940   47937      66   47943   47937      66   47943
   47940      67   47952   47949      66   47955   47949      66   47955   47952
      67   47964   47961      66   47967   47961      66   47967   47964      67
   47976   47973      66   47979   47973      66   47979   47976      67   47988
   47985      66   47991   47985      66   47991   47988      67   48000   47997
      66   48003   47997      66   48003   48000      67   48012   48009      66
   48015   48009      66   48015   48012      67   48024   48021      66   48027
   48021      66   48027   48024      67   48036   48033      66   48039   48033
      66   48039   48036      67   48048   48045      66   48051   48045      66
   48051   48048      67   48060   48057      66   48063   48057      66   48063
   48060      67   48072   48069      66   48075   48069      66   48075   48072
      67   48084   48081      66   48087   48081      66   48087   48084      67
   48096   48093      66   48099   48093      66   48099   48096      67   48108
   48105      66   48111   48105      66   48111   48108      67   48120   48117
      66   48123   48117      66   48123   48120      67   48132   48129      66
   48135   48129      66   48135   48132      67   48144   48141      66   48147
   48141      66   48147   48144      67   48156   48153      66   48159   48153
      66   48159   48156      67   48168   48165      66   48171   48165      66
   48171   48168      67   48180   48177      66   48183   48177      66   48183
   48180      67   48192   48189      66   48195   48189      66   48195   48192
      67   48204   48201      66   48207   48201      66   48207   48204      67
   48216   48213      66   48219   48213      66   48219   48216      67   48228
   48225      66   48231   48225      66   48231   48228      67   48240   48237
      66   48243   48237      66   48243   48240      67   48252   48249      66
   48255   48249      66   48255   48252      67   48264   48261      66   48267
   48261      66   48267   48264      67   48276   48273      66   48279   48273
      66   48279   48276      67   48288   48285      66   48291   48285      66
   48291   48288      67   48300   48297      66   48303   48297      66   48303
   48300      67   48312   48309      66   48315   48309      66   48315   48312
      67   48324   48321      66   48327   48321      66   48327   48324      67
   48336   48333      66   48339   48333      66   48339   48336      67   48348
   48345      66   48351   48345      66   48351   48348      67   48360   48357
      66   48363   48357      66   48363   48360      67   48372   48369      66
   48375   48369      66   48375   48372      67   48384   48381      66   48387
   48381      66   48387   48384      67   48396   48393      66   48399   48393
      66   48399   48396      67   48408   48405      66   48411   48405      66
   48411   48408      67   48420   48417      66   48423   48417      66   48423
   48420      67   48432   48429      66   48435   48429      66   48435   48432
      67   48444   48441      66   48447   48441      66   48447   48444      67
   48456   48453      66   48459   48453      66   48459   48456      67   48468
   48465      66   48471   48465      66   48471   48468      67   48480   48477
      66   48483   48477      66   48483   48480      67   48492   48489      66
   48495   48489      66   48495   48492      67   48504   48501      66   48507
   48501      66   48507   48504      67   48516   48513      66   48519   48513
      66   48519   48516      67   48528   48525      66   48531   48525      66
   48531   48528      67   48540   48537      66   48543   48537      66   48543
   48540      67   48552   48549      66   48555   48549      66   48555   48552
      67   48564   48561      66   48567   48561      66   48567   48564      67
   48576   48573      66   48579   48573      66   48579   48576      67   48588
   48585      66   48591   48585      66   48591   48588      67   48600   48597
      66   48603   48597      66   48603   48600      67   48612   48609      66
   48615   48609      66   48615   48612      67   48624   48621      66   48627
   48621      66   48627   48624      67   48636   48633      66   48639   48633
      66   48639   48636      67   48648   48645      66   48651   48645      66
   48651   48648      67   48660   48657      66   48663   48657      66   48663
   48660      67   48672   48669      66   48675   48669      66   48675   48672
      67   48684   48681      66   48687   48681      66   48687   48684      67
   48696   48693      66   48699   48693      66   48699   48696      67   48708
   48705      66   48711   48705      66   48711   48708      67   48720   48717
      66   48723   48717      66   48723   48720      67   48732   48729      66
   48735   48729      66   48735   48732      67   48744   48741      66   48747
   48741      66   48747   48744      67   48756   48753      66   48759   48753
      66   48759   48756      67   48768   48765      66   48771   48765      66
   48771   48768      67   48780   48777      66   48783   48777      66   48783
   48780      67   48792   48789      66   48795   48789      66   48795   48792
      67   48804   48801      66   48807   48801      66   48807   48804      67
   48816   48813      66   48819   48813      66   48819   48816      67   48828
   48825      66   48831   48825      66   48831   48828      67   48840   48837
      66   48843   48837      66   48843   48840      67   48852   48849      66
   48855   48849      66   48855   48852      67   48864   48861      66   48867
   48861      66   48867   48864      67   48876   48873      66   48879   48873
      66   48879   48876      67   48888   48885      66   48891   48885      66
   48891   48888      67   48900   48897      66   48903   48897      66   48903
   48900      67   48912   48909      66   48915   48909      66   48915   48912
      67   48924   48921      66   48927   48921      66   48927   48924      67
   48936   48933      66   48939   48933      66   48939   48936      67   48948
   48945      66   48951   48945      66   48951   48948      67   48960   48957
      66   48963   48957      66   48963   48960      67   48972   48969      66
   48975   48969      66   48975   48972      67   48984   48981      66   48987
   48981      66   48987   48984      67   48996   48993      66   48999   48993
      66   48999   48996      67   49008   49005      66   49011   49005      66
   49011   49008      67   49020   49017      66   49023   49017      66   49023
   49020      67   49032   49029      66   49035   49029      66   49035   49032
      67   49044   49041      66   49047   49041      66   49047   49044      67
   49056   49053      66   49059   49053      66   49059   49056      67   49068
   49065      66   49071   49065      66   49071   49068      67   49080   49077
      66   49083   49077      66   49083   49080      67   49092   49089      66
   49095   49089      66   49095   49092      67   49104   49101      66   49107
   49101      66   49107   49104      67   49116   49113      66   49119   49113
      66   49119   49116      67   49128   49125      66   49131   49125      66
   49131   49128      67   49140   49137      66   49143   49137      66   49143
   49140      67   49152   49149      66   49155   49149      66   49155   49152
      67   49164   49161      66   49167   49161      66   49167   49164      67
   49176   49173      66   49179   49173      66   49179   49176      67   49188
   49185      66   49191   49185      66   49191   49188      67   49200   49197
      66   49203   49197      66   49203   49200      67   49212   49209      66
   49215   49209      66   49215   49212      67   49224   49221      66   49227
   49221      66   49227   49224      67   49236   49233      66   49239   49233
      66   49239   49236      67   49248   49245      66   49251   49245      66
   49251   49248      67   49260   49257      66   49263   49257      66   49263
   49260      67   49272   49269      66   49275   49269      66   49275   49272
      67   49284   49281      66   49287   49281      66   49287   49284      67
   49296   49293      66   49299   49293      66   49299   49296      67   49308
   49305      66   49311   49305      66   49311   49308      67   49320   49317
      66   49323   49317      66   49323   49320      67   49332   49329      66
   49335   49329      66   49335   49332      67   49344   49341      66   49347
   49341      66   49347   49344      67   49356   49353      66   49359   49353
      66   49359   49356      67   49368   49365      66   49371   49365      66
   49371   49368      67   49380   49377      66   49383   49377      66   49383
   49380      67   49392   49389      66   49395   49389      66   49395   49392
      67   49404   49401      66   49407   49401      66   49407   49404      67
   49416   49413      66   49419   49413      66   49419   49416      67   49428
   49425      66   49431   49425      66   49431   49428      67   49440   49437
      66   49443   49437      66   49443   49440      67   49452   49449      66
   49455   49449      66   49455   49452      67   49464   49461      66   49467
   49461      66   49467   49464      67   49476   49473      66   49479   49473
      66   49479   49476      67   49488   49485      66   49491   49485      66
   49491   49488      67   49500   49497      66   49503   49497      66   49503
   49500      67   49512   49509      66   49515   49509      66   49515   49512
      67   49524   49521      66   49527   49521      66   49527   49524      67
   49536   49533      66   49539   49533      66   49539   49536      67   49548
   49545      66   49551   49545      66   49551   49548      67   49560   49557
      66   49563   49557      66   49563   49560      67   49572   49569      66
   49575   49569      66   49575   49572      67   49584   49581      66   49587
   49581      66   49587   49584      67   49596   49593      66   49599   49593
      66   49599   49596      67   49608   49605      66   49611   49605      66
   49611   49608      67   49620   49617      66   49623   49617      66   49623
   49620      67   49632   49629      66   49635   49629      66   49635   49632
      67   49644   49641      66   49647   49641      66   49647   49644      67
   49656   49653      66   49659   49653      66   49659   49656      67   49668
   49665      66   49671   49665      66   49671   49668      67   49680   49677
      66   49683   49677      66   49683   49680      67   49692   49689      66
   49695   49689      66   49695   49692      67   49704   49701      66   49707
   49701      66   49707   49704      67   49716   49713      66   49719   49713
      66   49719   49716      67   49728   49725      66   49731   49725      66
   49731   49728      67   49740   49737      66   49743   49737      66   49743
   49740      67   49752   49749      66   49755   49749      66   49755   49752
      67   49764   49761      66   49767   49761      66   49767   49764      67
   49776   49773      66   49779   49773      66   49779   49776      67   49788
   49785      66   49791   49785      66   49791   49788      67   49800   49797
      66   49803   49797      66   49803   49800      67   49812   49809      66
   49815   49809      66   49815   49812      67   49824   49821      66   49827
   49821      66   49827   49824      67   49836   49833      66   49839   49833
      66   49839   49836      67   49848   49845      66   49851   49845      66
   49851   49848      67   49860   49857      66   49863   49857      66   49863
   49860      67   49872   49869      66   49875   49869      66   49875   49872
      67   49884   49881      66   49887   49881      66   49887   49884      67
   49896   49893      66   49899   49893      66   49899   49896      67   49908
   49905      66   49911   49905      66   49911   49908      67   49920   49917
      66   49923   49917      66   49923   49920      67   49932   49929      66
   49935   49929      66   49935   49932      67   49944   49941      66   49947
   49941      66   49947   49944      67   49956   49953      66   49959   49953
      66   49959   49956      67   49968   49965      66   49971   49965      66
   49971   49968      67   49980   49977      66   49983   49977      66   49983
   49980      67   49992   49989      66   49995   49989      66   49995   49992
      67   50004   50001      66   50007   50001      66   50007   50004      67
   50016   50013      66   50019   50013      66   50019   50016      67   50028
   50025      66   50031   50025      66   50031   50028      67   50040   50037
      66   50043   50037      66   50043   50040      67   50052   50049      66
   50055   50049      66   50055   50052      67   50064   50061      66   50067
   50061      66   50067   50064      67   50076   50073      66   50079   50073
      66   50079   50076      67   50088   50085      66   50091   50085      66
   50091   50088      67   50100   50097      66   50103   50097      66   50103
   50100      67   50112   50109      66   50115   50109      66   50115   50112
      67   50124   50121      66   50127   50121      66   50127   50124      67
   50136   50133      66   50139   50133      66   50139   50136      67   50148
   50145      66   50151   50145      66   50151   50148      67   50160   50157
      66   50163   50157      66   50163   50160      67   50172   50169      66
   50175   50169      66   50175   50172      67   50184   50181      66   50187
   50181      66   50187   50184      67   50196   50193      66   50199   50193
      66   50199   50196      67   50208   50205      66   50211   50205      66
   50211   50208      67   50220   50217      66   50223   50217      66   50223
   50220      67   50232   50229      66   50235   50229      66   50235   50232
      67   50244   50241      66   50247   50241      66   50247   50244      67
   50256   50253      66   50259   50253      66   50259   50256      67   50268
   50265      66   50271   50265      66   50271   50268      67   50280   50277
      66   50283   50277      66   50283   50280      67   50292   50289      66
   50295   50289      66   50295   50292      67   50304   50301      66   50307
   50301      66   50307   50304      67   50316   50313      66   50319   50313
      66   50319   50316      67   50328   50325      66   50331   50325      66
   50331   50328      67   50340   50337      66   50343   50337      66   50343
   50340      67   50352   50349      66   50355   50349      66   50355   50352
      67   50364   50361      66   50367   50361      66   50367   50364      67
   50376   50373      66   50379   50373      66   50379   50376      67   50388
   50385      66   50391   50385      66   50391   50388      67   50400   50397
      66   50403   50397      66   50403   50400      67   50412   50409      66
   50415   50409      66   50415   50412      67   50424   50421      66   50427
   50421      66   50427   50424      67   50436   50433      66   50439   50433
      66   50439   50436      67   50448   50445      66   50451   50445      66
   50451   50448      67   50460   50457      66   50463   50457      66   50463
   50460      67   50472   50469      66   50475   50469      66   50475   50472
      67   50484   50481      66   50487   50481      66   50487   50484      67
   50496   50493      66   50499   50493      66   50499   50496      67   50508
   50505      66   50511   50505      66   50511   50508      67   50520   50517
      66   50523   50517      66   50523   50520      67   50532   50529      66
   50535   50529      66   50535   50532      67   50544   50541      66   50547
   50541      66   50547   50544      67   50556   50553      66   50559   50553
      66   50559   50556      67   50568   50565      66   50571   50565      66
   50571   50568      67   50580   50577      66   50583   50577      66   50583
   50580      67   50592   50589      66   50595   50589      66   50595   50592
      67   50604   50601      66   50607   50601      66   50607   50604      67
   50616   50613      66   50619   50613      66   50619   50616      67   50628
   50625      66   50631   50625      66   50631   50628      67   50640   50637
      66   50643   50637      66   50643   50640      67   50652   50649      66
   50655   50649      66   50655   50652      67   50664   50661      66   50667
   50661      66   50667   50664      67   50676   50673      66   50679   50673
      66   50679   50676      67   50688   50685      66   50691   50685      66
   50691   50688      67   50700   50697      66   50703   50697      66   50703
   50700      67   50712   50709      66   50715   50709      66   50715   50712
      67   50724   50721      66   50727   50721      66   50727   50724      67
   50736   50733      66   50739   50733      66   50739   50736      67   50748
   50745      66   50751   50745      66   50751   50748      67   50760   50757
      66   50763   50757      66   50763   50760      67   50772   50769      66
   50775   50769      66   50775   50772      67   50784   50781      66   50787
   50781      66   50787   50784      67   50796   50793      66   50799   50793
      66   50799   50796      67   50808   50805      66   50811   50805      66
   50811   50808      67   50820   50817      66   50823   50817      66   50823
   50820      67   50832   50829      66   50835   50829      66   50835   50832
      67   50844   50841      66   50847   50841      66   50847   50844      67
   50856   50853      66   50859   50853      66   50859   50856      67   50868
   50865      66   50871   50865      66   50871   50868      67   50880   50877
      66   50883   50877      66   50883   50880      67   50892   50889      66
   50895   50889      66   50895   50892      67   50904   50901      66   50907
   50901      66   50907   50904      67   50916   50913      66   50919   50913
      66   50919   50916      67   50928   50925      66   50931   50925      66
   50931   50928      67   50940   50937      66   50943   50937      66   50943
   50940      67   50952   50949      66   50955   50949      66   50955   50952
      67   50964   50961      66   50967   50961      66   50967   50964      67
   50976   50973      66   50979   50973      66   50979   50976      67   50988
   50985      66   50991   50985      66   50991   50988      67   51000   50997
      66   51003   50997      66   51003   51000      67   51012   51009      66
   51015   51009      66   51015   51012      67   51024   51021      66   51027
   51021      66   51027   51024      67   51036   51033      66   51039   51033
      66   51039   51036      67   51048   51045      66   51051   51045      66
   51051   51048      67   51060   51057      66   51063   51057      66   51063
   51060      67   51072   51069      66   51075   51069      66   51075   51072
      67   51084   51081      66   51087   51081      66   51087   51084      67
   51096   51093      66   51099   51093      66   51099   51096      67   51108
   51105      66   51111   51105      66   51111   51108      67   51120   51117
      66   51123   51117      66   51123   51120      67   51132   51129      66
   51135   51129      66   51135   51132      67   51144   51141      66   51147
   51141      66   51147   51144      67   51156   51153      66   51159   51153
      66   51159   51156      67   51168   51165      66   51171   51165      66
   51171   51168      67   51180   51177      66   51183   51177      66   51183
   51180      67   51192   51189      66   51195   51189      66   51195   51192
      67   51204   51201      66   51207   51201      66   51207   51204      67
   51216   51213      66   51219   51213      66   51219   51216      67   51228
   51225      66   51231   51225      66   51231   51228      67   51240   51237
      66   51243   51237      66   51243   51240      67   51252   51249      66
   51255   51249      66   51255   51252      67   51264   51261      66   51267
   51261      66   51267   51264      67   51276   51273      66   51279   51273
      66   51279   51276      67   51288   51285      66   51291   51285      66
   51291   51288      67   51300   51297      66   51303   51297      66   51303
   51300      67   51312   51309      66   51315   51309      66   51315   51312
      67   51324   51321      66   51327   51321      66   51327   51324      67
   51336   51333      66   51339   51333      66   51339   51336      67   51348
   51345      66   51351   51345      66   51351   51348      67   51360   51357
      66   51363   51357      66   51363   51360      67   51372   51369      66
   51375   51369      66   51375   51372      67   51384   51381      66   51387
   51381      66   51387   51384      67   51396   51393      66   51399   51393
      66   51399   51396      67   51408   51405      66   51411   51405      66
   51411   51408      67   51420   51417      66   51423   51417      66   51423
   51420      67   51432   51429      66   51435   51429      66   51435   51432
      67   51444   51441      66   51447   51441      66   51447   51444      67
   51456   51453      66   51459   51453      66   51459   51456      67   51468
   51465      66   51471   51465      66   51471   51468      67   51480   51477
      66   51483   51477      66   51483   51480      67   51492   51489      66
   51495   51489      66   51495   51492      67   51504   51501      66   51507
   51501      66   51507   51504      67   51516   51513      66   51519   51513
      66   51519   51516      67   51528   51525      66   51531   51525      66
   51531   51528      67   51540   51537      66   51543   51537      66   51543
   51540      67   51552   51549      66   51555   51549      66   51555   51552
      67   51564   51561      66   51567   51561      66   51567   51564      67
   51576   51573      66   51579   51573      66   51579   51576      67   51588
   51585      66   51591   51585      66   51591   51588      67   51600   51597
      66   51603   51597      66   51603   51600      67   51612   51609      66
   51615   51609      66   51615   51612      67   51624   51621      66   51627
   51621      66   51627   51624      67   51636   51633      66   51639   51633
      66   51639   51636      67   51648   51645      66   51651   51645      66
   51651   51648      67   51660   51657      66   51663   51657      66   51663
   51660      67   51672   51669      66   51675   51669      66   51675   51672
      67   51684   51681      66   51687   51681      66   51687   51684      67
   51696   51693      66   51699   51693      66   51699   51696      67   51708
   51705      66   51711   51705      66   51711   51708      67   51720   51717
      66   51723   51717      66   51723   51720      67   51732   51729      66
   51735   51729      66   51735   51732      67   51744   51741      66   51747
   51741      66   51747   51744      67   51756   51753      66   51759   51753
      66   51759   51756      67   51768   51765      66   51771   51765      66
   51771   51768      67   51780   51777      66   51783   51777      66   51783
   51780      67   51792   51789      66   51795   51789      66   51795   51792
      67   51804   51801      66   51807   51801      66   51807   51804      67
   51816   51813      66   51819   51813      66   51819   51816      67   51828
   51825      66   51831   51825      66   51831   51828      67   51840   51837
      66   51843   51837      66   51843   51840      67   51852   51849      66
   51855   51849      66   51855   51852      67   51864   51861      66   51867
   51861      66   51867   51864      67   51876   51873      66   51879   51873
      66   51879   51876      67   51888   51885      66   51891   51885      66
   51891   51888      67   51900   51897      66   51903   51897      66   51903
   51900      67   51912   51909      66   51915   51909      66   51915   51912
      67   51924   51921      66   51927   51921      66   51927   51924      67
   51936   51933      66   51939   51933      66   51939   51936      67   51948
   51945      66   51951   51945      66   51951   51948      67   51960   51957
      66   51963   51957      66   51963   51960      67   51972   51969      66
   51975   51969      66   51975   51972      67   51984   51981      66   51987
   51981      66   51987   51984      67   51996   51993      66   51999   51993
      66   51999   51996      67   52008   52005      66   52011   52005      66
   52011   52008      67   52020   52017      66   52023   52017      66   52023
   52020      67   52032   52029      66   52035   52029      66   52035   52032
      67   52044   52041      66   52047   52041      66   52047   52044      67
   52056   52053      66   52059   52053      66   52059   52056      67   52068
   52065      66   52071   52065      66   52071   52068      67   52080   52077
      66   52083   52077      66   52083   52080      67   52092   52089      66
   52095   52089      66   52095   52092      67   52104   52101      66   52107
   52101      66   52107   52104      67   52116   52113      66   52119   52113
      66   52119   52116      67   52128   52125      66   52131   52125      66
   52131   52128      67   52140   52137      66   52143   52137      66   52143
   52140      67   52152   52149      66   52155   52149      66   52155   52152
      67   52164   52161      66   52167   52161      66   52167   52164      67
   52176   52173      66   52179   52173      66   52179   52176      67   52188
   52185      66   52191   52185      66   52191   52188      67   52200   52197
      66   52203   52197      66   52203   52200      67   52212   52209      66
   52215   52209      66   52215   52212      67   52224   52221      66   52227
   52221      66   52227   52224      67   52236   52233      66   52239   52233
      66   52239   52236      67   52248   52245      66   52251   52245      66
   52251   52248      67   52260   52257      66   52263   52257      66   52263
   52260      67   52272   52269      66   52275   52269      66   52275   52272
      67   52284   52281      66   52287   52281      66   52287   52284      67
   52296   52293      66   52299   52293      66   52299   52296      67   52308
   52305      66   52311   52305      66   52311   52308      67   52320   52317
      66   52323   52317      66   52323   52320      67   52332   52329      66
   52335   52329      66   52335   52332      67   52344   52341      66   52347
   52341      66   52347   52344      67   52356   52353      66   52359   52353
      66   52359   52356      67   52368   52365      66   52371   52365      66
   52371   52368      67   52380   52377      66   52383   52377      66   52383
   52380      67   52392   52389      66   52395   52389      66   52395   52392
      67   52404   52401      66   52407   52401      66   52407   52404      67
   52416   52413      66   52419   52413      66   52419   52416      67   52428
   52425      66   52431   52425      66   52431   52428      67   52440   52437
      66   52443   52437      66   52443   52440      67   52452   52449      66
   52455   52449      66   52455   52452      67   52464   52461      66   52467
   52461      66   52467   52464      67   52476   52473      66   52479   52473
      66   52479   52476      67   52488   52485      66   52491   52485      66
   52491   52488      67   52500   52497      66   52503   52497      66   52503
   52500      67   52512   52509      66   52515   52509      66   52515   52512
      67   52524   52521      66   52527   52521      66   52527   52524      67
   52536   52533      66   52539   52533      66   52539   52536      67   52548
   52545      66   52551   52545      66   52551   52548      67   52560   52557
      66   52563   52557      66   52563   52560      67   52572   52569      66
   52575   52569      66   52575   52572      67   52584   52581      66   52587
   52581      66   52587   52584      67   52596   52593      66   52599   52593
      66   52599   52596      67   52608   52605      66   52611   52605      66
   52611   52608      67   52620   52617      66   52623   52617      66   52623
   52620      67   52632   52629      66   52635   52629      66   52635   52632
      67   52644   52641      66   52647   52641      66   52647   52644      67
   52656   52653      66   52659   52653      66   52659   52656      67   52668
   52665      66   52671   52665      66   52671   52668      67   52680   52677
      66   52683   52677      66   52683   52680      67   52692   52689      66
   52695   52689      66   52695   52692      67   52704   52701      66   52707
   52701      66   52707   52704      67   52716   52713      66   52719   52713
      66   52719   52716      67   52728   52725      66   52731   52725      66
   52731   52728      67   52740   52737      66   52743   52737      66   52743
   52740      67   52752   52749      66   52755   52749      66   52755   52752
      67   52764   52761      66   52767   52761      66   52767   52764      67
   52776   52773      66   52779   52773      66   52779   52776      67   52788
   52785      66   52791   52785      66   52791   52788      67   52800   52797
      66   52803   52797      66   52803   52800      67   52812   52809      66
   52815   52809      66   52815   52812      67   52824   52821      66   52827
   52821      66   52827   52824      67   52836   52833      66   52839   52833
      66   52839   52836      67   52848   52845      66   52851   52845      66
   52851   52848      67   52860   52857      66   52863   52857      66   52863
   52860      67   52872   52869      66   52875   52869      66   52875   52872
      67   52884   52881      66   52887   52881      66   52887   52884      67
   52896   52893      66   52899   52893      66   52899   52896      67   52908
   52905      66   52911   52905      66   52911   52908      67   52920   52917
      66   52923   52917      66   52923   52920      67   52932   52929      66
   52935   52929      66   52935   52932      67   52944   52941      66   52947
   52941      66   52947   52944      67   52956   52953      66   52959   52953
      66   52959   52956      67   52968   52965      66   52971   52965      66
   52971   52968      67   52980   52977      66   52983   52977      66   52983
   52980      67   52992   52989      66   52995   52989      66   52995   52992
      67   53004   53001      66   53007   53001      66   53007   53004      67
   53016   53013      66   53019   53013      66   53019   53016      67   53028
   53025      66   53031   53025      66   53031   53028      67   53040   53037
      66   53043   53037      66   53043   53040      67   53052   53049      66
   53055   53049      66   53055   53052      67   53064   53061      66   53067
   53061      66   53067   53064      67   53076   53073      66   53079   53073
      66   53079   53076      67   53088   53085      66   53091   53085      66
   53091   53088      67   53100   53097      66   53103   53097      66   53103
   53100      67   53112   53109      66   53115   53109      66   53115   53112
      67   53124   53121      66   53127   53121      66   53127   53124      67
   53136   53133      66   53139   53133      66   53139   53136      67   53148
   53145      66   53151   53145      66   53151   53148      67   53160   53157
      66   53163   53157      66   53163   53160      67   53172   53169      66
   53175   53169      66   53175   53172      67   53184   53181      66   53187
   53181      66   53187   53184      67   53196   53193      66   53199   53193
      66   53199   53196      67   53208   53205      66   53211   53205      66
   53211   53208      67   53220   53217      66   53223   53217      66   53223
   53220      67   53232   53229      66   53235   53229      66   53235   53232
      67   53244   53241      66   53247   53241      66   53247   53244      67
   53256   53253      66   53259   53253      66   53259   53256      67   53268
   53265      66   53271   53265      66   53271   53268      67   53280   53277
      66   53283   53277      66   53283   53280      67   53292   53289      66
   53295   53289      66   53295   53292      67   53304   53301      66   53307
   53301      66   53307   53304      67   53316   53313      66   53319   53313
      66   53319   53316      67   53328   53325      66   53331   53325      66
   53331   53328      67   53340   53337      66   53343   53337      66   53343
   53340      67   53352   53349      66   53355   53349      66   53355   53352
      67   53364   53361      66   53367   53361      66   53367   53364      67
   53376   53373      66   53379   53373      66   53379   53376      67   53388
   53385      66   53391   53385      66   53391   53388      67   53400   53397
      66   53403   53397      66   53403   53400      67   53412   53409      66
   53415   53409      66   53415   53412      67   53424   53421      66   53427
   53421      66   53427   53424      67   53436   53433      66   53439   53433
      66   53439   53436      67   53448   53445      66   53451   53445      66
   53451   53448      67   53460   53457      66   53463   53457      66   53463
   53460      67   53472   53469      66   53475   53469      66   53475   53472
      67   53484   53481      66   53487   53481      66   53487   53484      67
   53496   53493      66   53499   53493      66   53499   53496      67   53508
   53505      66   53511   53505      66   53511   53508      67   53520   53517
      66   53523   53517      66   53523   53520      67   53532   53529      66
   53535   53529      66   53535   53532      67   53544   53541      66   53547
   53541      66   53547   53544      67   53556   53553      66   53559   53553
      66   53559   53556      67   53568   53565      66   53571   53565      66
   53571   53568      67   53580   53577      66   53583   53577      66   53583
   53580      67   53592   53589      66   53595   53589      66   53595   53592
      67   53604   53601      66   53607   53601      66   53607   53604      67
   53616   53613      66   53619   53613      66   53619   53616      67   53628
   53625      66   53631   53625      66   53631   53628      67   53640   53637
      66   53643   53637      66   53643   53640      67   53652   53649      66
   53655   53649      66   53655   53652      67   53664   53661      66   53667
   53661      66   53667   53664      67   53676   53673      66   53679   53673
      66   53679   53676      67   53688   53685      66   53691   53685      66
   53691   53688      67   53700   53697      66   53703   53697      66   53703
   53700      67   53712   53709      66   53715   53709      66   53715   53712
      67   53724   53721      66   53727   53721      66   53727   53724      67
   53736   53733      66   53739   53733      66   53739   53736      67   53748
   53745      66   53751   53745      66   53751   53748      67   53760   53757
      66   53763   53757      66   53763   53760      67   53772   53769      66
   53775   53769      66   53775   53772      67   53784   53781      66   53787
   53781      66   53787   53784      67   53796   53793      66   53799   53793
      66   53799   53796      67   53808   53805      66   53811   53805      66
   53811   53808      67   53820   53817      66   53823   53817      66   53823
   53820      67   53832   53829      66   53835   53829      66   53835   53832
      67   53844   53841      66   53847   53841      66   53847   53844      67
   53856   53853      66   53859   53853      66   53859   53856      67   53868
   53865      66   53871   53865      66   53871   53868      67   53880   53877
      66   53883   53877      66   53883   53880      67   53892   53889      66
   53895   53889      66   53895   53892      67   53904   53901      66   53907
   53901      66   53907   53904      67   53916   53913      66   53919   53913
      66   53919   53916      67   53928   53925      66   53931   53925      66
   53931   53928      67   53940   53937      66   53943   53937      66   53943
   53940      67   53952   53949      66   53955   53949      66   53955   53952
      67   53964   53961      66   53967   53961      66   53967   53964      67
   53976   53973      66   53979   53973      66   53979   53976      67   53988
   53985      66   53991   53985      66   53991   53988      67   54000   53997
      66   54003   53997      66   54003   54000      67   54012   54009      66
   54015   54009      66   54015   54012      67   54024   54021      66   54027
   54021      66   54027   54024      67   54036   54033      66   54039   54033
      66   54039   54036      67   54048   54045      66   54051   54045      66
   54051   54048      67   54060   54057      66   54063   54057      66   54063
   54060      67   54072   54069      66   54075   54069      66   54075   54072
      67   54084   54081      66   54087   54081      66   54087   54084      67
   54096   54093      66   54099   54093      66   54099   54096      67   54108
   54105      66   54111   54105      66   54111   54108      67   54120   54117
      66   54123   54117      66   54123   54120      67   54132   54129      66
   54135   54129      66   54135   54132      67   54144   54141      66   54147
   54141      66   54147   54144      67   54156   54153      66   54159   54153
      66   54159   54156      67   54168   54165      66   54171   54165      66
   54171   54168      67   54180   54177      66   54183   54177      66   54183
   54180      67   54192   54189      66   54195   54189      66   54195   54192
      67   54204   54201      66   54207   54201      66   54207   54204      67
   54216   54213      66   54219   54213      66   54219   54216      67   54228
   54225      66   54231   54225      66   54231   54228      67   54240   54237
      66   54243   54237      66   54243   54240      67   54252   54249      66
   54255   54249      66   54255   54252      67   54264   54261      66   54267
   54261      66   54267   54264      67   54276   54273      66   54279   54273
      66   54279   54276      67   54288   54285      66   54291   54285      66
   54291   54288      67   54300   54297      66   54303   54297      66   54303
   54300      67   54312   54309      66   54315   54309      66   54315   54312
      67   54324   54321      66   54327   54321      66   54327   54324      67
   54336   54333      66   54339   54333      66   54339   54336      67   54348
   54345      66   54351   54345      66   54351   54348      67   54360   54357
      66   54363   54357      66   54363   54360      67   54372   54369      66
   54375   54369      66   54375   54372      67   54384   54381      66   54387
   54381      66   54387   54384      67   54396   54393      66   54399   54393
      66   54399   54396      67   54408   54405      66   54411   54405      66
   54411   54408      67   54420   54417      66   54423   54417      66   54423
   54420      67   54432   54429      66   54435   54429      66   54435   54432
      67   54444   54441      66   54447   54441      66   54447   54444      67
   54456   54453      66   54459   54453      66   54459   54456      67   54468
   54465      66   54471   54465      66   54471   54468      67   54480   54477
      66   54483   54477      66   54483   54480      67   54492   54489      66
   54495   54489      66   54495   54492      67   54504   54501      66   54507
   54501      66   54507   54504      67   54516   54513      66   54519   54513
      66   54519   54516      67   54528   54525      66   54531   54525      66
   54531   54528      67   54540   54537      66   54543   54537      66   54543
   54540      67   54552   54549      66   54555   54549      66   54555   54552
      67   54564   54561      66   54567   54561      66   54567   54564      67
   54576   54573      66   54579   54573      66   54579   54576      67   54588
   54585      66   54591   54585      66   54591   54588      67   54600   54597
      66   54603   54597      66   54603   54600      67   54612   54609      66
   54615   54609      66   54615   54612      67   54624   54621      66   54627
   54621      66   54627   54624      67   54636   54633      66   54639   54633
      66   54639   54636      67   54648   54645      66   54651   54645      66
   54651   54648      67   54660   54657      66   54663   54657      66   54663
   54660      67   54672   54669      66   54675   54669      66   54675   54672
      67   54684   54681      66   54687   54681      66   54687   54684      67
   54696   54693      66   54699   54693      66   54699   54696      67   54708
   54705      66   54711   54705      66   54711   54708      67   54720   54717
      66   54723   54717      66   54723   54720      67   54732   54729      66
   54735   54729      66   54735   54732      67   54744   54741      66   54747
   54741      66   54747   54744      67   54756   54753      66   54759   54753
      66   54759   54756      67   54768   54765      66   54771   54765      66
   54771   54768      67   54780   54777      66   54783   54777      66   54783
   54780      67   54792   54789      66   54795   54789      66   54795   54792
      67   54804   54801      66   54807   54801      66   54807   54804      67
   54816   54813      66   54819   54813      66   54819   54816      67   54828
   54825      66   54831   54825      66   54831   54828      67   54840   54837
      66   54843   54837      66   54843   54840      67   54852   54849      66
   54855   54849      66   54855   54852      67   54864   54861      66   54867
   54861      66   54867   54864      67   54876   54873      66   54879   54873
      66   54879   54876      67   54888   54885      66   54891   54885      66
   54891   54888      67   54900   54897      66   54903   54897      66   54903
   54900      67   54912   54909      66   54915   54909      66   54915   54912
      67   54924   54921      66   54927   54921      66   54927   54924      67
   54936   54933      66   54939   54933      66   54939   54936      67   54948
   54945      66   54951   54945      66   54951   54948      67   54960   54957
      66   54963   54957      66   54963   54960      67   54972   54969      66
   54975   54969      66   54975   54972      67   54984   54981      66   54987
   54981      66   54987   54984      67   54996   54993      66   54999   54993
      66   54999   54996      67   55008   55005      66   55011   55005      66
   55011   55008      67   55020   55017      66   55023   55017      66   55023
   55020      67   55032   55029      66   55035   55029      66   55035   55032
      67   55044   55041      66   55047   55041      66   55047   55044      67
   55056   55053      66   55059   55053      66   55059   55056      67   55068
   55065      66   55071   55065      66   55071   55068      67   55080   55077
      66   55083   55077      66   55083   55080      67   55092   55089      66
   55095   55089      66   55095   55092      67   55104   55101      66   55107
   55101      66   55107   55104      67   55116   55113      66   55119   55113
      66   55119   55116      67   55128   55125      66   55131   55125      66
   55131   55128      67   55140   55137      66   55143   55137      66   55143
   55140      67   55152   55149      66   55155   55149      66   55155   55152
      67   55164   55161      66   55167   55161      66   55167   55164      67
   55176   55173      66   55179   55173      66   55179   55176      67   55188
   55185      66   55191   55185      66   55191   55188      67   55200   55197
      66   55203   55197      66   55203   55200      67   55212   55209      66
   55215   55209      66   55215   55212      67   55224   55221      66   55227
   55221      66   55227   55224      67   55236   55233      66   55239   55233
      66   55239   55236      67   55248   55245      66   55251   55245      66
   55251   55248      67   55260   55257      66   55263   55257      66   55263
   55260      67   55272   55269      66   55275   55269      66   55275   55272
      67   55284   55281      66   55287   55281      66   55287   55284      67
   55296   55293      66   55299   55293      66   55299   55296      67   55308
   55305      66   55311   55305      66   55311   55308      67   55320   55317
      66   55323   55317      66   55323   55320      67   55332   55329      66
   55335   55329      66   55335   55332      67   55344   55341      66   55347
   55341      66   55347   55344      67   55356   55353      66   55359   55353
      66   55359   55356      67   55368   55365      66   55371   55365      66
   55371   55368      67   55380   55377      66   55383   55377      66   55383
   55380      67   55392   55389      66   55395   55389      66   55395   55392
      67   55404   55401      66   55407   55401      66   55407   55404      67
   55416   55413      66   55419   55413      66   55419   55416      67   55428
   55425      66   55431   55425      66   55431   55428      67   55440   55437
      66   55443   55437      66   55443   55440      67   55452   55449      66
   55455   55449      66   55455   55452      67   55464   55461      66   55467
   55461      66   55467   55464      67   55476   55473      66   55479   55473
      66   55479   55476      67   55488   55485      66   55491   55485      66
   55491   55488      67   55500   55497      66   55503   55497      66   55503
   55500      67   55512   55509      66   55515   55509      66   55515   55512
      67   55524   55521      66   55527   55521      66   55527   55524      67
   55536   55533      66   55539   55533      66   55539   55536      67   55548
   55545      66   55551   55545      66   55551   55548      67   55560   55557
      66   55563   55557      66   55563   55560      67   55572   55569      66
   55575   55569      66   55575   55572      67   55584   55581      66   55587
   55581      66   55587   55584      67   55596   55593      66   55599   55593
      66   55599   55596      67   55608   55605      66   55611   55605      66
   55611   55608      67   55620   55617      66   55623   55617      66   55623
   55620      67   55632   55629      66   55635   55629      66   55635   55632
      67   55644   55641      66   55647   55641      66   55647   55644      67
   55656   55653      66   55659   55653      66   55659   55656      67   55668
   55665      66   55671   55665      66   55671   55668      67   55680   55677
      66   55683   55677      66   55683   55680      67   55692   55689      66
   55695   55689      66   55695   55692      67   55704   55701      66   55707
   55701      66   55707   55704      67   55716   55713      66   55719   55713
      66   55719   55716      67   55728   55725      66   55731   55725      66
   55731   55728      67   55740   55737      66   55743   55737      66   55743
   55740      67   55752   55749      66   55755   55749      66   55755   55752
      67   55764   55761      66   55767   55761      66   55767   55764      67
   55776   55773      66   55779   55773      66   55779   55776      67   55788
   55785      66   55791   55785      66   55791   55788      67   55800   55797
      66   55803   55797      66   55803   55800      67   55812   55809      66
   55815   55809      66   55815   55812      67   55824   55821      66   55827
   55821      66   55827   55824      67   55836   55833      66   55839   55833
      66   55839   55836      67   55848   55845      66   55851   55845      66
   55851   55848      67   55860   55857      66   55863   55857      66   55863
   55860      67   55872   55869      66   55875   55869      66   55875   55872
      67   55884   55881      66   55887   55881      66   55887   55884      67
   55896   55893      66   55899   55893      66   55899   55896      67   55908
   55905      66   55911   55905      66   55911   55908      67   55920   55917
      66   55923   55917      66   55923   55920      67   55932   55929      66
   55935   55929      66   55935   55932      67   55944   55941      66   55947
   55941      66   55947   55944      67   55956   55953      66   55959   55953
      66   55959   55956      67   55968   55965      66   55971   55965      66
   55971   55968      67   55980   55977      66   55983   55977      66   55983
   55980      67   55992   55989      66   55995   55989      66   55995   55992
      67   56004   56001      66   56007   56001      66   56007   56004      67
   56016   56013      66   56019   56013      66   56019   56016      67   56028
   56025      66   56031   56025      66   56031   56028      67   56040   56037
      66   56043   56037      66   56043   56040      67   56052   56049      66
   56055   56049      66   56055   56052      67   56064   56061      66   56067
   56061      66   56067   56064      67   56076   56073      66   56079   56073
      66   56079   56076      67   56088   56085      66   56091   56085      66
   56091   56088      67   56100   56097      66   56103   56097      66   56103
   56100      67   56112   56109      66   56115   56109      66   56115   56112
      67   56124   56121      66   56127   56121      66   56127   56124      67
   56136   56133      66   56139   56133      66   56139   56136      67   56148
   56145      66   56151   56145      66   56151   56148      67   56160   56157
      66   56163   56157      66   56163   56160      67   56172   56169      66
   56175   56169      66   56175   56172      67   56184   56181      66   56187
   56181      66   56187   56184      67   56196   56193      66   56199   56193
      66   56199   56196      67   56208   56205      66   56211   56205      66
   56211   56208      67   56220   56217      66   56223   56217      66   56223
   56220      67   56232   56229      66   56235   56229      66   56235   56232
      67   56244   56241      66   56247   56241      66   56247   56244      67
   56256   56253      66   56259   56253      66   56259   56256      67   56268
   56265      66   56271   56265      66   56271   56268      67   56280   56277
      66   56283   56277      66   56283   56280      67   56292   56289      66
   56295   56289      66   56295   56292      67   56304   56301      66   56307
   56301      66   56307   56304      67   56316   56313      66   56319   56313
      66   56319   56316      67   56328   56325      66   56331   56325      66
   56331   56328      67   56340   56337      66   56343   56337      66   56343
   56340      67   56352   56349      66   56355   56349      66   56355   56352
      67   56364   56361      66   56367   56361      66   56367   56364      67
   56376   56373      66   56379   56373      66   56379   56376      67   56388
   56385      66   56391   56385      66   56391   56388      67   56400   56397
      66   56403   56397      66   56403   56400      67   56412   56409      66
   56415   56409      66   56415   56412      67   56424   56421      66   56427
   56421      66   56427   56424      67   56436   56433      66   56439   56433
      66   56439   56436      67   56448   56445      66   56451   56445      66
   56451   56448      67   56460   56457      66   56463   56457      66   56463
   56460      67   56472   56469      66   56475   56469      66   56475   56472
      67   56484   56481      66   56487   56481      66   56487   56484      67
   56496   56493      66   56499   56493      66   56499   56496      67   56508
   56505      66   56511   56505      66   56511   56508      67   56520   56517
      66   56523   56517      66   56523   56520      67   56532   56529      66
   56535   56529      66   56535   56532      67   56544   56541      66   56547
   56541      66   56547   56544      67   56556   56553      66   56559   56553
      66   56559   56556      67   56568   56565      66   56571   56565      66
   56571   56568      67   56580   56577      66   56583   56577      66   56583
   56580      67   56592   56589      66   56595   56589      66   56595   56592
      67   56604   56601      66   56607   56601      66   56607   56604      67
   56616   56613      66   56619   56613      66   56619   56616      67   56628
   56625      66   56631   56625      66   56631   56628      67   56640   56637
      66   56643   56637      66   56643   56640      67   56652   56649      66
   56655   56649      66   56655   56652      67   56664   56661      66   56667
   56661      66   56667   56664      67   56676   56673      66   56679   56673
      66   56679   56676      67   56688   56685      66   56691   56685      66
   56691   56688      67   56700   56697      66   56703   56697      66   56703
   56700      67   56712   56709      66   56715   56709      66   56715   56712
      67   56724   56721      66   56727   56721      66   56727   56724      67
   56736   56733      66   56739   56733      66   56739   56736      67   56748
   56745      66   56751   56745      66   56751   56748      67   56760   56757
      66   56763   56757      66   56763   56760      67   56772   56769      66
   56775   56769      66   56775   56772      67   56784   56781      66   56787
   56781      66   56787   56784      67   56796   56793      66   56799   56793
      66   56799   56796      67   56808   56805      66   56811   56805      66
   56811   56808      67   56820   56817      66   56823   56817      66   56823
   56820      67   56832   56829      66   56835   56829      66   56835   56832
      67   56844   56841      66   56847   56841      66   56847   56844      67
   56856   56853      66   56859   56853      66   56859   56856      67   56868
   56865      66   56871   56865      66   56871   56868      67   56880   56877
      66   56883   56877      66   56883   56880      67   56892   56889      66
   56895   56889      66   56895   56892      67   56904   56901      66   56907
   56901      66   56907   56904      67   56916   56913      66   56919   56913
      66   56919   56916      67   56928   56925      66   56931   56925      66
   56931   56928      67   56940   56937      66   56943   56937      66   56943
   56940      67   56952   56949      66   56955   56949      66   56955   56952
      67   56964   56961      66   56967   56961      66   56967   56964      67
   56976   56973      66   56979   56973      66   56979   56976      67   56988
   56985      66   56991   56985      66   56991   56988      67   57000   56997
      66   57003   56997      66   57003   57000      67   57012   57009      66
   57015   57009      66   57015   57012      67   57024   57021      66   57027
   57021      66   57027   57024      67   57036   57033      66   57039   57033
      66   57039   57036      67   57048   57045      66   57051   57045      66
   57051   57048      67   57060   57057      66   57063   57057      66   57063
   57060      67   57072   57069      66   57075   57069      66   57075   57072
      67   57084   57081      66   57087   57081      66   57087   57084      67
   57096   57093      66   57099   57093      66   57099   57096      67   57108
   57105      66   57111   57105      66   57111   57108      67   57120   57117
      66   57123   57117      66   57123   57120      67   57132   57129      66
   57135   57129      66   57135   57132      67   57144   57141      66   57147
   57141      66   57147   57144      67   57156   57153      66   57159   57153
      66   57159   57156      67   57168   57165      66   57171   57165      66
   57171   57168      67   57180   57177      66   57183   57177      66   57183
   57180      67   57192   57189      66   57195   57189      66   57195   57192
      67   57204   57201      66   57207   57201      66   57207   57204      67
   57216   57213      66   57219   57213      66   57219   57216      67   57228
   57225      66   57231   57225      66   57231   57228      67   57240   57237
      66   57243   57237      66   57243   57240      67   57252   57249      66
   57255   57249      66   57255   57252      67   57264   57261      66   57267
   57261      66   57267   57264      67   57276   57273      66   57279   57273
      66   57279   57276      67   57288   57285      66   57291   57285      66
   57291   57288      67   57300   57297      66   57303   57297      66   57303
   57300      67   57312   57309      66   57315   57309      66   57315   57312
      67   57324   57321      66   57327   57321      66   57327   57324      67
   57336   57333      66   57339   57333      66   57339   57336      67   57348
   57345      66   57351   57345      66   57351   57348      67   57360   57357
      66   57363   57357      66   57363   57360      67   57372   57369      66
   57375   57369      66   57375   57372      67   57384   57381      66   57387
   57381      66   57387   57384      67   57396   57393      66   57399   57393
      66   57399   57396      67   57408   57405      66   57411   57405      66
   57411   57408      67   57420   57417      66   57423   57417      66   57423
   57420      67   57432   57429      66   57435   57429      66   57435   57432
      67   57444   57441      66   57447   57441      66   57447   57444      67
   57456   57453      66   57459   57453      66   57459   57456      67   57468
   57465      66   57471   57465      66   57471   57468      67   57480   57477
      66   57483   57477      66   57483   57480      67   57492   57489      66
   57495   57489      66   57495   57492      67   57504   57501      66   57507
   57501      66   57507   57504      67   57516   57513      66   57519   57513
      66   57519   57516      67   57528   57525      66   57531   57525      66
   57531   57528      67   57540   57537      66   57543   57537      66   57543
   57540      67   57552   57549      66   57555   57549      66   57555   57552
      67   57564   57561      66   57567   57561      66   57567   57564      67
   57576   57573      66   57579   57573      66   57579   57576      67   57588
   57585      66   57591   57585      66   57591   57588      67   57600   57597
      66   57603   57597      66   57603   57600      67   57612   57609      66
   57615   57609      66   57615   57612      67   57624   57621      66   57627
   57621      66   57627   57624      67   57636   57633      66   57639   57633
      66   57639   57636      67   57648   57645      66   57651   57645      66
   57651   57648      67   57660   57657      66   57663   57657      66   57663
   57660      67   57672   57669      66   57675   57669      66   57675   57672
      67   57684   57681      66   57687   57681      66   57687   57684      67
   57696   57693      66   57699   57693      66   57699   57696      67   57708
   57705      66   57711   57705      66   57711   57708      67   57720   57717
      66   57723   57717      66   57723   57720      67   57732   57729      66
   57735   57729      66   57735   57732      67   57744   57741      66   57747
   57741      66   57747   57744      67   57756   57753      66   57759   57753
      66   57759   57756      67   57768   57765      66   57771   57765      66
   57771   57768      67   57780   57777      66   57783   57777      66   57783
   57780      67   57792   57789      66   57795   57789      66   57795   57792
      67   57804   57801      66   57807   57801      66   57807   57804      67
   57816   57813      66   57819   57813      66   57819   57816      67   57828
   57825      66   57831   57825      66   57831   57828      67   57840   57837
      66   57843   57837      66   57843   57840      67   57852   57849      66
   57855   57849      66   57855   57852      67   57864   57861      66   57867
   57861      66   57867   57864      67   57876   57873      66   57879   57873
      66   57879   57876      67   57888   57885      66   57891   57885      66
   57891   57888      67   57900   57897      66   57903   57897      66   57903
   57900      67   57912   57909      66   57915   57909      66   57915   57912
      67   57924   57921      66   57927   57921      66   57927   57924      67
   57936   57933      66   57939   57933      66   57939   57936      67   57948
   57945      66   57951   57945      66   57951   57948      67   57960   57957
      66   57963   57957      66   57963   57960      67   57972   57969      66
   57975   57969      66   57975   57972      67   57984   57981      66   57987
   57981      66   57987   57984      67   57996   57993      66   57999   57993
      66   57999   57996      67   58008   58005      66   58011   58005      66
   58011   58008      67   58020   58017      66   58023   58017      66   58023
   58020      67   58032   58029      66   58035   58029      66   58035   58032
      67   58044   58041      66   58047   58041      66   58047   58044      67
   58056   58053      66   58059   58053      66   58059   58056      67   58068
   58065      66   58071   58065      66   58071   58068      67   58080   58077
      66   58083   58077      66   58083   58080      67   58092   58089      66
   58095   58089      66   58095   58092      67   58104   58101      66   58107
   58101      66   58107   58104      67   58116   58113      66   58119   58113
      66   58119   58116      67   58128   58125      66   58131   58125      66
   58131   58128      67   58140   58137      66   58143   58137      66   58143
   58140      67   58152   58149      66   58155   58149      66   58155   58152
      67   58164   58161      66   58167   58161      66   58167   58164      67
   58176   58173      66   58179   58173      66   58179   58176      67   58188
   58185      66   58191   58185      66   58191   58188      67   58200   58197
      66   58203   58197      66   58203   58200      67   58212   58209      66
   58215   58209      66   58215   58212      67   58224   58221      66   58227
   58221      66   58227   58224      67   58236   58233      66   58239   58233
      66   58239   58236      67   58248   58245      66   58251   58245      66
   58251   58248      67   58260   58257      66   58263   58257      66   58263
   58260      67   58272   58269      66   58275   58269      66   58275   58272
      67   58284   58281      66   58287   58281      66   58287   58284      67
   58296   58293      66   58299   58293      66   58299   58296      67   58308
   58305      66   58311   58305      66   58311   58308      67   58320   58317
      66   58323   58317      66   58323   58320      67   58332   58329      66
   58335   58329      66   58335   58332      67   58344   58341      66   58347
   58341      66   58347   58344      67   58356   58353      66   58359   58353
      66   58359   58356      67   58368   58365      66   58371   58365      66
   58371   58368      67   58380   58377      66   58383   58377      66   58383
   58380      67   58392   58389      66   58395   58389      66   58395   58392
      67   58404   58401      66   58407   58401      66   58407   58404      67
   58416   58413      66   58419   58413      66   58419   58416      67   58428
   58425      66   58431   58425      66   58431   58428      67   58440   58437
      66   58443   58437      66   58443   58440      67   58452   58449      66
   58455   58449      66   58455   58452      67   58464   58461      66   58467
   58461      66   58467   58464      67   58476   58473      66   58479   58473
      66   58479   58476      67   58488   58485      66   58491   58485      66
   58491   58488      67   58500   58497      66   58503   58497      66   58503
   58500      67   58512   58509      66   58515   58509      66   58515   58512
      67   58524   58521      66   58527   58521      66   58527   58524      67
   58536   58533      66   58539   58533      66   58539   58536      67   58548
   58545      66   58551   58545      66   58551   58548      67   58560   58557
      66   58563   58557      66   58563   58560      67   58572   58569      66
   58575   58569      66   58575   58572      67   58584   58581      66   58587
   58581      66   58587   58584      67   58596   58593      66   58599   58593
      66   58599   58596      67   58608   58605      66   58611   58605      66
   58611   58608      67   58620   58617      66   58623   58617      66   58623
   58620      67   58632   58629      66   58635   58629      66   58635   58632
      67   58644   58641      66   58647   58641      66   58647   58644      67
   58656   58653      66   58659   58653      66   58659   58656      67   58668
   58665      66   58671   58665      66   58671   58668      67   58680   58677
      66   58683   58677      66   58683   58680      67   58692   58689      66
   58695   58689      66   58695   58692      67   58704   58701      66   58707
   58701      66   58707   58704      67   58716   58713      66   58719   58713
      66   58719   58716      67   58728   58725      66   58731   58725      66
   58731   58728      67   58740   58737      66   58743   58737      66   58743
   58740      67   58752   58749      66   58755   58749      66   58755   58752
      67   58764   58761      66   58767   58761      66   58767   58764      67
   58776   58773      66   58779   58773      66   58779   58776      67   58788
   58785      66   58791   58785      66   58791   58788      67   58800   58797
      66   58803   58797      66   58803   58800      67   58812   58809      66
   58815   58809      66   58815   58812      67   58824   58821      66   58827
   58821      66   58827   58824      67   58836   58833      66   58839   58833
      66   58839   58836      67   58848   58845      66   58851   58845      66
   58851   58848      67   58860   58857      66   58863   58857      66   58863
   58860      67   58872   58869      66   58875   58869      66   58875   58872
      67   58884   58881      66   58887   58881      66   58887   58884      67
   58896   58893      66   58899   58893      66   58899   58896      67   58908
   58905      66   58911   58905      66   58911   58908      67   58920   58917
      66   58923   58917      66   58923   58920      67   58932   58929      66
   58935   58929      66   58935   58932      67   58944   58941      66   58947
   58941      66   58947   58944      67   58956   58953      66   58959   58953
      66   58959   58956      67   58968   58965      66   58971   58965      66
   58971   58968      67   58980   58977      66   58983   58977      66   58983
   58980      67   58992   58989      66   58995   58989      66   58995   58992
      67   59004   59001      66   59007   59001      66   59007   59004      67
   59016   59013      66   59019   59013      66   59019   59016      67   59028
   59025      66   59031   59025      66   59031   59028      67   59040   59037
      66   59043   59037      66   59043   59040      67   59052   59049      66
   59055   59049      66   59055   59052      67   59064   59061      66   59067
   59061      66   59067   59064      67   59076   59073      66   59079   59073
      66   59079   59076      67   59088   59085      66   59091   59085      66
   59091   59088      67   59100   59097      66   59103   59097      66   59103
   59100      67   59112   59109      66   59115   59109      66   59115   59112
      67   59124   59121      66   59127   59121      66   59127   59124      67
   59136   59133      66   59139   59133      66   59139   59136      67   59148
   59145      66   59151   59145      66   59151   59148      67   59160   59157
      66   59163   59157      66   59163   59160      67   59172   59169      66
   59175   59169      66   59175   59172      67   59184   59181      66   59187
   59181      66   59187   59184      67   59196   59193      66   59199   59193
      66   59199   59196      67   59208   59205      66   59211   59205      66
   59211   59208      67   59220   59217      66   59223   59217      66   59223
   59220      67   59232   59229      66   59235   59229      66   59235   59232
      67   59244   59241      66   59247   59241      66   59247   59244      67
   59256   59253      66   59259   59253      66   59259   59256      67   59268
   59265      66   59271   59265      66   59271   59268      67   59280   59277
      66   59283   59277      66   59283   59280      67   59292   59289      66
   59295   59289      66   59295   59292      67   59304   59301      66   59307
   59301      66   59307   59304      67   59316   59313      66   59319   59313
      66   59319   59316      67   59328   59325      66   59331   59325      66
   59331   59328      67   59340   59337      66   59343   59337      66   59343
   59340      67   59352   59349      66   59355   59349      66   59355   59352
      67   59364   59361      66   59367   59361      66   59367   59364      67
   59376   59373      66   59379   59373      66   59379   59376      67   59388
   59385      66   59391   59385      66   59391   59388      67   59400   59397
      66   59403   59397      66   59403   59400      67   59412   59409      66
   59415   59409      66   59415   59412      67   59424   59421      66   59427
   59421      66   59427   59424      67   59436   59433      66   59439   59433
      66   59439   59436      67   59448   59445      66   59451   59445      66
   59451   59448      67   59460   59457      66   59463   59457      66   59463
   59460      67   59472   59469      66   59475   59469      66   59475   59472
      67   59484   59481      66   59487   59481      66   59487   59484      67
   59496   59493      66   59499   59493      66   59499   59496      67   59508
   59505      66   59511   59505      66   59511   59508      67   59520   59517
      66   59523   59517      66   59523   59520      67   59532   59529      66
   59535   59529      66   59535   59532      67   59544   59541      66   59547
   59541      66   59547   59544      67   59556   59553      66   59559   59553
      66   59559   59556      67   59568   59565      66   59571   59565      66
   59571   59568      67   59580   59577      66   59583   59577      66   59583
   59580      67   59592   59589      66   59595   59589      66   59595   59592
      67   59604   59601      66   59607   59601      66   59607   59604      67
   59616   59613      66   59619   59613      66   59619   59616      67   59628
   59625      66   59631   59625      66   59631   59628      67   59640   59637
      66   59643   59637      66   59643   59640      67   59652   59649      66
   59655   59649      66   59655   59652      67   59664   59661      66   59667
   59661      66   59667   59664      67   59676   59673      66   59679   59673
      66   59679   59676      67   59688   59685      66   59691   59685      66
   59691   59688      67   59700   59697      66   59703   59697      66   59703
   59700      67   59712   59709      66   59715   59709      66   59715   59712
      67   59724   59721      66   59727   59721      66   59727   59724      67
   59736   59733      66   59739   59733      66   59739   59736      67   59748
   59745      66   59751   59745      66   59751   59748      67   59760   59757
      66   59763   59757      66   59763   59760      67   59772   59769      66
   59775   59769      66   59775   59772      67   59784   59781      66   59787
   59781      66   59787   59784      67   59796   59793      66   59799   59793
      66   59799   59796      67   59808   59805      66   59811   59805      66
   59811   59808      67   59820   59817      66   59823   59817      66   59823
   59820      67   59832   59829      66   59835   59829      66   59835   59832
      67   59844   59841      66   59847   59841      66   59847   59844      67
   59856   59853      66   59859   59853      66   59859   59856      67   59868
   59865      66   59871   59865      66   59871   59868      67   59880   59877
      66   59883   59877      66   59883   59880      67   59892   59889      66
   59895   59889      66   59895   59892      67   59904   59901      66   59907
   59901      66   59907   59904      67   59916   59913      66   59919   59913
      66   59919   59916      67   59928   59925      66   59931   59925      66
   59931   59928      67   59940   59937      66   59943   59937      66   59943
   59940      67   59952   59949      66   59955   59949      66   59955   59952
      67   59964   59961      66   59967   59961      66   59967   59964      67
   59976   59973      66   59979   59973      66   59979   59976      67   59988
   59985      66   59991   59985      66   59991   59988      67   60000   59997
      66   60003   59997      66   60003   60000      67   60012   60009      66
   60015   60009      66   60015   60012      67   60024   60021      66   60027
   60021      66   60027   60024      67   60036   60033      66   60039   60033
      66   60039   60036      67   60048   60045      66   60051   60045      66
   60051   60048      67   60060   60057      66   60063   60057      66   60063
   60060      67   60072   60069      66   60075   60069      66   60075   60072
      67   60084   60081      66   60087   60081      66   60087   60084      67
   60096   60093      66   60099   60093      66   60099   60096      67   60108
   60105      66   60111   60105      66   60111   60108      67   60120   60117
      66   60123   60117      66   60123   60120      67   60132   60129      66
   60135   60129      66   60135   60132      67   60144   60141      66   60147
   60141      66   60147   60144      67   60156   60153      66   60159   60153
      66   60159   60156      67   60168   60165      66   60171   60165      66
   60171   60168      67   60180   60177      66   60183   60177      66   60183
   60180      67   60192   60189      66   60195   60189      66   60195   60192
      67   60204   60201      66   60207   60201      66   60207   60204      67
   60216   60213      66   60219   60213      66   60219   60216      67   60228
   60225      66   60231   60225      66   60231   60228      67   60240   60237
      66   60243   60237      66   60243   60240      67   60252   60249      66
   60255   60249      66   60255   60252      67   60264   60261      66   60267
   60261      66   60267   60264      67   60276   60273      66   60279   60273
      66   60279   60276      67   60288   60285      66   60291   60285      66
   60291   60288      67   60300   60297      66   60303   60297      66   60303
   60300      67   60312   60309      66   60315   60309      66   60315   60312
      67   60324   60321      66   60327   60321      66   60327   60324      67
   60336   60333      66   60339   60333      66   60339   60336      67   60348
   60345      66   60351   60345      66   60351   60348      67   60360   60357
      66   60363   60357      66   60363   60360      67   60372   60369      66
   60375   60369      66   60375   60372      67   60384   60381      66   60387
   60381      66   60387   60384      67   60396   60393      66   60399   60393
      66   60399   60396      67   60408   60405      66   60411   60405      66
   60411   60408      67   60420   60417      66   60423   60417      66   60423
   60420      67   60432   60429      66   60435   60429      66   60435   60432
      67   60444   60441      66   60447   60441      66   60447   60444      67
   60456   60453      66   60459   60453      66   60459   60456      67   60468
   60465      66   60471   60465      66   60471   60468      67   60480   60477
      66   60483   60477      66   60483   60480      67   60492   60489      66
   60495   60489      66   60495   60492      67   60504   60501      66   60507
   60501      66   60507   60504      67   60516   60513      66   60519   60513
      66   60519   60516      67   60528   60525      66   60531   60525      66
   60531   60528      67   60540   60537      66   60543   60537      66   60543
   60540      67   60552   60549      66   60555   60549      66   60555   60552
      67   60564   60561      66   60567   60561      66   60567   60564      67
   60576   60573      66   60579   60573      66   60579   60576      67   60588
   60585      66   60591   60585      66   60591   60588      67   60600   60597
      66   60603   60597      66   60603   60600      67   60612   60609      66
   60615   60609      66   60615   60612      67   60624   60621      66   60627
   60621      66   60627   60624      67   60636   60633      66   60639   60633
      66   60639   60636      67   60648   60645      66   60651   60645      66
   60651   60648      67   60660   60657      66   60663   60657      66   60663
   60660      67   60672   60669      66   60675   60669      66   60675   60672
      67   60684   60681      66   60687   60681      66   60687   60684      67
   60696   60693      66   60699   60693      66   60699   60696      67   60708
   60705      66   60711   60705      66   60711   60708      67   60720   60717
      66   60723   60717      66   60723   60720      67   60732   60729      66
   60735   60729      66   60735   60732      67   60744   60741      66   60747
   60741      66   60747   60744      67   60756   60753      66   60759   60753
      66   60759   60756      67   60768   60765      66   60771   60765      66
   60771   60768      67   60780   60777      66   60783   60777      66   60783
   60780      67   60792   60789      66   60795   60789      66   60795   60792
      67   60804   60801      66   60807   60801      66   60807   60804      67
   60816   60813      66   60819   60813      66   60819   60816      67   60828
   60825      66   60831   60825      66   60831   60828      67   60840   60837
      66   60843   60837      66   60843   60840      67   60852   60849      66
   60855   60849      66   60855   60852      67   60864   60861      66   60867
   60861      66   60867   60864      67   60876   60873      66   60879   60873
      66   60879   60876      67   60888   60885      66   60891   60885      66
   60891   60888      67   60900   60897      66   60903   60897      66   60903
   60900      67   60912   60909      66   60915   60909      66   60915   60912
      67   60924   60921      66   60927   60921      66   60927   60924      67
   60936   60933      66   60939   60933      66   60939   60936      67   60948
   60945      66   60951   60945      66   60951   60948      67   60960   60957
      66   60963   60957      66   60963   60960      67   60972   60969      66
   60975   60969      66   60975   60972      67   60984   60981      66   60987
   60981      66   60987   60984      67   60996   60993      66   60999   60993
      66   60999   60996      67   61008   61005      66   61011   61005      66
   61011   61008      67   61020   61017      66   61023   61017      66   61023
   61020      67   61032   61029      66   61035   61029      66   61035   61032
      67   61044   61041      66   61047   61041      66   61047   61044      67
   61056   61053      66   61059   61053      66   61059   61056      67   61068
   61065      66   61071   61065      66   61071   61068      67   61080   61077
      66   61083   61077      66   61083   61080      67   61092   61089      66
   61095   61089      66   61095   61092      67   61104   61101      66   61107
   61101      66   61107   61104      67   61116   61113      66   61119   61113
      66   61119   61116      67   61128   61125      66   61131   61125      66
   61131   61128      67   61140   61137      66   61143   61137      66   61143
   61140      67   61152   61149      66   61155   61149      66   61155   61152
      67   61164   61161      66   61167   61161      66   61167   61164      67
   61176   61173      66   61179   61173      66   61179   61176      67   61188
   61185      66   61191   61185      66   61191   61188      67   61200   61197
      66   61203   61197      66   61203   61200      67   61212   61209      66
   61215   61209      66   61215   61212      67   61224   61221      66   61227
   61221      66   61227   61224      67   61236   61233      66   61239   61233
      66   61239   61236      67   61248   61245      66   61251   61245      66
   61251   61248      67   61260   61257      66   61263   61257      66   61263
   61260      67   61272   61269      66   61275   61269      66   61275   61272
      67   61284   61281      66   61287   61281      66   61287   61284      67
   61296   61293      66   61299   61293      66   61299   61296      67   61308
   61305      66   61311   61305      66   61311   61308      67   61320   61317
      66   61323   61317      66   61323   61320      67   61332   61329      66
   61335   61329      66   61335   61332      67   61344   61341      66   61347
   61341      66   61347   61344      67   61356   61353      66   61359   61353
      66   61359   61356      67   61368   61365      66   61371   61365      66
   61371   61368      67   61380   61377      66   61383   61377      66   61383
   61380      67   61392   61389      66   61395   61389      66   61395   61392
      67   61404   61401      66   61407   61401      66   61407   61404      67
   61416   61413      66   61419   61413      66   61419   61416      67   61428
   61425      66   61431   61425      66   61431   61428      67   61440   61437
      66   61443   61437      66   61443   61440      67   61452   61449      66
   61455   61449      66   61455   61452      67   61464   61461      66   61467
   61461      66   61467   61464      67   61476   61473      66   61479   61473
      66   61479   61476      67   61488   61485      66   61491   61485      66
   61491   61488      67   61500   61497      66   61503   61497      66   61503
   61500      67   61512   61509      66   61515   61509      66   61515   61512
      67   61524   61521      66   61527   61521      66   61527   61524      67
   61536   61533      66   61539   61533      66   61539   61536      67   61548
   61545      66   61551   61545      66   61551   61548      67   61560   61557
      66   61563   61557      66   61563   61560      67   61572   61569      66
   61575   61569      66   61575   61572      67   61584   61581      66   61587
   61581      66   61587   61584      67   61596   61593      66   61599   61593
      66   61599   61596      67   61608   61605      66   61611   61605      66
   61611   61608      67   61620   61617      66   61623   61617      66   61623
   61620      67   61632   61629      66   61635   61629      66   61635   61632
      67   61644   61641      66   61647   61641      66   61647   61644      67
   61656   61653      66   61659   61653      66   61659   61656      67   61668
   61665      66   61671   61665      66   61671   61668      67   61680   61677
      66   61683   61677      66   61683   61680      67   61692   61689      66
   61695   61689      66   61695   61692      67   61704   61701      66   61707
   61701      66   61707   61704      67   61716   61713      66   61719   61713
      66   61719   61716      67   61728   61725      66   61731   61725      66
   61731   61728      67   61740   61737      66   61743   61737      66   61743
   61740      67   61752   61749      66   61755   61749      66   61755   61752
      67   61764   61761      66   61767   61761      66   61767   61764      67
   61776   61773      66   61779   61773      66   61779   61776      67   61788
   61785      66   61791   61785      66   61791   61788      67   61800   61797
      66   61803   61797      66   61803   61800      67   61812   61809      66
   61815   61809      66   61815   61812      67   61824   61821      66   61827
   61821      66   61827   61824      67   61836   61833      66   61839   61833
      66   61839   61836      67   61848   61845      66   61851   61845      66
   61851   61848      67   61860   61857      66   61863   61857      66   61863
   61860      67   61872   61869      66   61875   61869      66   61875   61872
      67   61884   61881      66   61887   61881      66   61887   61884      67
   61896   61893      66   61899   61893      66   61899   61896      67   61908
   61905      66   61911   61905      66   61911   61908      67   61920   61917
      66   61923   61917      66   61923   61920      67   61932   61929      66
   61935   61929      66   61935   61932      67   61944   61941      66   61947
   61941      66   61947   61944      67   61956   61953      66   61959   61953
      66   61959   61956      67   61968   61965      66   61971   61965      66
   61971   61968      67   61980   61977      66   61983   61977      66   61983
   61980      67   61992   61989      66   61995   61989      66   61995   61992
      67   62004   62001      66   62007   62001      66   62007   62004      67
   62016   62013      66   62019   62013      66   62019   62016      67   62028
   62025      66   62031   62025      66   62031   62028      67   62040   62037
      66   62043   62037      66   62043   62040      67   62052   62049      66
   62055   62049      66   62055   62052      67   62064   62061      66   62067
   62061      66   62067   62064      67   62076   62073      66   62079   62073
      66   62079   62076      67   62088   62085      66   62091   62085      66
   62091   62088      67   62100   62097      66   62103   62097      66   62103
   62100      67   62112   62109      66   62115   62109      66   62115   62112
      67   62124   62121      66   62127   62121      66   62127   62124      67
   62136   62133      66   62139   62133      66   62139   62136      67   62148
   62145      66   62151   62145      66   62151   62148      67   62160   62157
      66   62163   62157      66   62163   62160      67   62172   62169      66
   62175   62169      66   62175   62172      67   62184   62181      66   62187
   62181      66   62187   62184      67   62196   62193      66   62199   62193
      66   62199   62196      67   62208   62205      66   62211   62205      66
   62211   62208      67   62220   62217      66   62223   62217      66   62223
   62220      67   62232   62229      66   62235   62229      66   62235   62232
      67   62244   62241      66   62247   62241      66   62247   62244      67
   62256   62253      66   62259   62253      66   62259   62256      67   62268
   62265      66   62271   62265      66   62271   62268      67   62280   62277
      66   62283   62277      66   62283   62280      67   62292   62289      66
   62295   62289      66   62295   62292      67   62304   62301      66   62307
   62301      66   62307   62304      67   62316   62313      66   62319   62313
      66   62319   62316      67   62328   62325      66   62331   62325      66
   62331   62328      67   62340   62337      66   62343   62337      66   62343
   62340      67   62352   62349      66   62355   62349      66   62355   62352
      67   62364   62361      66   62367   62361      66   62367   62364      67
   62376   62373      66   62379   62373      66   62379   62376      67   62388
   62385      66   62391   62385      66   62391   62388      67   62400   62397
      66   62403   62397      66   62403   62400      67   62412   62409      66
   62415   62409      66   62415   62412      67   62424   62421      66   62427
   62421      66   62427   62424      67   62436   62433      66   62439   62433
      66   62439   62436      67   62448   62445      66   62451   62445      66
   62451   62448      67   62460   62457      66   62463   62457      66   62463
   62460      67   62472   62469      66   62475   62469      66   62475   62472
      67   62484   62481      66   62487   62481      66   62487   62484      67
   62496   62493      66   62499   62493      66   62499   62496      67   62508
   62505      66   62511   62505      66   62511   62508      67   62520   62517
      66   62523   62517      66   62523   62520      67   62532   62529      66
   62535   62529      66   62535   62532      67   62544   62541      66   62547
   62541      66   62547   62544      67   62556   62553      66   62559   62553
      66   62559   62556      67   62568   62565      66   62571   62565      66
   62571   62568      67   62580   62577      66   62583   62577      66   62583
   62580      67   62592   62589      66   62595   62589      66   62595   62592
      67   62604   62601      66   62607   62601      66   62607   62604      67
   62616   62613      66   62619   62613      66   62619   62616      67   62628
   62625      66   62631   62625      66   62631   62628      67   62640   62637
      66   62643   62637      66   62643   62640      67   62652   62649      66
   62655   62649      66   62655   62652      67   62664   62661      66   62667
   62661      66   62667   62664      67   62676   62673      66   62679   62673
      66   62679   62676      67   62688   62685      66   62691   62685      66
   62691   62688      67   62700   62697      66   62703   62697      66   62703
   62700      67   62712   62709      66   62715   62709      66   62715   62712
      67   62724   62721      66   62727   62721      66   62727   62724      67
   62736   62733      66   62739   62733      66   62739   62736      67   62748
   62745      66   62751   62745      66   62751   62748      67   62760   62757
      66   62763   62757      66   62763   62760      67   62772   62769      66
   62775   62769      66   62775   62772      67   62784   62781      66   62787
   62781      66   62787   62784      67   62796   62793      66   62799   62793
      66   62799   62796      67   62808   62805      66   62811   62805      66
   62811   62808      67   62820   62817      66   62823   62817      66   62823
   62820      67   62832   62829      66   62835   62829      66   62835   62832
      67   62844   62841      66   62847   62841      66   62847   62844      67
   62856   62853      66   62859   62853      66   62859   62856      67   62868
   62865      66   62871   62865      66   62871   62868      67   62880   62877
      66   62883   62877      66   62883   62880      67   62892   62889      66
   62895   62889      66   62895   62892      67   62904   62901      66   62907
   62901      66   62907   62904      67   62916   62913      66   62919   62913
      66   62919   62916      67   62928   62925      66   62931   62925      66
   62931   62928      67   62940   62937      66   62943   62937      66   62943
   62940      67   62952   62949      66   62955   62949      66   62955   62952
      67   62964   62961      66   62967   62961      66   62967   62964      67
   62976   62973      66   62979   62973      66   62979   62976      67   62988
   62985      66   62991   62985      66   62991   62988      67   63000   62997
      66   63003   62997      66   63003   63000      67   63012   63009      66
   63015   63009      66   63015   63012      67   63024   63021      66   63027
   63021      66   63027   63024      67   63036   63033      66   63039   63033
      66   63039   63036      67   63048   63045      66   63051   63045      66
   63051   63048      67   63060   63057      66   63063   63057      66   63063
   63060      67   63072   63069      66   63075   63069      66   63075   63072
      67   63084   63081      66   63087   63081      66   63087   63084      67
   63096   63093      66   63099   63093      66   63099   63096      67   63108
   63105      66   63111   63105      66   63111   63108      67   63120   63117
      66   63123   63117      66   63123   63120      67   63132   63129      66
   63135   63129      66   63135   63132      67   63144   63141      66   63147
   63141      66   63147   63144      67   63156   63153      66   63159   63153
      66   63159   63156      67   63168   63165      66   63171   63165      66
   63171   63168      67   63180   63177      66   63183   63177      66   63183
   63180      67   63192   63189      66   63195   63189      66   63195   63192
      67   63204   63201      66   63207   63201      66   63207   63204      67
   63216   63213      66   63219   63213      66   63219   63216      67   63228
   63225      66   63231   63225      66   63231   63228      67   63240   63237
      66   63243   63237      66   63243   63240      67   63252   63249      66
   63255   63249      66   63255   63252      67   63264   63261      66   63267
   63261      66   63267   63264      67   63276   63273      66   63279   63273
      66   63279   63276      67   63288   63285      66   63291   63285      66
   63291   63288      67   63300   63297      66   63303   63297      66   63303
   63300      67   63312   63309      66   63315   63309      66   63315   63312
      67   63324   63321      66   63327   63321      66   63327   63324      67
   63336   63333      66   63339   63333      66   63339   63336      67   63348
   63345      66   63351   63345      66   63351   63348      67   63360   63357
      66   63363   63357      66   63363   63360      67   63372   63369      66
   63375   63369      66   63375   63372      67   63384   63381      66   63387
   63381      66   63387   63384      67   63396   63393      66   63399   63393
      66   63399   63396      67   63408   63405      66   63411   63405      66
   63411   63408      67   63420   63417      66   63423   63417      66   63423
   63420      67   63432   63429      66   63435   63429      66   63435   63432
      67   63444   63441      66   63447   63441      66   63447   63444      67
   63456   63453      66   63459   63453      66   63459   63456      67   63468
   63465      66   63471   63465      66   63471   63468      67   63480   63477
      66   63483   63477      66   63483   63480      67   63492   63489      66
   63495   63489      66   63495   63492      67   63504   63501      66   63507
   63501      66   63507   63504      67   63516   63513      66   63519   63513
      66   63519   63516      67   63528   63525      66   63531   63525      66
   63531   63528      67   63540   63537      66   63543   63537      66   63543
   63540      67   63552   63549      66   63555   63549      66   63555   63552
      67   63564   63561      66   63567   63561      66   63567   63564      67
   63576   63573      66   63579   63573      66   63579   63576      67   63588
   63585      66   63591   63585      66   63591   63588      67   63600   63597
      66   63603   63597      66   63603   63600      67   63612   63609      66
   63615   63609      66   63615   63612      67   63624   63621      66   63627
   63621      66   63627   63624      67   63636   63633      66   63639   63633
      66   63639   63636      67   63648   63645      66   63651   63645      66
   63651   63648      67   63660   63657      66   63663   63657      66   63663
   63660      67   63672   63669      66   63675   63669      66   63675   63672
      67   63684   63681      66   63687   63681      66   63687   63684      67
   63696   63693      66   63699   63693      66   63699   63696      67   63708
   63705      66   63711   63705      66   63711   63708      67   63720   63717
      66   63723   63717      66   63723   63720      67   63732   63729      66
   63735   63729      66   63735   63732      67   63744   63741      66   63747
   63741      66   63747   63744      67   63756   63753      66   63759   63753
      66   63759   63756      67   63768   63765      66   63771   63765      66
   63771   63768      67   63780   63777      66   63783   63777      66   63783
   63780      67   63792   63789      66   63795   63789      66   63795   63792
      67   63804   63801      66   63807   63801      66   63807   63804      67
   63816   63813      66   63819   63813      66   63819   63816      67   63828
   63825      66   63831   63825      66   63831   63828      67   63840   63837
      66   63843   63837      66   63843   63840      67   63852   63849      66
   63855   63849      66   63855   63852      67   63864   63861      66   63867
   63861      66   63867   63864      67   63876   63873      66   63879   63873
      66   63879   63876      67   63888   63885      66   63891   63885      66
   63891   63888      67   63900   63897      66   63903   63897      66   63903
   63900      67   63912   63909      66   63915   63909      66   63915   63912
      67   63924   63921      66   63927   63921      66   63927   63924      67
   63936   63933      66   63939   63933      66   63939   63936      67   63948
   63945      66   63951   63945      66   63951   63948      67   63960   63957
      66   63963   63957      66   63963   63960      67   63972   63969      66
   63975   63969      66   63975   63972      67   63984   63981      66   63987
   63981      66   63987   63984      67   63996   63993      66   63999   63993
      66   63999   63996      67   64008   64005      66   64011   64005      66
   64011   64008      67   64020   64017      66   64023   64017      66   64023
   64020      67   64032   64029      66   64035   64029      66   64035   64032
      67   64044   64041      66   64047   64041      66   64047   64044      67
   64056   64053      66   64059   64053      66   64059   64056      67   64068
   64065      66   64071   64065      66   64071   64068      67   64080   64077
      66   64083   64077      66   64083   64080      67   64092   64089      66
   64095   64089      66   64095   64092      67   64104   64101      66   64107
   64101      66   64107   64104      67   64116   64113      66   64119   64113
      66   64119   64116      67   64128   64125      66   64131   64125      66
   64131   64128      67   64140   64137      66   64143   64137      66   64143
   64140      67   64152   64149      66   64155   64149      66   64155   64152
      67   64164   64161      66   64167   64161      66   64167   64164      67
   64176   64173      66   64179   64173      66   64179   64176      67   64188
   64185      66   64191   64185      66   64191   64188      67   64200   64197
      66   64203   64197      66   64203   64200      67   64212   64209      66
   64215   64209      66   64215   64212      67   64224   64221      66   64227
   64221      66   64227   64224      67   64236   64233      66   64239   64233
      66   64239   64236      67   64248   64245      66   64251   64245      66
   64251   64248      67   64260   64257      66   64263   64257      66   64263
   64260      67   64272   64269      66   64275   64269      66   64275   64272
      67   64284   64281      66   64287   64281      66   64287   64284      67
   64296   64293      66   64299   64293      66   64299   64296      67   64308
   64305      66   64311   64305      66   64311   64308      67   64320   64317
      66   64323   64317      66   64323   64320      67   64332   64329      66
   64335   64329      66   64335   64332      67   64344   64341      66   64347
   64341      66   64347   64344      67   64356   64353      66   64359   64353
      66   64359   64356      67   64368   64365      66   64371   64365      66
   64371   64368      67   64380   64377      66   64383   64377      66   64383
   64380      67   64392   64389      66   64395   64389      66   64395   64392
      67   64404   64401      66   64407   64401      66   64407   64404      67
   64416   64413      66   64419   64413      66   64419   64416      67   64428
   64425      66   64431   64425      66   64431   64428      67   64440   64437
      66   64443   64437      66   64443   64440      67   64452   64449      66
   64455   64449      66   64455   64452      67   64464   64461      66   64467
   64461      66   64467   64464      67   64476   64473      66   64479   64473
      66   64479   64476      67   64488   64485      66   64491   64485      66
   64491   64488      67   64500   64497      66   64503   64497      66   64503
   64500      67   64512   64509      66   64515   64509      66   64515   64512
      67   64524   64521      66   64527   64521      66   64527   64524      67
   64536   64533      66   64539   64533      66   64539   64536      67   64548
   64545      66   64551   64545      66   64551   64548      67   64560   64557
      66   64563   64557      66   64563   64560      67   64572   64569      66
   64575   64569      66   64575   64572      67   64584   64581      66   64587
   64581      66   64587   64584      67   64596   64593      66   64599   64593
      66   64599   64596      67   64608   64605      66   64611   64605      66
   64611   64608      67   64620   64617      66   64623   64617      66   64623
   64620      67   64632   64629      66   64635   64629      66   64635   64632
      67   64644   64641      66   64647   64641      66   64647   64644      67
   64656   64653      66   64659   64653      66   64659   64656      67   64668
   64665      66   64671   64665      66   64671   64668      67   64680   64677
      66   64683   64677      66   64683   64680      67   64692   64689      66
   64695   64689      66   64695   64692      67   64704   64701      66   64707
   64701      66   64707   64704      67   64716   64713      66   64719   64713
      66   64719   64716      67   64728   64725      66   64731   64725      66
   64731   64728      67   64740   64737      66   64743   64737      66   64743
   64740      67   64752   64749      66   64755   64749      66   64755   64752
      67   64764   64761      66   64767   64761      66   64767   64764      67
   64776   64773      66   64779   64773      66   64779   64776      67   64788
   64785      66   64791   64785      66   64791   64788      67   64800   64797
      66   64803   64797      66   64803   64800      67   64812   64809      66
   64815   64809      66   64815   64812      67   64824   64821      66   64827
   64821      66   64827   64824      67   64836   64833      66   64839   64833
      66   64839   64836      67   64848   64845      66   64851   64845      66
   64851   64848      67   64860   64857      66   64863   64857      66   64863
   64860      67   64872   64869      66   64875   64869      66   64875   64872
      67   64884   64881      66   64887   64881      66   64887   64884      67
   64896   64893      66   64899   64893      66   64899   64896      67   64908
   64905      66   64911   64905      66   64911   64908      67   64920   64917
      66   64923   64917      66   64923   64920      67   64932   64929      66
   64935   64929      66   64935   64932      67   64944   64941      66   64947
   64941      66   64947   64944      67   64956   64953      66   64959   64953
      66   64959   64956      67   64968   64965      66   64971   64965      66
   64971   64968      67   64980   64977      66   64983   64977      66   64983
   64980      67   64992   64989      66   64995   64989      66   64995   64992
      67   65004   65001      66   65007   65001      66   65007   65004      67
   65016   65013      66   65019   65013      66   65019   65016      67   65028
   65025      66   65031   65025      66   65031   65028      67   65040   65037
      66   65043   65037      66   65043   65040      67   65052   65049      66
   65055   65049      66   65055   65052      67   65064   65061      66   65067
   65061      66   65067   65064      67   65076   65073      66   65079   65073
      66   65079   65076      67   65088   65085      66   65091   65085      66
   65091   65088      67   65100   65097      66   65103   65097      66   65103
   65100      67   65112   65109      66   65115   65109      66   65115   65112
      67   65124   65121      66   65127   65121      66   65127   65124      67
   65136   65133      66   65139   65133      66   65139   65136      67   65148
   65145      66   65151   65145      66   65151   65148      67   65160   65157
      66   65163   65157      66   65163   65160      67   65172   65169      66
   65175   65169      66   65175   65172      67   65184   65181      66   65187
   65181      66   65187   65184      67   65196   65193      66   65199   65193
      66   65199   65196      67   65208   65205      66   65211   65205      66
   65211   65208      67   65220   65217      66   65223   65217      66   65223
   65220      67   65232   65229      66   65235   65229      66   65235   65232
      67   65244   65241      66   65247   65241      66   65247   65244      67
   65256   65253      66   65259   65253      66   65259   65256      67   65268
   65265      66   65271   65265      66   65271   65268      67   65280   65277
      66   65283   65277      66   65283   65280      67   65292   65289      66
   65295   65289      66   65295   65292      67   65304   65301      66   65307
   65301      66   65307   65304      67   65316   65313      66   65319   65313
      66   65319   65316      67   65328   65325      66   65331   65325      66
   65331   65328      67   65340   65337      66   65343   65337      66   65343
   65340      67   65352   65349      66   65355   65349      66   65355   65352
      67   65364   65361      66   65367   65361      66   65367   65364      67
   65376   65373      66   65379   65373      66   65379   65376      67   65388
   65385      66   65391   65385      66   65391   65388      67   65400   65397
      66   65403   65397      66   65403   65400      67   65412   65409      66
   65415   65409      66   65415   65412      67   65424   65421      66   65427
   65421      66   65427   65424      67   65436   65433      66   65439   65433
      66   65439   65436      67   65448   65445      66   65451   65445      66
   65451   65448      67   65460   65457      66   65463   65457      66   65463
   65460      67   65472   65469      66   65475   65469      66   65475   65472
      67   65484   65481      66   65487   65481      66   65487   65484      67
   65496   65493      66   65499   65493      66   65499   65496      67   65508
   65505      66   65511   65505      66   65511   65508      67   65520   65517
      66   65523   65517      66   65523   65520      67   65532   65529      66
   65535   65529      66   65535   65532      67   65544   65541      66   65547
   65541      66   65547   65544      67   65556   65553      66   65559   65553
      66   65559   65556      67   65568   65565      66   65571   65565      66
   65571   65568      67   65580   65577      66   65583   65577      66   65583
   65580      67   65592   65589      66   65595   65589      66   65595   65592
      67   65604   65601      66   65607   65601      66   65607   65604      67
   65616   65613      66   65619   65613      66   65619   65616      67   65628
   65625      66   65631   65625      66   65631   65628      67   65640   65637
      66   65643   65637      66   65643   65640      67   65652   65649      66
   65655   65649      66   65655   65652      67   65664   65661      66   65667
   65661      66   65667   65664      67   65676   65673      66   65679   65673
      66   65679   65676      67   65688   65685      66   65691   65685      66
   65691   65688      67   65700   65697      66   65703   65697      66   65703
   65700      67   65712   65709      66   65715   65709      66   65715   65712
      67   65724   65721      66   65727   65721      66   65727   65724      67
   65736   65733      66   65739   65733      66   65739   65736      67   65748
   65745      66   65751   65745      66   65751   65748      67   65760   65757
      66   65763   65757      66   65763   65760      67   65772   65769      66
   65775   65769      66   65775   65772      67   65784   65781      66   65787
   65781      66   65787   65784      67   65796   65793      66   65799   65793
      66   65799   65796      67   65808   65805      66   65811   65805      66
   65811   65808      67   65820   65817      66   65823   65817      66   65823
   65820      67   65832   65829      66   65835   65829      66   65835   65832
      67   65844   65841      66   65847   65841      66   65847   65844      67
   65856   65853      66   65859   65853      66   65859   65856      67   65868
   65865      66   65871   65865      66   65871   65868      67   65880   65877
      66   65883   65877      66   65883   65880      67   65892   65889      66
   65895   65889      66   65895   65892      67   65904   65901      66   65907
   65901      66   65907   65904      67   65916   65913      66   65919   65913
      66   65919   65916      67   65928   65925      66   65931   65925      66
   65931   65928      67   65940   65937      66   65943   65937      66   65943
   65940      67   65952   65949      66   65955   65949      66   65955   65952
      67   65964   65961      66   65967   65961      66   65967   65964      67
   65976   65973      66   65979   65973      66   65979   65976      67   65988
   65985      66   65991   65985      66   65991   65988      67   66000   65997
      66   66003   65997      66   66003   66000      67   66012   66009      66
   66015   66009      66   66015   66012      67   66024   66021      66   66027
   66021      66   66027   66024      67   66036   66033      66   66039   66033
      66   66039   66036      67   66048   66045      66   66051   66045      66
   66051   66048      67   66060   66057      66   66063   66057      66   66063
   66060      67   66072   66069      66   66075   66069      66   66075   66072
      67   66084   66081      66   66087   66081      66   66087   66084      67
   66096   66093      66   66099   66093      66   66099   66096      67   66108
   66105      66   66111   66105      66   66111   66108      67   66120   66117
      66   66123   66117      66   66123   66120      67   66132   66129      66
   66135   66129      66   66135   66132      67   66144   66141      66   66147
   66141      66   66147   66144      67   66156   66153      66   66159   66153
      66   66159   66156      67   66168   66165      66   66171   66165      66
   66171   66168      67   66180   66177      66   66183   66177      66   66183
   66180      67   66192   66189      66   66195   66189      66   66195   66192
      67   66204   66201      66   66207   66201      66   66207   66204      67
   66216   66213      66   66219   66213      66   66219   66216      67   66228
   66225      66   66231   66225      66   66231   66228      67   66240   66237
      66   66243   66237      66   66243   66240      67   66252   66249      66
   66255   66249      66   66255   66252      67   66264   66261      66   66267
   66261      66   66267   66264      67   66276   66273      66   66279   66273
      66   66279   66276      67   66288   66285      66   66291   66285      66
   66291   66288      67   66300   66297      66   66303   66297      66   66303
   66300      67   66312   66309      66   66315   66309      66   66315   66312
      67   66324   66321      66   66327   66321      66   66327   66324      67
   66336   66333      66   66339   66333      66   66339   66336      67   66348
   66345      66   66351   66345      66   66351   66348      67   66360   66357
      66   66363   66357      66   66363   66360      67   66372   66369      66
   66375   66369      66   66375   66372      67   66384   66381      66   66387
   66381      66   66387   66384      67   66396   66393      66   66399   66393
      66   66399   66396      67   66408   66405      66   66411   66405      66
   66411   66408      67   66420   66417      66   66423   66417      66   66423
   66420      67   66432   66429      66   66435   66429      66   66435   66432
      67   66444   66441      66   66447   66441      66   66447   66444      67
   66456   66453      66   66459   66453      66   66459   66456      67   66468
   66465      66   66471   66465      66   66471   66468      67   66480   66477
      66   66483   66477      66   66483   66480      67   66492   66489      66
   66495   66489      66   66495   66492      67   66504   66501      66   66507
   66501      66   66507   66504      67   66516   66513      66   66519   66513
      66   66519   66516      67   66528   66525      66   66531   66525      66
   66531   66528      67   66540   66537      66   66543   66537      66   66543
   66540      67   66552   66549      66   66555   66549      66   66555   66552
      67   66564   66561      66   66567   66561      66   66567   66564      67
   66576   66573      66   66579   66573      66   66579   66576      67   66588
   66585      66   66591   66585      66   66591   66588      67   66600   66597
      66   66603   66597      66   66603   66600      67   66612   66609      66
   66615   66609      66   66615   66612      67   66624   66621      66   66627
   66621      66   66627   66624      67   66636   66633      66   66639   66633
      66   66639   66636      67   66648   66645      66   66651   66645      66
   66651   66648      67   66660   66657      66   66663   66657      66   66663
   66660      67   66672   66669      66   66675   66669      66   66675   66672
      67   66684   66681      66   66687   66681      66   66687   66684      67
   66696   66693      66   66699   66693      66   66699   66696      67   66708
   66705      66   66711   66705      66   66711   66708      67   66720   66717
      66   66723   66717      66   66723   66720      67   66732   66729      66
   66735   66729      66   66735   66732      67   66744   66741      66   66747
   66741      66   66747   66744      67   66756   66753      66   66759   66753
      66   66759   66756      67   66768   66765      66   66771   66765      66
   66771   66768      67   66780   66777      66   66783   66777      66   66783
   66780      67   66792   66789      66   66795   66789      66   66795   66792
      67   66804   66801      66   66807   66801      66   66807   66804      67
   66816   66813      66   66819   66813      66   66819   66816      67   66828
   66825      66   66831   66825      66   66831   66828      67   66840   66837
      66   66843   66837      66   66843   66840      67   66852   66849      66
   66855   66849      66   66855   66852      67   66864   66861      66   66867
   66861      66   66867   66864      67   66876   66873      66   66879   66873
      66   66879   66876      67   66888   66885      66   66891   66885      66
   66891   66888      67   66900   66897      66   66903   66897      66   66903
   66900      67   66912   66909      66   66915   66909      66   66915   66912
      67   66924   66921      66   66927   66921      66   66927   66924      67
   66936   66933      66   66939   66933      66   66939   66936      67   66948
   66945      66   66951   66945      66   66951   66948      67   66960   66957
      66   66963   66957      66   66963   66960      67   66972   66969      66
   66975   66969      66   66975   66972      67   66984   66981      66   66987
   66981      66   66987   66984      67   66996   66993      66   66999   66993
      66   66999   66996      67   67008   67005      66   67011   67005      66
   67011   67008      67   67020   67017      66   67023   67017      66   67023
   67020      67   67032   67029      66   67035   67029      66   67035   67032
      67   67044   67041      66   67047   67041      66   67047   67044      67
   67056   67053      66   67059   67053      66   67059   67056      67   67068
   67065      66   67071   67065      66   67071   67068      67   67080   67077
      66   67083   67077      66   67083   67080      67   67092   67089      66
   67095   67089      66   67095   67092      67   67104   67101      66   67107
   67101      66   67107   67104      67   67116   67113      66   67119   67113
      66   67119   67116      67   67128   67125      66   67131   67125      66
   67131   67128      67   67140   67137      66   67143   67137      66   67143
   67140      67   67152   67149      66   67155   67149      66   67155   67152
      67   67164   67161      66   67167   67161      66   67167   67164      67
   67176   67173      66   67179   67173      66   67179   67176      67   67188
   67185      66   67191   67185      66   67191   67188      67   67200   67197
      66   67203   67197      66   67203   67200      67   67212   67209      66
   67215   67209      66   67215   67212      67   67224   67221      66   67227
   67221      66   67227   67224      67   67236   67233      66   67239   67233
      66   67239   67236      67   67248   67245      66   67251   67245      66
   67251   67248      67   67260   67257      66   67263   67257      66   67263
   67260      67   67272   67269      66   67275   67269      66   67275   67272
      67   67284   67281      66   67287   67281      66   67287   67284      67
   67296   67293      66   67299   67293      66   67299   67296      67   67308
   67305      66   67311   67305      66   67311   67308      67   67320   67317
      66   67323   67317      66   67323   67320      67   67332   67329      66
   67335   67329      66   67335   67332      67   67344   67341      66   67347
   67341      66   67347   67344      67   67356   67353      66   67359   67353
      66   67359   67356      67   67368   67365      66   67371   67365      66
   67371   67368      67   67380   67377      66   67383   67377      66   67383
   67380      67   67392   67389      66   67395   67389      66   67395   67392
      67   67404   67401      66   67407   67401      66   67407   67404      67
   67416   67413      66   67419   67413      66   67419   67416      67   67428
   67425      66   67431   67425      66   67431   67428      67   67440   67437
      66   67443   67437      66   67443   67440      67   67452   67449      66
   67455   67449      66   67455   67452      67   67464   67461      66   67467
   67461      66   67467   67464      67   67476   67473      66   67479   67473
      66   67479   67476      67   67488   67485      66   67491   67485      66
   67491   67488      67   67500   67497      66   67503   67497      66   67503
   67500      67   67512   67509      66   67515   67509      66   67515   67512
      67   67524   67521      66   67527   67521      66   67527   67524      67
   67536   67533      66   67539   67533      66   67539   67536      67   67548
   67545      66   67551   67545      66   67551   67548      67   67560   67557
      66   67563   67557      66   67563   67560      67   67572   67569      66
   67575   67569      66   67575   67572      67   67584   67581      66   67587
   67581      66   67587   67584      67   67596   67593      66   67599   67593
      66   67599   67596      67   67608   67605      66   67611   67605      66
   67611   67608      67   67620   67617      66   67623   67617      66   67623
   67620      67   67632   67629      66   67635   67629      66   67635   67632
      67   67644   67641      66   67647   67641      66   67647   67644      67
   67656   67653      66   67659   67653      66   67659   67656      67   67668
   67665      66   67671   67665      66   67671   67668      67   67680   67677
      66   67683   67677      66   67683   67680      67   67692   67689      66
   67695   67689      66   67695   67692      67   67704   67701      66   67707
   67701      66   67707   67704      67   67716   67713      66   67719   67713
      66   67719   67716      67   67728   67725      66   67731   67725      66
   67731   67728      67   67740   67737      66   67743   67737      66   67743
   67740      67   67752   67749      66   67755   67749      66   67755   67752
      67   67764   67761      66   67767   67761      66   67767   67764      67
   67776   67773      66   67779   67773      66   67779   67776      67   67788
   67785      66   67791   67785      66   67791   67788      67   67800   67797
      66   67803   67797      66   67803   67800      67   67812   67809      66
   67815   67809      66   67815   67812      67   67824   67821      66   67827
   67821      66   67827   67824      67   67836   67833      66   67839   67833
      66   67839   67836      67   67848   67845      66   67851   67845      66
   67851   67848      67   67860   67857      66   67863   67857      66   67863
   67860      67   67872   67869      66   67875   67869      66   67875   67872
      67   67884   67881      66   67887   67881      66   67887   67884      67
   67896   67893      66   67899   67893      66   67899   67896      67   67908
   67905      66   67911   67905      66   67911   67908      67   67920   67917
      66   67923   67917      66   67923   67920      67   67932   67929      66
   67935   67929      66   67935   67932      67   67944   67941      66   67947
   67941      66   67947   67944      67   67956   67953      66   67959   67953
      66   67959   67956      67   67968   67965      66   67971   67965      66
   67971   67968      67   67980   67977      66   67983   67977      66   67983
   67980      67   67992   67989      66   67995   67989      66   67995   67992
      67   68004   68001      66   68007   68001      66   68007   68004      67
   68016   68013      66   68019   68013      66   68019   68016      67   68028
   68025      66   68031   68025      66   68031   68028      67   68040   68037
      66   68043   68037      66   68043   68040      67   68052   68049      66
   68055   68049      66   68055   68052      67   68064   68061      66   68067
   68061      66   68067   68064      67   68076   68073      66   68079   68073
      66   68079   68076      67   68088   68085      66   68091   68085      66
   68091   68088      67   68100   68097      66   68103   68097      66   68103
   68100      67   68112   68109      66   68115   68109      66   68115   68112
      67   68124   68121      66   68127   68121      66   68127   68124      67
   68136   68133      66   68139   68133      66   68139   68136      67   68148
   68145      66   68151   68145      66   68151   68148      67   68160   68157
      66   68163   68157      66   68163   68160      67   68172   68169      66
   68175   68169      66   68175   68172      67   68184   68181      66   68187
   68181      66   68187   68184      67   68196   68193      66   68199   68193
      66   68199   68196      67   68208   68205      66   68211   68205      66
   68211   68208      67   68220   68217      66   68223   68217      66   68223
   68220      67   68232   68229      66   68235   68229      66   68235   68232
      67   68244   68241      66   68247   68241      66   68247   68244      67
   68256   68253      66   68259   68253      66   68259   68256      67   68268
   68265      66   68271   68265      66   68271   68268      67   68280   68277
      66   68283   68277      66   68283   68280      67   68292   68289      66
   68295   68289      66   68295   68292      67   68304   68301      66   68307
   68301      66   68307   68304      67   68316   68313      66   68319   68313
      66   68319   68316      67   68328   68325      66   68331   68325      66
   68331   68328      67   68340   68337      66   68343   68337      66   68343
   68340      67   68352   68349      66   68355   68349      66   68355   68352
      67   68364   68361      66   68367   68361      66   68367   68364      67
   68376   68373      66   68379   68373      66   68379   68376      67   68388
   68385      66   68391   68385      66   68391   68388      67   68400   68397
      66   68403   68397      66   68403   68400      67   68412   68409      66
   68415   68409      66   68415   68412      67   68424   68421      66   68427
   68421      66   68427   68424      67   68436   68433      66   68439   68433
      66   68439   68436      67   68448   68445      66   68451   68445      66
   68451   68448      67   68460   68457      66   68463   68457      66   68463
   68460      67   68472   68469      66   68475   68469      66   68475   68472
      67   68484   68481      66   68487   68481      66   68487   68484      67
   68496   68493      66   68499   68493      66   68499   68496      67   68508
   68505      66   68511   68505      66   68511   68508      67   68520   68517
      66   68523   68517      66   68523   68520      67   68532   68529      66
   68535   68529      66   68535   68532      67   68544   68541      66   68547
   68541      66   68547   68544      67   68556   68553      66   68559   68553
      66   68559   68556      67   68568   68565      66   68571   68565      66
   68571   68568      67   68580   68577      66   68583   68577      66   68583
   68580      67   68592   68589      66   68595   68589      66   68595   68592
      67   68604   68601      66   68607   68601      66   68607   68604      67
   68616   68613      66   68619   68613      66   68619   68616      67   68628
   68625      66   68631   68625      66   68631   68628      67   68640   68637
      66   68643   68637      66   68643   68640      67   68652   68649      66
   68655   68649      66   68655   68652      67   68664   68661      66   68667
   68661      66   68667   68664      67   68676   68673      66   68679   68673
      66   68679   68676      67   68688   68685      66   68691   68685      66
   68691   68688      67   68700   68697      66   68703   68697      66   68703
   68700      67   68712   68709      66   68715   68709      66   68715   68712
      67   68724   68721      66   68727   68721      66   68727   68724      67
   68736   68733      66   68739   68733      66   68739   68736      67   68748
   68745      66   68751   68745      66   68751   68748      67   68760   68757
      66   68763   68757      66   68763   68760      67   68772   68769      66
   68775   68769      66   68775   68772      67   68784   68781      66   68787
   68781      66   68787   68784      67   68796   68793      66   68799   68793
      66   68799   68796      67   68808   68805      66   68811   68805      66
   68811   68808      67   68820   68817      66   68823   68817      66   68823
   68820      67   68832   68829      66   68835   68829      66   68835   68832
      67   68844   68841      66   68847   68841      66   68847   68844      67
   68856   68853      66   68859   68853      66   68859   68856      67   68868
   68865      66   68871   68865      66   68871   68868      67   68880   68877
      66   68883   68877      66   68883   68880      67   68892   68889      66
   68895   68889      66   68895   68892      67   68904   68901      66   68907
   68901      66   68907   68904      67   68916   68913      66   68919   68913
      66   68919   68916      67   68928   68925      66   68931   68925      66
   68931   68928      67   68940   68937      66   68943   68937      66   68943
   68940      67   68952   68949      66   68955   68949      66   68955   68952
      67   68964   68961      66   68967   68961      66   68967   68964      67
   68976   68973      66   68979   68973      66   68979   68976      67   68988
   68985      66   68991   68985      66   68991   68988      67   69000   68997
      66   69003   68997      66   69003   69000      67   69012   69009      66
   69015   69009      66   69015   69012      67   69024   69021      66   69027
   69021      66   69027   69024      67   69036   69033      66   69039   69033
      66   69039   69036      67   69048   69045      66   69051   69045      66
   69051   69048      67   69060   69057      66   69063   69057      66   69063
   69060      67   69072   69069      66   69075   69069      66   69075   69072
      67   69084   69081      66   69087   69081      66   69087   69084      67
   69096   69093      66   69099   69093      66   69099   69096      67   69108
   69105      66   69111   69105      66   69111   69108      67   69120   69117
      66   69123   69117      66   69123   69120      67   69132   69129      66
   69135   69129      66   69135   69132      67   69144   69141      66   69147
   69141      66   69147   69144      67   69156   69153      66   69159   69153
      66   69159   69156      67   69168   69165      66   69171   69165      66
   69171   69168      67   69180   69177      66   69183   69177      66   69183
   69180      67   69192   69189      66   69195   69189      66   69195   69192
      67   69204   69201      66   69207   69201      66   69207   69204      67
   69216   69213      66   69219   69213      66   69219   69216      67   69228
   69225      66   69231   69225      66   69231   69228      67   69240   69237
      66   69243   69237      66   69243   69240      67   69252   69249      66
   69255   69249      66   69255   69252      67   69264   69261      66   69267
   69261      66   69267   69264      67   69276   69273      66   69279   69273
      66   69279   69276      67   69288   69285      66   69291   69285      66
   69291   69288      67   69300   69297      66   69303   69297      66   69303
   69300      67   69312   69309      66   69315   69309      66   69315   69312
      67   69324   69321      66   69327   69321      66   69327   69324      67
   69336   69333      66   69339   69333      66   69339   69336      67   69348
   69345      66   69351   69345      66   69351   69348      67   69360   69357
      66   69363   69357      66   69363   69360      67   69372   69369      66
   69375   69369      66   69375   69372      67   69384   69381      66   69387
   69381      66   69387   69384      67   69396   69393      66   69399   69393
      66   69399   69396      67   69408   69405      66   69411   69405      66
   69411   69408      67   69420   69417      66   69423   69417      66   69423
   69420      67   69432   69429      66   69435   69429      66   69435   69432
      67   69444   69441      66   69447   69441      66   69447   69444      67
   69456   69453      66   69459   69453      66   69459   69456      67   69468
   69465      66   69471   69465      66   69471   69468      67   69480   69477
      66   69483   69477      66   69483   69480      67   69492   69489      66
   69495   69489      66   69495   69492      67   69504   69501      66   69507
   69501      66   69507   69504      67   69516   69513      66   69519   69513
      66   69519   69516      67   69528   69525      66   69531   69525      66
   69531   69528      67   69540   69537      66   69543   69537      66   69543
   69540      67   69552   69549      66   69555   69549      66   69555   69552
      67   69564   69561      66   69567   69561      66   69567   69564      67
   69576   69573      66   69579   69573      66   69579   69576      67   69588
   69585      66   69591   69585      66   69591   69588      67   69600   69597
      66   69603   69597      66   69603   69600      67   69612   69609      66
   69615   69609      66   69615   69612      67   69624   69621      66   69627
   69621      66   69627   69624      67   69636   69633      66   69639   69633
      66   69639   69636      67   69648   69645      66   69651   69645      66
   69651   69648      67   69660   69657      66   69663   69657      66   69663
   69660      67   69672   69669      66   69675   69669      66   69675   69672
      67   69684   69681      66   69687   69681      66   69687   69684      67
   69696   69693      66   69699   69693      66   69699   69696      67   69708
   69705      66   69711   69705      66   69711   69708      67   69720   69717
      66   69723   69717      66   69723   69720      67   69732   69729      66
   69735   69729      66   69735   69732      67   69744   69741      66   69747
   69741      66   69747   69744      67   69756   69753      66   69759   69753
      66   69759   69756      67   69768   69765      66   69771   69765      66
   69771   69768      67   69780   69777      66   69783   69777      66   69783
   69780      67   69792   69789      66   69795   69789      66   69795   69792
      67   69804   69801      66   69807   69801      66   69807   69804      67
   69816   69813      66   69819   69813      66   69819   69816      67   69828
   69825      66   69831   69825      66   69831   69828      67   69840   69837
      66   69843   69837      66   69843   69840      67   69852   69849      66
   69855   69849      66   69855   69852      67   69864   69861      66   69867
   69861      66   69867   69864      67   69876   69873      66   69879   69873
      66   69879   69876      67   69888   69885      66   69891   69885      66
   69891   69888      67   69900   69897      66   69903   69897      66   69903
   69900      67   69912   69909      66   69915   69909      66   69915   69912
      67   69924   69921      66   69927   69921      66   69927   69924      67
   69936   69933      66   69939   69933      66   69939   69936      67   69948
   69945      66   69951   69945      66   69951   69948      67   69960   69957
      66   69963   69957      66   69963   69960      67   69972   69969      66
   69975   69969      66   69975   69972      67   69984   69981      66   69987
   69981      66   69987   69984      67   69996   69993      66   69999   69993
      66   69999   69996      67   70008   70005      66   70011   70005      66
   70011   70008      67   70020   70017      66   70023   70017      66   70023
   70020      67   70032   70029      66   70035   70029      66   70035   70032
      67   70044   70041      66   70047   70041      66   70047   70044      67
   70056   70053      66   70059   70053      66   70059   70056      67   70068
   70065      66   70071   70065      66   70071   70068      67   70080   70077
      66   70083   70077      66   70083   70080      67   70092   70089      66
   70095   70089      66   70095   70092      67   70104   70101      66   70107
   70101      66   70107   70104      67   70116   70113      66   70119   70113
      66   70119   70116      67   70128   70125      66   70131   70125      66
   70131   70128      67   70140   70137      66   70143   70137      66   70143
   70140      67   70152   70149      66   70155   70149      66   70155   70152
      67   70164   70161      66   70167   70161      66   70167   70164      67
   70176   70173      66   70179   70173      66   70179   70176      67   70188
   70185      66   70191   70185      66   70191   70188      67   70200   70197
      66   70203   70197      66   70203   70200      67   70212   70209      66
   70215   70209      66   70215   70212      67   70224   70221      66   70227
   70221      66   70227   70224      67   70236   70233      66   70239   70233
      66   70239   70236      67   70248   70245      66   70251   70245      66
   70251   70248      67   70260   70257      66   70263   70257      66   70263
   70260      67   70272   70269      66   70275   70269      66   70275   70272
      67   70284   70281      66   70287   70281      66   70287   70284      67
   70296   70293      66   70299   70293      66   70299   70296      67   70308
   70305      66   70311   70305      66   70311   70308      67   70320   70317
      66   70323   70317      66   70323   70320      67   70332   70329      66
   70335   70329      66   70335   70332      67   70344   70341      66   70347
   70341      66   70347   70344      67   70356   70353      66   70359   70353
      66   70359   70356      67   70368   70365      66   70371   70365      66
   70371   70368      67   70380   70377      66   70383   70377      66   70383
   70380      67   70392   70389      66   70395   70389      66   70395   70392
      67   70404   70401      66   70407   70401      66   70407   70404      67
   70416   70413      66   70419   70413      66   70419   70416      67   70428
   70425      66   70431   70425      66   70431   70428      67   70440   70437
      66   70443   70437      66   70443   70440      67   70452   70449      66
   70455   70449      66   70455   70452      67   70464   70461      66   70467
   70461      66   70467   70464      67   70476   70473      66   70479   70473
      66   70479   70476      67   70488   70485      66   70491   70485      66
   70491   70488      67   70500   70497      66   70503   70497      66   70503
   70500      67   70512   70509      66   70515   70509      66   70515   70512
      67   70524   70521      66   70527   70521      66   70527   70524      67
   70536   70533      66   70539   70533      66   70539   70536      67   70548
   70545      66   70551   70545      66   70551   70548      67   70560   70557
      66   70563   70557      66   70563   70560      67   70572   70569      66
   70575   70569      66   70575   70572      67   70584   70581      66   70587
   70581      66   70587   70584      67   70596   70593      66   70599   70593
      66   70599   70596      67   70608   70605      66   70611   70605      66
   70611   70608      67   70620   70617      66   70623   70617      66   70623
   70620      67   70632   70629      66   70635   70629      66   70635   70632
      67   70644   70641      66   70647   70641      66   70647   70644      67
   70656   70653      66   70659   70653      66   70659   70656      67   70668
   70665      66   70671   70665      66   70671   70668      67   70680   70677
      66   70683   70677      66   70683   70680      67   70692   70689      66
   70695   70689      66   70695   70692      67   70704   70701      66   70707
   70701      66   70707   70704      67   70716   70713      66   70719   70713
      66   70719   70716      67   70728   70725      66   70731   70725      66
   70731   70728      67   70740   70737      66   70743   70737      66   70743
   70740      67   70752   70749      66   70755   70749      66   70755   70752
      67   70764   70761      66   70767   70761      66   70767   70764      67
   70776   70773      66   70779   70773      66   70779   70776      67   70788
   70785      66   70791   70785      66   70791   70788      67   70800   70797
      66   70803   70797      66   70803   70800      67   70812   70809      66
   70815   70809      66   70815   70812      67   70824   70821      66   70827
   70821      66   70827   70824      67   70836   70833      66   70839   70833
      66   70839   70836      67   70848   70845      66   70851   70845      66
   70851   70848      67   70860   70857      66   70863   70857      66   70863
   70860      67   70872   70869      66   70875   70869      66   70875   70872
      67   70884   70881      66   70887   70881      66   70887   70884      67
   70896   70893      66   70899   70893      66   70899   70896      67   70908
   70905      66   70911   70905      66   70911   70908      67   70920   70917
      66   70923   70917      66   70923   70920      67   70932   70929      66
   70935   70929      66   70935   70932      67   70944   70941      66   70947
   70941      66   70947   70944      67   70956   70953      66   70959   70953
      66   70959   70956      67   70968   70965      66   70971   70965      66
   70971   70968      67   70980   70977      66   70983   70977      66   70983
   70980      67   70992   70989      66   70995   70989      66   70995   70992
      67   71004   71001      66   71007   71001      66   71007   71004      67
   71016   71013      66   71019   71013      66   71019   71016      67   71028
   71025      66   71031   71025      66   71031   71028      67   71040   71037
      66   71043   71037      66   71043   71040      67   71052   71049      66
   71055   71049      66   71055   71052      67   71064   71061      66   71067
   71061      66   71067   71064      67   71076   71073      66   71079   71073
      66   71079   71076      67   71088   71085      66   71091   71085      66
   71091   71088      67   71100   71097      66   71103   71097      66   71103
   71100      67   71112   71109      66   71115   71109      66   71115   71112
      67   71124   71121      66   71127   71121      66   71127   71124      67
   71136   71133      66   71139   71133      66   71139   71136      67   71148
   71145      66   71151   71145      66   71151   71148      67   71160   71157
      66   71163   71157      66   71163   71160      67   71172   71169      66
   71175   71169      66   71175   71172      67   71184   71181      66   71187
   71181      66   71187   71184      67   71196   71193      66   71199   71193
      66   71199   71196      67   71208   71205      66   71211   71205      66
   71211   71208      67   71220   71217      66   71223   71217      66   71223
   71220      67   71232   71229      66   71235   71229      66   71235   71232
      67   71244   71241      66   71247   71241      66   71247   71244      67
   71256   71253      66   71259   71253      66   71259   71256      67   71268
   71265      66   71271   71265      66   71271   71268      67   71280   71277
      66   71283   71277      66   71283   71280      67   71292   71289      66
   71295   71289      66   71295   71292      67   71304   71301      66   71307
   71301      66   71307   71304      67   71316   71313      66   71319   71313
      66   71319   71316      67   71328   71325      66   71331   71325      66
   71331   71328      67   71340   71337      66   71343   71337      66   71343
   71340      67   71352   71349      66   71355   71349      66   71355   71352
      67   71364   71361      66   71367   71361      66   71367   71364      67
   71376   71373      66   71379   71373      66   71379   71376      67   71388
   71385      66   71391   71385      66   71391   71388      67   71400   71397
      66   71403   71397      66   71403   71400      67   71412   71409      66
   71415   71409      66   71415   71412      67   71424   71421      66   71427
   71421      66   71427   71424      67   71436   71433      66   71439   71433
      66   71439   71436      67   71448   71445      66   71451   71445      66
   71451   71448      67   71460   71457      66   71463   71457      66   71463
   71460      67   71472   71469      66   71475   71469      66   71475   71472
      67   71484   71481      66   71487   71481      66   71487   71484      67
   71496   71493      66   71499   71493      66   71499   71496      67   71508
   71505      66   71511   71505      66   71511   71508      67   71520   71517
      66   71523   71517      66   71523   71520      67   71532   71529      66
   71535   71529      66   71535   71532      67   71544   71541      66   71547
   71541      66   71547   71544      67   71556   71553      66   71559   71553
      66   71559   71556      67   71568   71565      66   71571   71565      66
   71571   71568      67   71580   71577      66   71583   71577      66   71583
   71580      67   71592   71589      66   71595   71589      66   71595   71592
      67   71604   71601      66   71607   71601      66   71607   71604      67
   71616   71613      66   71619   71613      66   71619   71616      67   71628
   71625      66   71631   71625      66   71631   71628      67   71640   71637
      66   71643   71637      66   71643   71640      67   71652   71649      66
   71655   71649      66   71655   71652      67   71664   71661      66   71667
   71661      66   71667   71664      67   71676   71673      66   71679   71673
      66   71679   71676      67   71688   71685      66   71691   71685      66
   71691   71688      67   71700   71697      66   71703   71697      66   71703
   71700      67   71712   71709      66   71715   71709      66   71715   71712
      67   71724   71721      66   71727   71721      66   71727   71724      67
   71736   71733      66   71739   71733      66   71739   71736      67   71748
   71745      66   71751   71745      66   71751   71748      67   71760   71757
      66   71763   71757      66   71763   71760      67   71772   71769      66
   71775   71769      66   71775   71772      67   71784   71781      66   71787
   71781      66   71787   71784      67   71796   71793      66   71799   71793
      66   71799   71796      67   71808   71805      66   71811   71805      66
   71811   71808      67   71820   71817      66   71823   71817      66   71823
   71820      67   71832   71829      66   71835   71829      66   71835   71832
      67   71844   71841      66   71847   71841      66   71847   71844      67
   71856   71853      66   71859   71853      66   71859   71856      67   71868
   71865      66   71871   71865      66   71871   71868      67   71880   71877
      66   71883   71877      66   71883   71880      67   71892   71889      66
   71895   71889      66   71895   71892      67   71904   71901      66   71907
   71901      66   71907   71904      67   71916   71913      66   71919   71913
      66   71919   71916      67   71928   71925      66   71931   71925      66
   71931   71928      67   71940   71937      66   71943   71937      66   71943
   71940      67   71952   71949      66   71955   71949      66   71955   71952
      67   71964   71961      66   71967   71961      66   71967   71964      67
   71976   71973      66   71979   71973      66   71979   71976      67   71988
   71985      66   71991   71985      66   71991   71988      67   72000   71997
      66   72003   71997      66   72003   72000      67   72012   72009      66
   72015   72009      66   72015   72012      67   72024   72021      66   72027
   72021      66   72027   72024      67   72036   72033      66   72039   72033
      66   72039   72036      67   72048   72045      66   72051   72045      66
   72051   72048      67   72060   72057      66   72063   72057      66   72063
   72060      67   72072   72069      66   72075   72069      66   72075   72072
      67   72084   72081      66   72087   72081      66   72087   72084      67
   72096   72093      66   72099   72093      66   72099   72096      67   72108
   72105      66   72111   72105      66   72111   72108      67   72120   72117
      66   72123   72117      66   72123   72120      67   72132   72129      66
   72135   72129      66   72135   72132      67   72144   72141      66   72147
   72141      66   72147   72144      67   72156   72153      66   72159   72153
      66   72159   72156      67   72168   72165      66   72171   72165      66
   72171   72168      67   72180   72177      66   72183   72177      66   72183
   72180      67   72192   72189      66   72195   72189      66   72195   72192
      67   72204   72201      66   72207   72201      66   72207   72204      67
   72216   72213      66   72219   72213      66   72219   72216      67   72228
   72225      66   72231   72225      66   72231   72228      67   72240   72237
      66   72243   72237      66   72243   72240      67   72252   72249      66
   72255   72249      66   72255   72252      67   72264   72261      66   72267
   72261      66   72267   72264      67   72276   72273      66   72279   72273
      66   72279   72276      67   72288   72285      66   72291   72285      66
   72291   72288      67   72300   72297      66   72303   72297      66   72303
   72300      67   72312   72309      66   72315   72309      66   72315   72312
      67   72324   72321      66   72327   72321      66   72327   72324      67
   72336   72333      66   72339   72333      66   72339   72336      67   72348
   72345      66   72351   72345      66   72351   72348      67   72360   72357
      66   72363   72357      66   72363   72360      67   72372   72369      66
   72375   72369      66   72375   72372      67   72384   72381      66   72387
   72381      66   72387   72384      67   72396   72393      66   72399   72393
      66   72399   72396      67   72408   72405      66   72411   72405      66
   72411   72408      67   72420   72417      66   72423   72417      66   72423
   72420      67   72432   72429      66   72435   72429      66   72435   72432
      67   72444   72441      66   72447   72441      66   72447   72444      67
   72456   72453      66   72459   72453      66   72459   72456      67   72468
   72465      66   72471   72465      66   72471   72468      67   72480   72477
      66   72483   72477      66   72483   72480      67   72492   72489      66
   72495   72489      66   72495   72492      67   72504   72501      66   72507
   72501      66   72507   72504      67   72516   72513      66   72519   72513
      66   72519   72516      67   72528   72525      66   72531   72525      66
   72531   72528      67   72540   72537      66   72543   72537      66   72543
   72540      67   72552   72549      66   72555   72549      66   72555   72552
      67   72564   72561      66   72567   72561      66   72567   72564      67
   72576   72573      66   72579   72573      66   72579   72576      67   72588
   72585      66   72591   72585      66   72591   72588      67   72600   72597
      66   72603   72597      66   72603   72600      67   72612   72609      66
   72615   72609      66   72615   72612      67   72624   72621      66   72627
   72621      66   72627   72624      67   72636   72633      66   72639   72633
      66   72639   72636      67   72648   72645      66   72651   72645      66
   72651   72648      67   72660   72657      66   72663   72657      66   72663
   72660      67   72672   72669      66   72675   72669      66   72675   72672
      67   72684   72681      66   72687   72681      66   72687   72684      67
   72696   72693      66   72699   72693      66   72699   72696      67   72708
   72705      66   72711   72705      66   72711   72708      67   72720   72717
      66   72723   72717      66   72723   72720      67   72732   72729      66
   72735   72729      66   72735   72732      67   72744   72741      66   72747
   72741      66   72747   72744      67   72756   72753      66   72759   72753
      66   72759   72756      67   72768   72765      66   72771   72765      66
   72771   72768      67   72780   72777      66   72783   72777      66   72783
   72780      67   72792   72789      66   72795   72789      66   72795   72792
      67   72804   72801      66   72807   72801      66   72807   72804      67
   72816   72813      66   72819   72813      66   72819   72816      67   72828
   72825      66   72831   72825      66   72831   72828      67   72840   72837
      66   72843   72837      66   72843   72840      67   72852   72849      66
   72855   72849      66   72855   72852      67   72864   72861      66   72867
   72861      66   72867   72864      67   72876   72873      66   72879   72873
      66   72879   72876      67   72888   72885      66   72891   72885      66
   72891   72888      67   72900   72897      66   72903   72897      66   72903
   72900      67   72912   72909      66   72915   72909      66   72915   72912
      67   72924   72921      66   72927   72921      66   72927   72924      67
   72936   72933      66   72939   72933      66   72939   72936      67   72948
   72945      66   72951   72945      66   72951   72948      67   72960   72957
      66   72963   72957      66   72963   72960      67   72972   72969      66
   72975   72969      66   72975   72972      67   72984   72981      66   72987
   72981      66   72987   72984      67   72996   72993      66   72999   72993
      66   72999   72996      67   73008   73005      66   73011   73005      66
   73011   73008      67   73020   73017      66   73023   73017      66   73023
   73020      67   73032   73029      66   73035   73029      66   73035   73032
      67   73044   73041      66   73047   73041      66   73047   73044      67
   73056   73053      66   73059   73053      66   73059   73056      67   73068
   73065      66   73071   73065      66   73071   73068      67   73080   73077
      66   73083   73077      66   73083   73080      67   73092   73089      66
   73095   73089      66   73095   73092      67   73104   73101      66   73107
   73101      66   73107   73104      67   73116   73113      66   73119   73113
      66   73119   73116      67   73128   73125      66   73131   73125      66
   73131   73128      67   73140   73137      66   73143   73137      66   73143
   73140      67   73152   73149      66   73155   73149      66   73155   73152
      67   73164   73161      66   73167   73161      66   73167   73164      67
   73176   73173      66   73179   73173      66   73179   73176      67   73188
   73185      66   73191   73185      66   73191   73188      67   73200   73197
      66   73203   73197      66   73203   73200      67   73212   73209      66
   73215   73209      66   73215   73212      67   73224   73221      66   73227
   73221      66   73227   73224      67   73236   73233      66   73239   73233
      66   73239   73236      67   73248   73245      66   73251   73245      66
   73251   73248      67   73260   73257      66   73263   73257      66   73263
   73260      67   73272   73269      66   73275   73269      66   73275   73272
      67   73284   73281      66   73287   73281      66   73287   73284      67
   73296   73293      66   73299   73293      66   73299   73296      67   73308
   73305      66   73311   73305      66   73311   73308      67   73320   73317
      66   73323   73317      66   73323   73320      67   73332   73329      66
   73335   73329      66   73335   73332      67   73344   73341      66   73347
   73341      66   73347   73344      67   73356   73353      66   73359   73353
      66   73359   73356      67   73368   73365      66   73371   73365      66
   73371   73368      67   73380   73377      66   73383   73377      66   73383
   73380      67   73392   73389      66   73395   73389      66   73395   73392
      67   73404   73401      66   73407   73401      66   73407   73404      67
   73416   73413      66   73419   73413      66   73419   73416      67   73428
   73425      66   73431   73425      66   73431   73428      67   73440   73437
      66   73443   73437      66   73443   73440      67   73452   73449      66
   73455   73449      66   73455   73452      67   73464   73461      66   73467
   73461      66   73467   73464      67   73476   73473      66   73479   73473
      66   73479   73476      67   73488   73485      66   73491   73485      66
   73491   73488      67   73500   73497      66   73503   73497      66   73503
   73500      67   73512   73509      66   73515   73509      66   73515   73512
      67   73524   73521      66   73527   73521      66   73527   73524      67
   73536   73533      66   73539   73533      66   73539   73536      67   73548
   73545      66   73551   73545      66   73551   73548      67   73560   73557
      66   73563   73557      66   73563   73560      67   73572   73569      66
   73575   73569      66   73575   73572      67   73584   73581      66   73587
   73581      66   73587   73584      67   73596   73593      66   73599   73593
      66   73599   73596      67   73608   73605      66   73611   73605      66
   73611   73608      67   73620   73617      66   73623   73617      66   73623
   73620      67   73632   73629      66   73635   73629      66   73635   73632
      67   73644   73641      66   73647   73641      66   73647   73644      67
   73656   73653      66   73659   73653      66   73659   73656      67   73668
   73665      66   73671   73665      66   73671   73668      67   73680   73677
      66   73683   73677      66   73683   73680      67   73692   73689      66
   73695   73689      66   73695   73692      67   73704   73701      66   73707
   73701      66   73707   73704      67   73716   73713      66   73719   73713
      66   73719   73716      67   73728   73725      66   73731   73725      66
   73731   73728      67   73740   73737      66   73743   73737      66   73743
   73740      67   73752   73749      66   73755   73749      66   73755   73752
      67   73764   73761      66   73767   73761      66   73767   73764      67
   73776   73773      66   73779   73773      66   73779   73776      67   73788
   73785      66   73791   73785      66   73791   73788      67   73800   73797
      66   73803   73797      66   73803   73800      67   73812   73809      66
   73815   73809      66   73815   73812      67   73824   73821      66   73827
   73821      66   73827   73824      67   73836   73833      66   73839   73833
      66   73839   73836      67   73848   73845      66   73851   73845      66
   73851   73848      67   73860   73857      66   73863   73857      66   73863
   73860      67   73872   73869      66   73875   73869      66   73875   73872
      67   73884   73881      66   73887   73881      66   73887   73884      67
   73896   73893      66   73899   73893      66   73899   73896      67   73908
   73905      66   73911   73905      66   73911   73908      67   73920   73917
      66   73923   73917      66   73923   73920      67   73932   73929      66
   73935   73929      66   73935   73932      67   73944   73941      66   73947
   73941      66   73947   73944      67   73956   73953      66   73959   73953
      66   73959   73956      67   73968   73965      66   73971   73965      66
   73971   73968      67   73980   73977      66   73983   73977      66   73983
   73980      67   73992   73989      66   73995   73989      66   73995   73992
      67   74004   74001      66   74007   74001      66   74007   74004      67
   74016   74013      66   74019   74013      66   74019   74016      67   74028
   74025      66   74031   74025      66   74031   74028      67   74040   74037
      66   74043   74037      66   74043   74040      67   74052   74049      66
   74055   74049      66   74055   74052      67   74064   74061      66   74067
   74061      66   74067   74064      67   74076   74073      66   74079   74073
      66   74079   74076      67   74088   74085      66   74091   74085      66
   74091   74088      67   74100   74097      66   74103   74097      66   74103
   74100      67   74112   74109      66   74115   74109      66   74115   74112
      67   74124   74121      66   74127   74121      66   74127   74124      67
   74136   74133      66   74139   74133      66   74139   74136      67   74148
   74145      66   74151   74145      66   74151   74148      67   74160   74157
      66   74163   74157      66   74163   74160      67   74172   74169      66
   74175   74169      66   74175   74172      67   74184   74181      66   74187
   74181      66   74187   74184      67   74196   74193      66   74199   74193
      66   74199   74196      67   74208   74205      66   74211   74205      66
   74211   74208      67   74220   74217      66   74223   74217      66   74223
   74220      67   74232   74229      66   74235   74229      66   74235   74232
      67   74244   74241      66   74247   74241      66   74247   74244      67
   74256   74253      66   74259   74253      66   74259   74256      67   74268
   74265      66   74271   74265      66   74271   74268      67   74280   74277
      66   74283   74277      66   74283   74280      67   74292   74289      66
   74295   74289      66   74295   74292      67   74304   74301      66   74307
   74301      66   74307   74304      67   74316   74313      66   74319   74313
      66   74319   74316      67   74328   74325      66   74331   74325      66
   74331   74328      67   74340   74337      66   74343   74337      66   74343
   74340      67   74352   74349      66   74355   74349      66   74355   74352
      67   74364   74361      66   74367   74361      66   74367   74364      67
   74376   74373      66   74379   74373      66   74379   74376      67   74388
   74385      66   74391   74385      66   74391   74388      67   74400   74397
      66   74403   74397      66   74403   74400      67   74412   74409      66
   74415   74409      66   74415   74412      67   74424   74421      66   74427
   74421      66   74427   74424      67   74436   74433      66   74439   74433
      66   74439   74436      67   74448   74445      66   74451   74445      66
   74451   74448      67   74460   74457      66   74463   74457      66   74463
   74460      67   74472   74469      66   74475   74469      66   74475   74472
      67   74484   74481      66   74487   74481      66   74487   74484      67
   74496   74493      66   74499   74493      66   74499   74496      67   74508
   74505      66   74511   74505      66   74511   74508      67   74520   74517
      66   74523   74517      66   74523   74520      67   74532   74529      66
   74535   74529      66   74535   74532      67   74544   74541      66   74547
   74541      66   74547   74544      67   74556   74553      66   74559   74553
      66   74559   74556      67   74568   74565      66   74571   74565      66
   74571   74568      67   74580   74577      66   74583   74577      66   74583
   74580      67   74592   74589      66   74595   74589      66   74595   74592
      67   74604   74601      66   74607   74601      66   74607   74604      67
   74616   74613      66   74619   74613      66   74619   74616      67   74628
   74625      66   74631   74625      66   74631   74628      67   74640   74637
      66   74643   74637      66   74643   74640      67   74652   74649      66
   74655   74649      66   74655   74652      67   74664   74661      66   74667
   74661      66   74667   74664      67   74676   74673      66   74679   74673
      66   74679   74676      67   74688   74685      66   74691   74685      66
   74691   74688      67   74700   74697      66   74703   74697      66   74703
   74700      67   74712   74709      66   74715   74709      66   74715   74712
      67   74724   74721      66   74727   74721      66   74727   74724      67
   74736   74733      66   74739   74733      66   74739   74736      67   74748
   74745      66   74751   74745      66   74751   74748      67   74760   74757
      66   74763   74757      66   74763   74760      67   74772   74769      66
   74775   74769      66   74775   74772      67   74784   74781      66   74787
   74781      66   74787   74784      67   74796   74793      66   74799   74793
      66   74799   74796      67   74808   74805      66   74811   74805      66
   74811   74808      67   74820   74817      66   74823   74817      66   74823
   74820      67   74832   74829      66   74835   74829      66   74835   74832
      67   74844   74841      66   74847   74841      66   74847   74844      67
   74856   74853      66   74859   74853      66   74859   74856      67   74868
   74865      66   74871   74865      66   74871   74868      67   74880   74877
      66   74883   74877      66   74883   74880      67   74892   74889      66
   74895   74889      66   74895   74892      67   74904   74901      66   74907
   74901      66   74907   74904      67   74916   74913      66   74919   74913
      66   74919   74916      67   74928   74925      66   74931   74925      66
   74931   74928      67   74940   74937      66   74943   74937      66   74943
   74940      67   74952   74949      66   74955   74949      66   74955   74952
      67   74964   74961      66   74967   74961      66   74967   74964      67
   74976   74973      66   74979   74973      66   74979   74976      67   74988
   74985      66   74991   74985      66   74991   74988      67   75000   74997
      66   75003   74997      66   75003   75000      67   75012   75009      66
   75015   75009      66   75015   75012      67   75024   75021      66   75027
   75021      66   75027   75024      67   75036   75033      66   75039   75033
      66   75039   75036      67   75048   75045      66   75051   75045      66
   75051   75048      67   75060   75057      66   75063   75057      66   75063
   75060      67   75072   75069      66   75075   75069      66   75075   75072
      67   75084   75081      66   75087   75081      66   75087   75084      67
   75096   75093      66   75099   75093      66   75099   75096      67   75108
   75105      66   75111   75105      66   75111   75108      67   75120   75117
      66   75123   75117      66   75123   75120      67   75132   75129      66
   75135   75129      66   75135   75132      67   75144   75141      66   75147
   75141      66   75147   75144      67   75156   75153      66   75159   75153
      66   75159   75156      67   75168   75165      66   75171   75165      66
   75171   75168      67   75180   75177      66   75183   75177      66   75183
   75180      67   75192   75189      66   75195   75189      66   75195   75192
      67   75204   75201      66   75207   75201      66   75207   75204      67
   75216   75213      66   75219   75213      66   75219   75216      67   75228
   75225      66   75231   75225      66   75231   75228      67   75240   75237
      66   75243   75237      66   75243   75240      67   75252   75249      66
   75255   75249      66   75255   75252      67   75264   75261      66   75267
   75261      66   75267   75264      67   75276   75273      66   75279   75273
      66   75279   75276      67   75288   75285      66   75291   75285      66
   75291   75288      67   75300   75297      66   75303   75297      66   75303
   75300      67   75312   75309      66   75315   75309      66   75315   75312
      67   75324   75321      66   75327   75321      66   75327   75324      67
   75336   75333      66   75339   75333      66   75339   75336      67   75348
   75345      66   75351   75345      66   75351   75348      67   75360   75357
      66   75363   75357      66   75363   75360      67   75372   75369      66
   75375   75369      66   75375   75372      67   75384   75381      66   75387
   75381      66   75387   75384      67   75396   75393      66   75399   75393
      66   75399   75396      67   75408   75405      66   75411   75405      66
   75411   75408      67   75420   75417      66   75423   75417      66   75423
   75420      67   75432   75429      66   75435   75429      66   75435   75432
      67   75444   75441      66   75447   75441      66   75447   75444      67
   75456   75453      66   75459   75453      66   75459   75456      67   75468
   75465      66   75471   75465      66   75471   75468      67   75480   75477
      66   75483   75477      66   75483   75480      67   75492   75489      66
   75495   75489      66   75495   75492      67   75504   75501      66   75507
   75501      66   75507   75504      67   75516   75513      66   75519   75513
      66   75519   75516      67   75528   75525      66   75531   75525      66
   75531   75528      67   75540   75537      66   75543   75537      66   75543
   75540      67   75552   75549      66   75555   75549      66   75555   75552
      67   75564   75561      66   75567   75561      66   75567   75564      67
   75576   75573      66   75579   75573      66   75579   75576      67   75588
   75585      66   75591   75585      66   75591   75588      67   75600   75597
      66   75603   75597      66   75603   75600      67   75612   75609      66
   75615   75609      66   75615   75612      67   75624   75621      66   75627
   75621      66   75627   75624      67   75636   75633      66   75639   75633
      66   75639   75636      67   75648   75645      66   75651   75645      66
   75651   75648      67   75660   75657      66   75663   75657      66   75663
   75660      67   75672   75669      66   75675   75669      66   75675   75672
      67   75684   75681      66   75687   75681      66   75687   75684      67
   75696   75693      66   75699   75693      66   75699   75696      67   75708
   75705      66   75711   75705      66   75711   75708      67   75720   75717
      66   75723   75717      66   75723   75720      67   75732   75729      66
   75735   75729      66   75735   75732      67   75744   75741      66   75747
   75741      66   75747   75744      67   75756   75753      66   75759   75753
      66   75759   75756      67   75768   75765      66   75771   75765      66
   75771   75768      67   75780   75777      66   75783   75777      66   75783
   75780      67   75792   75789      66   75795   75789      66   75795   75792
      67   75804   75801      66   75807   75801      66   75807   75804      67
   75816   75813      66   75819   75813      66   75819   75816      67   75828
   75825      66   75831   75825      66   75831   75828      67   75840   75837
      66   75843   75837      66   75843   75840      67   75852   75849      66
   75855   75849      66   75855   75852      67   75864   75861      66   75867
   75861      66   75867   75864      67   75876   75873      66   75879   75873
      66   75879   75876      67   75888   75885      66   75891   75885      66
   75891   75888      67   75900   75897      66   75903   75897      66   75903
   75900      67   75912   75909      66   75915   75909      66   75915   75912
      67   75924   75921      66   75927   75921      66   75927   75924      67
   75936   75933      66   75939   75933      66   75939   75936      67   75948
   75945      66   75951   75945      66   75951   75948      67   75960   75957
      66   75963   75957      66   75963   75960      67   75972   75969      66
   75975   75969      66   75975   75972      67   75984   75981      66   75987
   75981      66   75987   75984      67   75996   75993      66   75999   75993
      66   75999   75996      67   76008   76005      66   76011   76005      66
   76011   76008      67   76020   76017      66   76023   76017      66   76023
   76020      67   76032   76029      66   76035   76029      66   76035   76032
      67   76044   76041      66   76047   76041      66   76047   76044      67
   76056   76053      66   76059   76053      66   76059   76056      67   76068
   76065      66   76071   76065      66   76071   76068      67   76080   76077
      66   76083   76077      66   76083   76080      67   76092   76089      66
   76095   76089      66   76095   76092      67   76104   76101      66   76107
   76101      66   76107   76104      67   76116   76113      66   76119   76113
      66   76119   76116      67   76128   76125      66   76131   76125      66
   76131   76128      67   76140   76137      66   76143   76137      66   76143
   76140      67   76152   76149      66   76155   76149      66   76155   76152
      67   76164   76161      66   76167   76161      66   76167   76164      67
   76176   76173      66   76179   76173      66   76179   76176      67   76188
   76185      66   76191   76185      66   76191   76188      67   76200   76197
      66   76203   76197      66   76203   76200      67   76212   76209      66
   76215   76209      66   76215   76212      67   76224   76221      66   76227
   76221      66   76227   76224      67   76236   76233      66   76239   76233
      66   76239   76236      67   76248   76245      66   76251   76245      66
   76251   76248      67   76260   76257      66   76263   76257      66   76263
   76260      67   76272   76269      66   76275   76269      66   76275   76272
      67   76284   76281      66   76287   76281      66   76287   76284      67
   76296   76293      66   76299   76293      66   76299   76296      67   76308
   76305      66   76311   76305      66   76311   76308      67   76320   76317
      66   76323   76317      66   76323   76320      67   76332   76329      66
   76335   76329      66   76335   76332      67   76344   76341      66   76347
   76341      66   76347   76344      67   76356   76353      66   76359   76353
      66   76359   76356      67   76368   76365      66   76371   76365      66
   76371   76368      67   76380   76377      66   76383   76377      66   76383
   76380      67   76392   76389      66   76395   76389      66   76395   76392
      67   76404   76401      66   76407   76401      66   76407   76404      67
   76416   76413      66   76419   76413      66   76419   76416      67   76428
   76425      66   76431   76425      66   76431   76428      67   76440   76437
      66   76443   76437      66   76443   76440      67   76452   76449      66
   76455   76449      66   76455   76452      67   76464   76461      66   76467
   76461      66   76467   76464      67   76476   76473      66   76479   76473
      66   76479   76476      67   76488   76485      66   76491   76485      66
   76491   76488      67   76500   76497      66   76503   76497      66   76503
   76500      67   76512   76509      66   76515   76509      66   76515   76512
      67   76524   76521      66   76527   76521      66   76527   76524      67
   76536   76533      66   76539   76533      66   76539   76536      67   76548
   76545      66   76551   76545      66   76551   76548      67   76560   76557
      66   76563   76557      66   76563   76560      67   76572   76569      66
   76575   76569      66   76575   76572      67   76584   76581      66   76587
   76581      66   76587   76584      67   76596   76593      66   76599   76593
      66   76599   76596      67   76608   76605      66   76611   76605      66
   76611   76608      67   76620   76617      66   76623   76617      66   76623
   76620      67   76632   76629      66   76635   76629      66   76635   76632
      67   76644   76641      66   76647   76641      66   76647   76644      67
   76656   76653      66   76659   76653      66   76659   76656      67   76668
   76665      66   76671   76665      66   76671   76668      67   76680   76677
      66   76683   76677      66   76683   76680      67   76692   76689      66
   76695   76689      66   76695   76692      67   76704   76701      66   76707
   76701      66   76707   76704      67   76716   76713      66   76719   76713
      66   76719   76716      67   76728   76725      66   76731   76725      66
   76731   76728      67   76740   76737      66   76743   76737      66   76743
   76740      67   76752   76749      66   76755   76749      66   76755   76752
      67   76764   76761      66   76767   76761      66   76767   76764      67
   76776   76773      66   76779   76773      66   76779   76776      67   76788
   76785      66   76791   76785      66   76791   76788      67   76800   76797
      66   76803   76797      66   76803   76800      67   76812   76809      66
   76815   76809      66   76815   76812      67   76824   76821      66   76827
   76821      66   76827   76824      67   76836   76833      66   76839   76833
      66   76839   76836      67   76848   76845      66   76851   76845      66
   76851   76848      67   76860   76857      66   76863   76857      66   76863
   76860      67   76872   76869      66   76875   76869      66   76875   76872
      67   76884   76881      66   76887   76881      66   76887   76884      67
   76896   76893      66   76899   76893      66   76899   76896      67   76908
   76905      66   76911   76905      66   76911   76908      67   76920   76917
      66   76923   76917      66   76923   76920      67   76932   76929      66
   76935   76929      66   76935   76932      67   76944   76941      66   76947
   76941      66   76947   76944      67   76956   76953      66   76959   76953
      66   76959   76956      67   76968   76965      66   76971   76965      66
   76971   76968      67   76980   76977      66   76983   76977      66   76983
   76980      67   76992   76989      66   76995   76989      66   76995   76992
      67   77004   77001      66   77007   77001      66   77007   77004      67
   77016   77013      66   77019   77013      66   77019   77016      67   77028
   77025      66   77031   77025      66   77031   77028      67   77040   77037
      66   77043   77037      66   77043   77040      67   77052   77049      66
   77055   77049      66   77055   77052      67   77064   77061      66   77067
   77061      66   77067   77064      67   77076   77073      66   77079   77073
      66   77079   77076      67   77088   77085      66   77091   77085      66
   77091   77088      67   77100   77097      66   77103   77097      66   77103
   77100      67   77112   77109      66   77115   77109      66   77115   77112
      67   77124   77121      66   77127   77121      66   77127   77124      67
   77136   77133      66   77139   77133      66   77139   77136      67   77148
   77145      66   77151   77145      66   77151   77148      67   77160   77157
      66   77163   77157      66   77163   77160      67   77172   77169      66
   77175   77169      66   77175   77172      67   77184   77181      66   77187
   77181      66   77187   77184      67   77196   77193      66   77199   77193
      66   77199   77196      67   77208   77205      66   77211   77205      66
   77211   77208      67   77220   77217      66   77223   77217      66   77223
   77220      67   77232   77229      66   77235   77229      66   77235   77232
      67   77244   77241      66   77247   77241      66   77247   77244      67
   77256   77253      66   77259   77253      66   77259   77256      67   77268
   77265      66   77271   77265      66   77271   77268      67   77280   77277
      66   77283   77277      66   77283   77280      67   77292   77289      66
   77295   77289      66   77295   77292      67   77304   77301      66   77307
   77301      66   77307   77304      67   77316   77313      66   77319   77313
      66   77319   77316      67   77328   77325      66   77331   77325      66
   77331   77328      67   77340   77337      66   77343   77337      66   77343
   77340      67   77352   77349      66   77355   77349      66   77355   77352
      67   77364   77361      66   77367   77361      66   77367   77364      67
   77376   77373      66   77379   77373      66   77379   77376      67   77388
   77385      66   77391   77385      66   77391   77388      67   77400   77397
      66   77403   77397      66   77403   77400      67   77412   77409      66
   77415   77409      66   77415   77412      67   77424   77421      66   77427
   77421      66   77427   77424      67   77436   77433      66   77439   77433
      66   77439   77436      67   77448   77445      66   77451   77445      66
   77451   77448      67   77460   77457      66   77463   77457      66   77463
   77460      67   77472   77469      66   77475   77469      66   77475   77472
      67   77484   77481      66   77487   77481      66   77487   77484      67
   77496   77493      66   77499   77493      66   77499   77496      67   77508
   77505      66   77511   77505      66   77511   77508      67   77520   77517
      66   77523   77517      66   77523   77520      67   77532   77529      66
   77535   77529      66   77535   77532      67   77544   77541      66   77547
   77541      66   77547   77544      67   77556   77553      66   77559   77553
      66   77559   77556      67   77568   77565      66   77571   77565      66
   77571   77568      67   77580   77577      66   77583   77577      66   77583
   77580      67   77592   77589      66   77595   77589      66   77595   77592
      67   77604   77601      66   77607   77601      66   77607   77604      67
   77616   77613      66   77619   77613      66   77619   77616      67   77628
   77625      66   77631   77625      66   77631   77628      67   77640   77637
      66   77643   77637      66   77643   77640      67   77652   77649      66
   77655   77649      66   77655   77652      67   77664   77661      66   77667
   77661      66   77667   77664      67   77676   77673      66   77679   77673
      66   77679   77676      67   77688   77685      66   77691   77685      66
   77691   77688      67   77700   77697      66   77703   77697      66   77703
   77700      67   77712   77709      66   77715   77709      66   77715   77712
      67   77724   77721      66   77727   77721      66   77727   77724      67
   77736   77733      66   77739   77733      66   77739   77736      67   77748
   77745      66   77751   77745      66   77751   77748      67   77760   77757
      66   77763   77757      66   77763   77760      67   77772   77769      66
   77775   77769      66   77775   77772      67   77784   77781      66   77787
   77781      66   77787   77784      67   77796   77793      66   77799   77793
      66   77799   77796      67   77808   77805      66   77811   77805      66
   77811   77808      67   77820   77817      66   77823   77817      66   77823
   77820      67   77832   77829      66   77835   77829      66   77835   77832
      67   77844   77841      66   77847   77841      66   77847   77844      67
   77856   77853      66   77859   77853      66   77859   77856      67   77868
   77865      66   77871   77865      66   77871   77868      67   77880   77877
      66   77883   77877      66   77883   77880      67   77892   77889      66
   77895   77889      66   77895   77892      67   77904   77901      66   77907
   77901      66   77907   77904      67   77916   77913      66   77919   77913
      66   77919   77916      67   77928   77925      66   77931   77925      66
   77931   77928      67   77940   77937      66   77943   77937      66   77943
   77940      67   77952   77949      66   77955   77949      66   77955   77952
      67   77964   77961      66   77967   77961      66   77967   77964      67
   77976   77973      66   77979   77973      66   77979   77976      67   77988
   77985      66   77991   77985      66   77991   77988      67   78000   77997
      66   78003   77997      66   78003   78000      67   78012   78009      66
   78015   78009      66   78015   78012      67   78024   78021      66   78027
   78021      66   78027   78024      67   78036   78033      66   78039   78033
      66   78039   78036      67   78048   78045      66   78051   78045      66
   78051   78048      67   78060   78057      66   78063   78057      66   78063
   78060      67   78072   78069      66   78075   78069      66   78075   78072
      67   78084   78081      66   78087   78081      66   78087   78084      67
   78096   78093      66   78099   78093      66   78099   78096      67   78108
   78105      66   78111   78105      66   78111   78108      67   78120   78117
      66   78123   78117      66   78123   78120      67   78132   78129      66
   78135   78129      66   78135   78132      67   78144   78141      66   78147
   78141      66   78147   78144      67   78156   78153      66   78159   78153
      66   78159   78156      67   78168   78165      66   78171   78165      66
   78171   78168      67   78180   78177      66   78183   78177      66   78183
   78180      67   78192   78189      66   78195   78189      66   78195   78192
      67   78204   78201      66   78207   78201      66   78207   78204      67
   78216   78213      66   78219   78213      66   78219   78216      67   78228
   78225      66   78231   78225      66   78231   78228      67   78240   78237
      66   78243   78237      66   78243   78240      67   78252   78249      66
   78255   78249      66   78255   78252      67   78264   78261      66   78267
   78261      66   78267   78264      67   78276   78273      66   78279   78273
      66   78279   78276      67   78288   78285      66   78291   78285      66
   78291   78288      67   78300   78297      66   78303   78297      66   78303
   78300      67   78312   78309      66   78315   78309      66   78315   78312
      67   78324   78321      66   78327   78321      66   78327   78324      67
   78336   78333      66   78339   78333      66   78339   78336      67   78348
   78345      66   78351   78345      66   78351   78348      67   78360   78357
      66   78363   78357      66   78363   78360      67   78372   78369      66
   78375   78369      66   78375   78372      67   78384   78381      66   78387
   78381      66   78387   78384      67   78396   78393      66   78399   78393
      66   78399   78396      67   78408   78405      66   78411   78405      66
   78411   78408      67   78420   78417      66   78423   78417      66   78423
   78420      67   78432   78429      66   78435   78429      66   78435   78432
      67   78444   78441      66   78447   78441      66   78447   78444      67
   78456   78453      66   78459   78453      66   78459   78456      67   78468
   78465      66   78471   78465      66   78471   78468      67   78480   78477
      66   78483   78477      66   78483   78480      67   78492   78489      66
   78495   78489      66   78495   78492      67   78504   78501      66   78507
   78501      66   78507   78504      67   78516   78513      66   78519   78513
      66   78519   78516      67   78528   78525      66   78531   78525      66
   78531   78528      67   78540   78537      66   78543   78537      66   78543
   78540      67   78552   78549      66   78555   78549      66   78555   78552
      67   78564   78561      66   78567   78561      66   78567   78564      67
   78576   78573      66   78579   78573      66   78579   78576      67   78588
   78585      66   78591   78585      66   78591   78588      67   78600   78597
      66   78603   78597      66   78603   78600      67   78612   78609      66
   78615   78609      66   78615   78612      67   78624   78621      66   78627
   78621      66   78627   78624      67   78636   78633      66   78639   78633
      66   78639   78636      67   78648   78645      66   78651   78645      66
   78651   78648      67   78660   78657      66   78663   78657      66   78663
   78660      67   78672   78669      66   78675   78669      66   78675   78672
      67   78684   78681      66   78687   78681      66   78687   78684      67
   78696   78693      66   78699   78693      66   78699   78696      67   78708
   78705      66   78711   78705      66   78711   78708      67   78720   78717
      66   78723   78717      66   78723   78720      67   78732   78729      66
   78735   78729      66   78735   78732      67   78744   78741      66   78747
   78741      66   78747   78744      67   78756   78753      66   78759   78753
      66   78759   78756      67   78768   78765      66   78771   78765      66
   78771   78768      67   78780   78777      66   78783   78777      66   78783
   78780      67   78792   78789      66   78795   78789      66   78795   78792
      67   78804   78801      66   78807   78801      66   78807   78804      67
   78816   78813      66   78819   78813      66   78819   78816      67   78828
   78825      66   78831   78825      66   78831   78828      67   78840   78837
      66   78843   78837      66   78843   78840      67   78852   78849      66
   78855   78849      66   78855   78852      67   78864   78861      66   78867
   78861      66   78867   78864      67   78876   78873      66   78879   78873
      66   78879   78876      67   78888   78885      66   78891   78885      66
   78891   78888      67   78900   78897      66   78903   78897      66   78903
   78900      67   78912   78909      66   78915   78909      66   78915   78912
      67   78924   78921      66   78927   78921      66   78927   78924      67
   78936   78933      66   78939   78933      66   78939   78936      67   78948
   78945      66   78951   78945      66   78951   78948      67   78960   78957
      66   78963   78957      66   78963   78960      67   78972   78969      66
   78975   78969      66   78975   78972      67   78984   78981      66   78987
   78981      66   78987   78984      67   78996   78993      66   78999   78993
      66   78999   78996      67   79008   79005      66   79011   79005      66
   79011   79008      67   79020   79017      66   79023   79017      66   79023
   79020      67   79032   79029      66   79035   79029      66   79035   79032
      67   79044   79041      66   79047   79041      66   79047   79044      67
   79056   79053      66   79059   79053      66   79059   79056      67   79068
   79065      66   79071   79065      66   79071   79068      67   79080   79077
      66   79083   79077      66   79083   79080      67   79092   79089      66
   79095   79089      66   79095   79092      67   79104   79101      66   79107
   79101      66   79107   79104      67   79116   79113      66   79119   79113
      66   79119   79116      67   79128   79125      66   79131   79125      66
   79131   79128      67   79140   79137      66   79143   79137      66   79143
   79140      67   79152   79149      66   79155   79149      66   79155   79152
      67   79164   79161      66   79167   79161      66   79167   79164      67
   79176   79173      66   79179   79173      66   79179   79176      67   79188
   79185      66   79191   79185      66   79191   79188      67   79200   79197
      66   79203   79197      66   79203   79200      67   79212   79209      66
   79215   79209      66   79215   79212      67   79224   79221      66   79227
   79221      66   79227   79224      67   79236   79233      66   79239   79233
      66   79239   79236      67   79248   79245      66   79251   79245      66
   79251   79248      67   79260   79257      66   79263   79257      66   79263
   79260      67   79272   79269      66   79275   79269      66   79275   79272
      67   79284   79281      66   79287   79281      66   79287   79284      67
   79296   79293      66   79299   79293      66   79299   79296      67   79308
   79305      66   79311   79305      66   79311   79308      67   79320   79317
      66   79323   79317      66   79323   79320      67   79332   79329      66
   79335   79329      66   79335   79332      67   79344   79341      66   79347
   79341      66   79347   79344      67   79356   79353      66   79359   79353
      66   79359   79356      67   79368   79365      66   79371   79365      66
   79371   79368      67   79380   79377      66   79383   79377      66   79383
   79380      67   79392   79389      66   79395   79389      66   79395   79392
      67   79404   79401      66   79407   79401      66   79407   79404      67
   79416   79413      66   79419   79413      66   79419   79416      67   79428
   79425      66   79431   79425      66   79431   79428      67   79440   79437
      66   79443   79437      66   79443   79440      67   79452   79449      66
   79455   79449      66   79455   79452      67   79464   79461      66   79467
   79461      66   79467   79464      67   79476   79473      66   79479   79473
      66   79479   79476      67   79488   79485      66   79491   79485      66
   79491   79488      67   79500   79497      66   79503   79497      66   79503
   79500      67   79512   79509      66   79515   79509      66   79515   79512
      67   79524   79521      66   79527   79521      66   79527   79524      67
   79536   79533      66   79539   79533      66   79539   79536      67   79548
   79545      66   79551   79545      66   79551   79548      67   79560   79557
      66   79563   79557      66   79563   79560      67   79572   79569      66
   79575   79569      66   79575   79572      67   79584   79581      66   79587
   79581      66   79587   79584      67   79596   79593      66   79599   79593
      66   79599   79596      67   79608   79605      66   79611   79605      66
   79611   79608      67   79620   79617      66   79623   79617      66   79623
   79620      67   79632   79629      66   79635   79629      66   79635   79632
      67   79644   79641      66   79647   79641      66   79647   79644      67
   79656   79653      66   79659   79653      66   79659   79656      67   79668
   79665      66   79671   79665      66   79671   79668      67   79680   79677
      66   79683   79677      66   79683   79680      67   79692   79689      66
   79695   79689      66   79695   79692      67   79704   79701      66   79707
   79701      66   79707   79704      67   79716   79713      66   79719   79713
      66   79719   79716      67   79728   79725      66   79731   79725      66
   79731   79728      67   79740   79737      66   79743   79737      66   79743
   79740      67   79752   79749      66   79755   79749      66   79755   79752
      67   79764   79761      66   79767   79761      66   79767   79764      67
   79776   79773      66   79779   79773      66   79779   79776      67   79788
   79785      66   79791   79785      66   79791   79788      67   79800   79797
      66   79803   79797      66   79803   79800      67   79812   79809      66
   79815   79809      66   79815   79812      67   79824   79821      66   79827
   79821      66   79827   79824      67   79836   79833      66   79839   79833
      66   79839   79836      67   79848   79845      66   79851   79845      66
   79851   79848      67   79860   79857      66   79863   79857      66   79863
   79860      67   79872   79869      66   79875   79869      66   79875   79872
      67   79884   79881      66   79887   79881      66   79887   79884      67
   79896   79893      66   79899   79893      66   79899   79896      67   79908
   79905      66   79911   79905      66   79911   79908      67   79920   79917
      66   79923   79917      66   79923   79920      67   79932   79929      66
   79935   79929      66   79935   79932      67   79944   79941      66   79947
   79941      66   79947   79944      67   79956   79953      66   79959   79953
      66   79959   79956      67   79968   79965      66   79971   79965      66
   79971   79968      67   79980   79977      66   79983   79977      66   79983
   79980      67   79992   79989      66   79995   79989      66   79995   79992
      67   80004   80001      66   80007   80001      66   80007   80004      67
   80016   80013      66   80019   80013      66   80019   80016      67   80028
   80025      66   80031   80025      66   80031   80028      67   80040   80037
      66   80043   80037      66   80043   80040      67   80052   80049      66
   80055   80049      66   80055   80052      67   80064   80061      66   80067
   80061      66   80067   80064      67   80076   80073      66   80079   80073
      66   80079   80076      67   80088   80085      66   80091   80085      66
   80091   80088      67   80100   80097      66   80103   80097      66   80103
   80100      67   80112   80109      66   80115   80109      66   80115   80112
      67   80124   80121      66   80127   80121      66   80127   80124      67
   80136   80133      66   80139   80133      66   80139   80136      67   80148
   80145      66   80151   80145      66   80151   80148      67   80160   80157
      66   80163   80157      66   80163   80160      67   80172   80169      66
   80175   80169      66   80175   80172      67   80184   80181      66   80187
   80181      66   80187   80184      67   80196   80193      66   80199   80193
      66   80199   80196      67   80208   80205      66   80211   80205      66
   80211   80208      67   80220   80217      66   80223   80217      66   80223
   80220      67   80232   80229      66   80235   80229      66   80235   80232
      67   80244   80241      66   80247   80241      66   80247   80244      67
   80256   80253      66   80259   80253      66   80259   80256      67   80268
   80265      66   80271   80265      66   80271   80268      67   80280   80277
      66   80283   80277      66   80283   80280      67   80292   80289      66
   80295   80289      66   80295   80292      67   80304   80301      66   80307
   80301      66   80307   80304      67   80316   80313      66   80319   80313
      66   80319   80316      67   80328   80325      66   80331   80325      66
   80331   80328      67   80340   80337      66   80343   80337      66   80343
   80340      67   80352   80349      66   80355   80349      66   80355   80352
      67   80364   80361      66   80367   80361      66   80367   80364      67
   80376   80373      66   80379   80373      66   80379   80376      67   80388
   80385      66   80391   80385      66   80391   80388      67   80400   80397
      66   80403   80397      66   80403   80400      67   80412   80409      66
   80415   80409      66   80415   80412      67   80424   80421      66   80427
   80421      66   80427   80424      67   80436   80433      66   80439   80433
      66   80439   80436      67   80448   80445      66   80451   80445      66
   80451   80448      67   80460   80457      66   80463   80457      66   80463
   80460      67   80472   80469      66   80475   80469      66   80475   80472
      67   80484   80481      66   80487   80481      66   80487   80484      67
   80496   80493      66   80499   80493      66   80499   80496      67   80508
   80505      66   80511   80505      66   80511   80508      67   80520   80517
      66   80523   80517      66   80523   80520      67   80532   80529      66
   80535   80529      66   80535   80532      67   80544   80541      66   80547
   80541      66   80547   80544      67   80556   80553      66   80559   80553
      66   80559   80556      67   80568   80565      66   80571   80565      66
   80571   80568      67   80580   80577      66   80583   80577      66   80583
   80580      67   80592   80589      66   80595   80589      66   80595   80592
      67   80604   80601      66   80607   80601      66   80607   80604      67
   80616   80613      66   80619   80613      66   80619   80616      67   80628
   80625      66   80631   80625      66   80631   80628      67   80640   80637
      66   80643   80637      66   80643   80640      67   80652   80649      66
   80655   80649      66   80655   80652      67   80664   80661      66   80667
   80661      66   80667   80664      67   80676   80673      66   80679   80673
      66   80679   80676      67   80688   80685      66   80691   80685      66
   80691   80688      67   80700   80697      66   80703   80697      66   80703
   80700      67   80712   80709      66   80715   80709      66   80715   80712
      67   80724   80721      66   80727   80721      66   80727   80724      67
   80736   80733      66   80739   80733      66   80739   80736      67   80748
   80745      66   80751   80745      66   80751   80748      67   80760   80757
      66   80763   80757      66   80763   80760      67   80772   80769      66
   80775   80769      66   80775   80772      67   80784   80781      66   80787
   80781      66   80787   80784      67   80796   80793      66   80799   80793
      66   80799   80796      67   80808   80805      66   80811   80805      66
   80811   80808      67   80820   80817      66   80823   80817      66   80823
   80820      67   80832   80829      66   80835   80829      66   80835   80832
      67   80844   80841      66   80847   80841      66   80847   80844      67
   80856   80853      66   80859   80853      66   80859   80856      67   80868
   80865      66   80871   80865      66   80871   80868      67   80880   80877
      66   80883   80877      66   80883   80880      67   80892   80889      66
   80895   80889      66   80895   80892      67   80904   80901      66   80907
   80901      66   80907   80904      67   80916   80913      66   80919   80913
      66   80919   80916      67   80928   80925      66   80931   80925      66
   80931   80928      67   80940   80937      66   80943   80937      66   80943
   80940      67   80952   80949      66   80955   80949      66   80955   80952
      67   80964   80961      66   80967   80961      66   80967   80964      67
   80976   80973      66   80979   80973      66   80979   80976      67   80988
   80985      66   80991   80985      66   80991   80988      67   81000   80997
      66   81003   80997      66   81003   81000      67   81012   81009      66
   81015   81009      66   81015   81012      67   81024   81021      66   81027
   81021      66   81027   81024      67   81036   81033      66   81039   81033
      66   81039   81036      67   81048   81045      66   81051   81045      66
   81051   81048      67   81060   81057      66   81063   81057      66   81063
   81060      67   81072   81069      66   81075   81069      66   81075   81072
      67   81084   81081      66   81087   81081      66   81087   81084      67
   81096   81093      66   81099   81093      66   81099   81096      67   81108
   81105      66   81111   81105      66   81111   81108      67   81120   81117
      66   81123   81117      66   81123   81120      67   81132   81129      66
   81135   81129      66   81135   81132      67   81144   81141      66   81147
   81141      66   81147   81144      67   81156   81153      66   81159   81153
      66   81159   81156      67   81168   81165      66   81171   81165      66
   81171   81168      67   81180   81177      66   81183   81177      66   81183
   81180      67   81192   81189      66   81195   81189      66   81195   81192
      67   81204   81201      66   81207   81201      66   81207   81204      67
   81216   81213      66   81219   81213      66   81219   81216      67   81228
   81225      66   81231   81225      66   81231   81228      67   81240   81237
      66   81243   81237      66   81243   81240      67   81252   81249      66
   81255   81249      66   81255   81252      67   81264   81261      66   81267
   81261      66   81267   81264      67   81276   81273      66   81279   81273
      66   81279   81276      67   81288   81285      66   81291   81285      66
   81291   81288      67   81300   81297      66   81303   81297      66   81303
   81300      67   81312   81309      66   81315   81309      66   81315   81312
      67   81324   81321      66   81327   81321      66   81327   81324      67
   81336   81333      66   81339   81333      66   81339   81336      67   81348
   81345      66   81351   81345      66   81351   81348      67   81360   81357
      66   81363   81357      66   81363   81360      67   81372   81369      66
   81375   81369      66   81375   81372      67   81384   81381      66   81387
   81381      66   81387   81384      67   81396   81393      66   81399   81393
      66   81399   81396      67   81408   81405      66   81411   81405      66
   81411   81408      67   81420   81417      66   81423   81417      66   81423
   81420      67   81432   81429      66   81435   81429      66   81435   81432
      67   81444   81441      66   81447   81441      66   81447   81444      67
   81456   81453      66   81459   81453      66   81459   81456      67   81468
   81465      66   81471   81465      66   81471   81468      67   81480   81477
      66   81483   81477      66   81483   81480      67   81492   81489      66
   81495   81489      66   81495   81492      67   81504   81501      66   81507
   81501      66   81507   81504      67   81516   81513      66   81519   81513
      66   81519   81516      67   81528   81525      66   81531   81525      66
   81531   81528      67   81540   81537      66   81543   81537      66   81543
   81540      67   81552   81549      66   81555   81549      66   81555   81552
      67   81564   81561      66   81567   81561      66   81567   81564      67
   81576   81573      66   81579   81573      66   81579   81576      67   81588
   81585      66   81591   81585      66   81591   81588      67   81600   81597
      66   81603   81597      66   81603   81600      67   81612   81609      66
   81615   81609      66   81615   81612      67   81624   81621      66   81627
   81621      66   81627   81624      67   81636   81633      66   81639   81633
      66   81639   81636      67   81648   81645      66   81651   81645      66
   81651   81648      67   81660   81657      66   81663   81657      66   81663
   81660      67   81672   81669      66   81675   81669      66   81675   81672
      67   81684   81681      66   81687   81681      66   81687   81684      67
   81696   81693      66   81699   81693      66   81699   81696      67   81708
   81705      66   81711   81705      66   81711   81708      67   81720   81717
      66   81723   81717      66   81723   81720      67   81732   81729      66
   81735   81729      66   81735   81732      67   81744   81741      66   81747
   81741      66   81747   81744      67   81756   81753      66   81759   81753
      66   81759   81756      67   81768   81765      66   81771   81765      66
   81771   81768      67   81780   81777      66   81783   81777      66   81783
   81780      67   81792   81789      66   81795   81789      66   81795   81792
      67   81804   81801      66   81807   81801      66   81807   81804      67
   81816   81813      66   81819   81813      66   81819   81816      67   81828
   81825      66   81831   81825      66   81831   81828      67   81840   81837
      66   81843   81837      66   81843   81840      67   81852   81849      66
   81855   81849      66   81855   81852      67   81864   81861      66   81867
   81861      66   81867   81864      67   81876   81873      66   81879   81873
      66   81879   81876      67   81888   81885      66   81891   81885      66
   81891   81888      67   81900   81897      66   81903   81897      66   81903
   81900      67   81912   81909      66   81915   81909      66   81915   81912
      67   81924   81921      66   81927   81921      66   81927   81924      67
   81936   81933      66   81939   81933      66   81939   81936      67   81948
   81945      66   81951   81945      66   81951   81948      67   81960   81957
      66   81963   81957      66   81963   81960      67   81972   81969      66
   81975   81969      66   81975   81972      67   81984   81981      66   81987
   81981      66   81987   81984      67   81996   81993      66   81999   81993
      66   81999   81996      67   82008   82005      66   82011   82005      66
   82011   82008      67   82020   82017      66   82023   82017      66   82023
   82020      67   82032   82029      66   82035   82029      66   82035   82032
      67   82044   82041      66   82047   82041      66   82047   82044      67
   82056   82053      66   82059   82053      66   82059   82056      67   82068
   82065      66   82071   82065      66   82071   82068      67   82080   82077
      66   82083   82077      66   82083   82080      67   82092   82089      66
   82095   82089      66   82095   82092      67   82104   82101      66   82107
   82101      66   82107   82104      67   82116   82113      66   82119   82113
      66   82119   82116      67   82128   82125      66   82131   82125      66
   82131   82128      67   82140   82137      66   82143   82137      66   82143
   82140      67   82152   82149      66   82155   82149      66   82155   82152
      67   82164   82161      66   82167   82161      66   82167   82164      67
   82176   82173      66   82179   82173      66   82179   82176      67   82188
   82185      66   82191   82185      66   82191   82188      67   82200   82197
      66   82203   82197      66   82203   82200      67   82212   82209      66
   82215   82209      66   82215   82212      67   82224   82221      66   82227
   82221      66   82227   82224      67   82236   82233      66   82239   82233
      66   82239   82236      67   82248   82245      66   82251   82245      66
   82251   82248      67   82260   82257      66   82263   82257      66   82263
   82260      67   82272   82269      66   82275   82269      66   82275   82272
      67   82284   82281      66   82287   82281      66   82287   82284      67
   82296   82293      66   82299   82293      66   82299   82296      67   82308
   82305      66   82311   82305      66   82311   82308      67   82320   82317
      66   82323   82317      66   82323   82320      67   82332   82329      66
   82335   82329      66   82335   82332      67   82344   82341      66   82347
   82341      66   82347   82344      67   82356   82353      66   82359   82353
      66   82359   82356      67   82368   82365      66   82371   82365      66
   82371   82368      67   82380   82377      66   82383   82377      66   82383
   82380      67   82392   82389      66   82395   82389      66   82395   82392
      67   82404   82401      66   82407   82401      66   82407   82404      67
   82416   82413      66   82419   82413      66   82419   82416      67   82428
   82425      66   82431   82425      66   82431   82428      67   82440   82437
      66   82443   82437      66   82443   82440      67   82452   82449      66
   82455   82449      66   82455   82452      67   82464   82461      66   82467
   82461      66   82467   82464      67   82476   82473      66   82479   82473
      66   82479   82476      67   82488   82485      66   82491   82485      66
   82491   82488      67   82500   82497      66   82503   82497      66   82503
   82500      67   82512   82509      66   82515   82509      66   82515   82512
      67   82524   82521      66   82527   82521      66   82527   82524      67
   82536   82533      66   82539   82533      66   82539   82536      67   82548
   82545      66   82551   82545      66   82551   82548      67   82560   82557
      66   82563   82557      66   82563   82560      67   82572   82569      66
   82575   82569      66   82575   82572      67   82584   82581      66   82587
   82581      66   82587   82584      67   82596   82593      66   82599   82593
      66   82599   82596      67   82608   82605      66   82611   82605      66
   82611   82608      67   82620   82617      66   82623   82617      66   82623
   82620      67   82632   82629      66   82635   82629      66   82635   82632
      67   82644   82641      66   82647   82641      66   82647   82644      67
   82656   82653      66   82659   82653      66   82659   82656      67   82668
   82665      66   82671   82665      66   82671   82668      67   82680   82677
      66   82683   82677      66   82683   82680      67   82692   82689      66
   82695   82689      66   82695   82692      67   82704   82701      66   82707
   82701      66   82707   82704      67   82716   82713      66   82719   82713
      66   82719   82716      67   82728   82725      66   82731   82725      66
   82731   82728      67   82740   82737      66   82743   82737      66   82743
   82740      67   82752   82749      66   82755   82749      66   82755   82752
      67   82764   82761      66   82767   82761      66   82767   82764      67
   82776   82773      66   82779   82773      66   82779   82776      67   82788
   82785      66   82791   82785      66   82791   82788      67   82800   82797
      66   82803   82797      66   82803   82800      67   82812   82809      66
   82815   82809      66   82815   82812      67   82824   82821      66   82827
   82821      66   82827   82824      67   82836   82833      66   82839   82833
      66   82839   82836      67   82848   82845      66   82851   82845      66
   82851   82848      67   82860   82857      66   82863   82857      66   82863
   82860      67   82872   82869      66   82875   82869      66   82875   82872
      67   82884   82881      66   82887   82881      66   82887   82884      67
   82896   82893      66   82899   82893      66   82899   82896      67   82908
   82905      66   82911   82905      66   82911   82908      67   82920   82917
      66   82923   82917      66   82923   82920      67   82932   82929      66
   82935   82929      66   82935   82932      67   82944   82941      66   82947
   82941      66   82947   82944      67   82956   82953      66   82959   82953
      66   82959   82956      67   82968   82965      66   82971   82965      66
   82971   82968      67   82980   82977      66   82983   82977      66   82983
   82980      67   82992   82989      66   82995   82989      66   82995   82992
      67   83004   83001      66   83007   83001      66   83007   83004      67
   83016   83013      66   83019   83013      66   83019   83016      67   83028
   83025      66   83031   83025      66   83031   83028      67   83040   83037
      66   83043   83037      66   83043   83040      67   83052   83049      66
   83055   83049      66   83055   83052      67   83064   83061      66   83067
   83061      66   83067   83064      67   83076   83073      66   83079   83073
      66   83079   83076      67   83088   83085      66   83091   83085      66
   83091   83088      67   83100   83097      66   83103   83097      66   83103
   83100      67   83112   83109      66   83115   83109      66   83115   83112
      67   83124   83121      66   83127   83121      66   83127   83124      67
   83136   83133      66   83139   83133      66   83139   83136      67   83148
   83145      66   83151   83145      66   83151   83148      67   83160   83157
      66   83163   83157      66   83163   83160      67   83172   83169      66
   83175   83169      66   83175   83172      67   83184   83181      66   83187
   83181      66   83187   83184      67   83196   83193      66   83199   83193
      66   83199   83196      67   83208   83205      66   83211   83205      66
   83211   83208      67   83220   83217      66   83223   83217      66   83223
   83220      67   83232   83229      66   83235   83229      66   83235   83232
      67   83244   83241      66   83247   83241      66   83247   83244      67
   83256   83253      66   83259   83253      66   83259   83256      67   83268
   83265      66   83271   83265      66   83271   83268      67   83280   83277
      66   83283   83277      66   83283   83280      67   83292   83289      66
   83295   83289      66   83295   83292      67   83304   83301      66   83307
   83301      66   83307   83304      67   83316   83313      66   83319   83313
      66   83319   83316      67   83328   83325      66   83331   83325      66
   83331   83328      67   83340   83337      66   83343   83337      66   83343
   83340      67   83352   83349      66   83355   83349      66   83355   83352
      67   83364   83361      66   83367   83361      66   83367   83364      67
   83376   83373      66   83379   83373      66   83379   83376      67   83388
   83385      66   83391   83385      66   83391   83388      67   83400   83397
      66   83403   83397      66   83403   83400      67   83412   83409      66
   83415   83409      66   83415   83412      67   83424   83421      66   83427
   83421      66   83427   83424      67   83436   83433      66   83439   83433
      66   83439   83436      67   83448   83445      66   83451   83445      66
   83451   83448      67   83460   83457      66   83463   83457      66   83463
   83460      67   83472   83469      66   83475   83469      66   83475   83472
      67   83484   83481      66   83487   83481      66   83487   83484      67
   83496   83493      66   83499   83493      66   83499   83496      67   83508
   83505      66   83511   83505      66   83511   83508      67   83520   83517
      66   83523   83517      66   83523   83520      67   83532   83529      66
   83535   83529      66   83535   83532      67   83544   83541      66   83547
   83541      66   83547   83544      67   83556   83553      66   83559   83553
      66   83559   83556      67   83568   83565      66   83571   83565      66
   83571   83568      67   83580   83577      66   83583   83577      66   83583
   83580      67   83592   83589      66   83595   83589      66   83595   83592
      67   83604   83601      66   83607   83601      66   83607   83604      67
   83616   83613      66   83619   83613      66   83619   83616      67   83628
   83625      66   83631   83625      66   83631   83628      67   83640   83637
      66   83643   83637      66   83643   83640      67   83652   83649      66
   83655   83649      66   83655   83652      67   83664   83661      66   83667
   83661      66   83667   83664      67   83676   83673      66   83679   83673
      66   83679   83676      67   83688   83685      66   83691   83685      66
   83691   83688      67   83700   83697      66   83703   83697      66   83703
   83700      67   83712   83709      66   83715   83709      66   83715   83712
      67   83724   83721      66   83727   83721      66   83727   83724      67
   83736   83733      66   83739   83733      66   83739   83736      67   83748
   83745      66   83751   83745      66   83751   83748      67   83760   83757
      66   83763   83757      66   83763   83760      67   83772   83769      66
   83775   83769      66   83775   83772      67   83784   83781      66   83787
   83781      66   83787   83784      67   83796   83793      66   83799   83793
      66   83799   83796      67   83808   83805      66   83811   83805      66
   83811   83808      67   83820   83817      66   83823   83817      66   83823
   83820      67   83832   83829      66   83835   83829      66   83835   83832
      67   83844   83841      66   83847   83841      66   83847   83844      67
   83856   83853      66   83859   83853      66   83859   83856      67   83868
   83865      66   83871   83865      66   83871   83868      67   83880   83877
      66   83883   83877      66   83883   83880      67   83892   83889      66
   83895   83889      66   83895   83892      67   83904   83901      66   83907
   83901      66   83907   83904      67   83916   83913      66   83919   83913
      66   83919   83916      67   83928   83925      66   83931   83925      66
   83931   83928      67   83940   83937      66   83943   83937      66   83943
   83940      67   83952   83949      66   83955   83949      66   83955   83952
      67   83964   83961      66   83967   83961      66   83967   83964      67
   83976   83973      66   83979   83973      66   83979   83976      67   83988
   83985      66   83991   83985      66   83991   83988      67   84000   83997
      66   84003   83997      66   84003   84000      67   84012   84009      66
   84015   84009      66   84015   84012      67   84024   84021      66   84027
   84021      66   84027   84024      67   84036   84033      66   84039   84033
      66   84039   84036      67   84048   84045      66   84051   84045      66
   84051   84048      67   84060   84057      66   84063   84057      66   84063
   84060      67   84072   84069      66   84075   84069      66   84075   84072
      67   84084   84081      66   84087   84081      66   84087   84084      67
   84096   84093      66   84099   84093      66   84099   84096      67   84108
   84105      66   84111   84105      66   84111   84108      67   84120   84117
      66   84123   84117      66   84123   84120      67   84132   84129      66
   84135   84129      66   84135   84132      67   84144   84141      66   84147
   84141      66   84147   84144      67   84156   84153      66   84159   84153
      66   84159   84156      67   84168   84165      66   84171   84165      66
   84171   84168      67   84180   84177      66   84183   84177      66   84183
   84180      67   84192   84189      66   84195   84189      66   84195   84192
      67   84204   84201      66   84207   84201      66   84207   84204      67
   84216   84213      66   84219   84213      66   84219   84216      67   84228
   84225      66   84231   84225      66   84231   84228      67   84240   84237
      66   84243   84237      66   84243   84240      67   84252   84249      66
   84255   84249      66   84255   84252      67   84264   84261      66   84267
   84261      66   84267   84264      67   84276   84273      66   84279   84273
      66   84279   84276      67   84288   84285      66   84291   84285      66
   84291   84288      67   84300   84297      66   84303   84297      66   84303
   84300      67   84312   84309      66   84315   84309      66   84315   84312
      67   84324   84321      66   84327   84321      66   84327   84324      67
   84336   84333      66   84339   84333      66   84339   84336      67   84348
   84345      66   84351   84345      66   84351   84348      67   84360   84357
      66   84363   84357      66   84363   84360      67   84372   84369      66
   84375   84369      66   84375   84372      67   84384   84381      66   84387
   84381      66   84387   84384      67   84396   84393      66   84399   84393
      66   84399   84396      67   84408   84405      66   84411   84405      66
   84411   84408      67   84420   84417      66   84423   84417      66   84423
   84420      67   84432   84429      66   84435   84429      66   84435   84432
      67   84444   84441      66   84447   84441      66   84447   84444      67
   84456   84453      66   84459   84453      66   84459   84456      67   84468
   84465      66   84471   84465      66   84471   84468      67   84480   84477
      66   84483   84477      66   84483   84480      67   84492   84489      66
   84495   84489      66   84495   84492      67   84504   84501      66   84507
   84501      66   84507   84504      67   84516   84513      66   84519   84513
      66   84519   84516      67   84528   84525      66   84531   84525      66
   84531   84528      67   84540   84537      66   84543   84537      66   84543
   84540      67   84552   84549      66   84555   84549      66   84555   84552
      67   84564   84561      66   84567   84561      66   84567   84564      67
   84576   84573      66   84579   84573      66   84579   84576      67   84588
   84585      66   84591   84585      66   84591   84588      67   84600   84597
      66   84603   84597      66   84603   84600      67   84612   84609      66
   84615   84609      66   84615   84612      67   84624   84621      66   84627
   84621      66   84627   84624      67   84636   84633      66   84639   84633
      66   84639   84636      67   84648   84645      66   84651   84645      66
   84651   84648      67   84660   84657      66   84663   84657      66   84663
   84660      67   84672   84669      66   84675   84669      66   84675   84672
      67   84684   84681      66   84687   84681      66   84687   84684      67
   84696   84693      66   84699   84693      66   84699   84696      67   84708
   84705      66   84711   84705      66   84711   84708      67   84720   84717
      66   84723   84717      66   84723   84720      67   84732   84729      66
   84735   84729      66   84735   84732      67   84744   84741      66   84747
   84741      66   84747   84744      67   84756   84753      66   84759   84753
      66   84759   84756      67   84768   84765      66   84771   84765      66
   84771   84768      67   84780   84777      66   84783   84777      66   84783
   84780      67   84792   84789      66   84795   84789      66   84795   84792
      67   84804   84801      66   84807   84801      66   84807   84804      67
   84816   84813      66   84819   84813      66   84819   84816      67   84828
   84825      66   84831   84825      66   84831   84828      67   84840   84837
      66   84843   84837      66   84843   84840      67   84852   84849      66
   84855   84849      66   84855   84852      67   84864   84861      66   84867
   84861      66   84867   84864      67   84876   84873      66   84879   84873
      66   84879   84876      67   84888   84885      66   84891   84885      66
   84891   84888      67   84900   84897      66   84903   84897      66   84903
   84900      67   84912   84909      66   84915   84909      66   84915   84912
      67   84924   84921      66   84927   84921      66   84927   84924      67
   84936   84933      66   84939   84933      66   84939   84936      67   84948
   84945      66   84951   84945      66   84951   84948      67   84960   84957
      66   84963   84957      66   84963   84960      67   84972   84969      66
   84975   84969      66   84975   84972      67   84984   84981      66   84987
   84981      66   84987   84984      67   84996   84993      66   84999   84993
      66   84999   84996      67   85008   85005      66   85011   85005      66
   85011   85008      67   85020   85017      66   85023   85017      66   85023
   85020      67   85032   85029      66   85035   85029      66   85035   85032
      67   85044   85041      66   85047   85041      66   85047   85044      67
   85056   85053      66   85059   85053      66   85059   85056      67   85068
   85065      66   85071   85065      66   85071   85068      67   85080   85077
      66   85083   85077      66   85083   85080      67   85092   85089      66
   85095   85089      66   85095   85092      67   85104   85101      66   85107
   85101      66   85107   85104      67   85116   85113      66   85119   85113
      66   85119   85116      67   85128   85125      66   85131   85125      66
   85131   85128      67   85140   85137      66   85143   85137      66   85143
   85140      67   85152   85149      66   85155   85149      66   85155   85152
      67   85164   85161      66   85167   85161      66   85167   85164      67
   85176   85173      66   85179   85173      66   85179   85176      67   85188
   85185      66   85191   85185      66   85191   85188      67   85200   85197
      66   85203   85197      66   85203   85200      67   85212   85209      66
   85215   85209      66   85215   85212      67   85224   85221      66   85227
   85221      66   85227   85224      67   85236   85233      66   85239   85233
      66   85239   85236      67   85248   85245      66   85251   85245      66
   85251   85248      67   85260   85257      66   85263   85257      66   85263
   85260      67   85272   85269      66   85275   85269      66   85275   85272
      67   85284   85281      66   85287   85281      66   85287   85284      67
   85296   85293      66   85299   85293      66   85299   85296      67   85308
   85305      66   85311   85305      66   85311   85308      67   85320   85317
      66   85323   85317      66   85323   85320      67   85332   85329      66
   85335   85329      66   85335   85332      67   85344   85341      66   85347
   85341      66   85347   85344      67   85356   85353      66   85359   85353
      66   85359   85356      67   85368   85365      66   85371   85365      66
   85371   85368      67   85380   85377      66   85383   85377      66   85383
   85380      67   85392   85389      66   85395   85389      66   85395   85392
      67   85404   85401      66   85407   85401      66   85407   85404      67
   85416   85413      66   85419   85413      66   85419   85416      67   85428
   85425      66   85431   85425      66   85431   85428      67   85440   85437
      66   85443   85437      66   85443   85440      67   85452   85449      66
   85455   85449      66   85455   85452      67   85464   85461      66   85467
   85461      66   85467   85464      67   85476   85473      66   85479   85473
      66   85479   85476      67   85488   85485      66   85491   85485      66
   85491   85488      67   85500   85497      66   85503   85497      66   85503
   85500      67   85512   85509      66   85515   85509      66   85515   85512
      67   85524   85521      66   85527   85521      66   85527   85524      67
   85536   85533      66   85539   85533      66   85539   85536      67   85548
   85545      66   85551   85545      66   85551   85548      67   85560   85557
      66   85563   85557      66   85563   85560      67   85572   85569      66
   85575   85569      66   85575   85572      67   85584   85581      66   85587
   85581      66   85587   85584      67   85596   85593      66   85599   85593
      66   85599   85596      67   85608   85605      66   85611   85605      66
   85611   85608      67   85620   85617      66   85623   85617      66   85623
   85620      67   85632   85629      66   85635   85629      66   85635   85632
      67   85644   85641      66   85647   85641      66   85647   85644      67
   85656   85653      66   85659   85653      66   85659   85656      67   85668
   85665      66   85671   85665      66   85671   85668      67   85680   85677
      66   85683   85677      66   85683   85680      67   85692   85689      66
   85695   85689      66   85695   85692      67   85704   85701      66   85707
   85701      66   85707   85704      67   85716   85713      66   85719   85713
      66   85719   85716      67   85728   85725      66   85731   85725      66
   85731   85728      67   85740   85737      66   85743   85737      66   85743
   85740      67   85752   85749      66   85755   85749      66   85755   85752
      67   85764   85761      66   85767   85761      66   85767   85764      67
   85776   85773      66   85779   85773      66   85779   85776      67   85788
   85785      66   85791   85785      66   85791   85788      67   85800   85797
      66   85803   85797      66   85803   85800      67   85812   85809      66
   85815   85809      66   85815   85812      67   85824   85821      66   85827
   85821      66   85827   85824      67   85836   85833      66   85839   85833
      66   85839   85836      67   85848   85845      66   85851   85845      66
   85851   85848      67   85860   85857      66   85863   85857      66   85863
   85860      67   85872   85869      66   85875   85869      66   85875   85872
      67   85884   85881      66   85887   85881      66   85887   85884      67
   85896   85893      66   85899   85893      66   85899   85896      67   85908
   85905      66   85911   85905      66   85911   85908      67   85920   85917
      66   85923   85917      66   85923   85920      67   85932   85929      66
   85935   85929      66   85935   85932      67   85944   85941      66   85947
   85941      66   85947   85944      67   85956   85953      66   85959   85953
      66   85959   85956      67   85968   85965      66   85971   85965      66
   85971   85968      67   85980   85977      66   85983   85977      66   85983
   85980      67   85992   85989      66   85995   85989      66   85995   85992
      67   86004   86001      66   86007   86001      66   86007   86004      67
   86016   86013      66   86019   86013      66   86019   86016      67   86028
   86025      66   86031   86025      66   86031   86028      67   86040   86037
      66   86043   86037      66   86043   86040      67   86052   86049      66
   86055   86049      66   86055   86052      67   86064   86061      66   86067
   86061      66   86067   86064      67   86076   86073      66   86079   86073
      66   86079   86076      67   86088   86085      66   86091   86085      66
   86091   86088      67   86100   86097      66   86103   86097      66   86103
   86100      67   86112   86109      66   86115   86109      66   86115   86112
      67   86124   86121      66   86127   86121      66   86127   86124      67
   86136   86133      66   86139   86133      66   86139   86136      67   86148
   86145      66   86151   86145      66   86151   86148      67   86160   86157
      66   86163   86157      66   86163   86160      67   86172   86169      66
   86175   86169      66   86175   86172      67   86184   86181      66   86187
   86181      66   86187   86184      67   86196   86193      66   86199   86193
      66   86199   86196      67   86208   86205      66   86211   86205      66
   86211   86208      67   86220   86217      66   86223   86217      66   86223
   86220      67   86232   86229      66   86235   86229      66   86235   86232
      67   86244   86241      66   86247   86241      66   86247   86244      67
   86256   86253      66   86259   86253      66   86259   86256      67   86268
   86265      66   86271   86265      66   86271   86268      67   86280   86277
      66   86283   86277      66   86283   86280      67   86292   86289      66
   86295   86289      66   86295   86292      67   86304   86301      66   86307
   86301      66   86307   86304      67   86316   86313      66   86319   86313
      66   86319   86316      67   86328   86325      66   86331   86325      66
   86331   86328      67   86340   86337      66   86343   86337      66   86343
   86340      67   86352   86349      66   86355   86349      66   86355   86352
      67   86364   86361      66   86367   86361      66   86367   86364      67
   86376   86373      66   86379   86373      66   86379   86376      67   86388
   86385      66   86391   86385      66   86391   86388      67   86400   86397
      66   86403   86397      66   86403   86400      67   86412   86409      66
   86415   86409      66   86415   86412      67   86424   86421      66   86427
   86421      66   86427   86424      67   86436   86433      66   86439   86433
      66   86439   86436      67   86448   86445      66   86451   86445      66
   86451   86448      67   86460   86457      66   86463   86457      66   86463
   86460      67   86472   86469      66   86475   86469      66   86475   86472
      67   86484   86481      66   86487   86481      66   86487   86484      67
   86496   86493      66   86499   86493      66   86499   86496      67   86508
   86505      66   86511   86505      66   86511   86508      67   86520   86517
      66   86523   86517      66   86523   86520      67   86532   86529      66
   86535   86529      66   86535   86532      67   86544   86541      66   86547
   86541      66   86547   86544      67   86556   86553      66   86559   86553
      66   86559   86556      67   86568   86565      66   86571   86565      66
   86571   86568      67   86580   86577      66   86583   86577      66   86583
   86580      67   86592   86589      66   86595   86589      66   86595   86592
      67   86604   86601      66   86607   86601      66   86607   86604      67
   86616   86613      66   86619   86613      66   86619   86616      67   86628
   86625      66   86631   86625      66   86631   86628      67   86640   86637
      66   86643   86637      66   86643   86640      67   86652   86649      66
   86655   86649      66   86655   86652      67   86664   86661      66   86667
   86661      66   86667   86664      67   86676   86673      66   86679   86673
      66   86679   86676      67   86688   86685      66   86691   86685      66
   86691   86688      67   86700   86697      66   86703   86697      66   86703
   86700      67   86712   86709      66   86715   86709      66   86715   86712
      67   86724   86721      66   86727   86721      66   86727   86724      67
   86736   86733      66   86739   86733      66   86739   86736      67   86748
   86745      66   86751   86745      66   86751   86748      67   86760   86757
      66   86763   86757      66   86763   86760      67   86772   86769      66
   86775   86769      66   86775   86772      67   86784   86781      66   86787
   86781      66   86787   86784      67   86796   86793      66   86799   86793
      66   86799   86796      67   86808   86805      66   86811   86805      66
   86811   86808      67   86820   86817      66   86823   86817      66   86823
   86820      67   86832   86829      66   86835   86829      66   86835   86832
      67   86844   86841      66   86847   86841      66   86847   86844      67
   86856   86853      66   86859   86853      66   86859   86856      67   86868
   86865      66   86871   86865      66   86871   86868      67   86880   86877
      66   86883   86877      66   86883   86880      67   86892   86889      66
   86895   86889      66   86895   86892      67   86904   86901      66   86907
   86901      66   86907   86904      67   86916   86913      66   86919   86913
      66   86919   86916      67   86928   86925      66   86931   86925      66
   86931   86928      67   86940   86937      66   86943   86937      66   86943
   86940      67   86952   86949      66   86955   86949      66   86955   86952
      67   86964   86961      66   86967   86961      66   86967   86964      67
   86976   86973      66   86979   86973      66   86979   86976      67   86988
   86985      66   86991   86985      66   86991   86988      67   87000   86997
      66   87003   86997      66   87003   87000      67   87012   87009      66
   87015   87009      66   87015   87012      67   87024   87021      66   87027
   87021      66   87027   87024      67   87036   87033      66   87039   87033
      66   87039   87036      67   87048   87045      66   87051   87045      66
   87051   87048      67   87060   87057      66   87063   87057      66   87063
   87060      67   87072   87069      66   87075   87069      66   87075   87072
      67   87084   87081      66   87087   87081      66   87087   87084      67
   87096   87093      66   87099   87093      66   87099   87096      67   87108
   87105      66   87111   87105      66   87111   87108      67   87120   87117
      66   87123   87117      66   87123   87120      67   87132   87129      66
   87135   87129      66   87135   87132      67   87144   87141      66   87147
   87141      66   87147   87144      67   87156   87153      66   87159   87153
      66   87159   87156      67   87168   87165      66   87171   87165      66
   87171   87168      67   87180   87177      66   87183   87177      66   87183
   87180      67   87192   87189      66   87195   87189      66   87195   87192
      67   87204   87201      66   87207   87201      66   87207   87204      67
   87216   87213      66   87219   87213      66   87219   87216      67   87228
   87225      66   87231   87225      66   87231   87228      67   87240   87237
      66   87243   87237      66   87243   87240      67   87252   87249      66
   87255   87249      66   87255   87252      67   87264   87261      66   87267
   87261      66   87267   87264      67   87276   87273      66   87279   87273
      66   87279   87276      67   87288   87285      66   87291   87285      66
   87291   87288      67   87300   87297      66   87303   87297      66   87303
   87300      67   87312   87309      66   87315   87309      66   87315   87312
      67   87324   87321      66   87327   87321      66   87327   87324      67
   87336   87333      66   87339   87333      66   87339   87336      67   87348
   87345      66   87351   87345      66   87351   87348      67   87360   87357
      66   87363   87357      66   87363   87360      67   87372   87369      66
   87375   87369      66   87375   87372      67   87384   87381      66   87387
   87381      66   87387   87384      67   87396   87393      66   87399   87393
      66   87399   87396      67   87408   87405      66   87411   87405      66
   87411   87408      67   87420   87417      66   87423   87417      66   87423
   87420      67   87432   87429      66   87435   87429      66   87435   87432
      67   87444   87441      66   87447   87441      66   87447   87444      67
   87456   87453      66   87459   87453      66   87459   87456      67   87468
   87465      66   87471   87465      66   87471   87468      67   87480   87477
      66   87483   87477      66   87483   87480      67   87492   87489      66
   87495   87489      66   87495   87492      67   87504   87501      66   87507
   87501      66   87507   87504      67   87516   87513      66   87519   87513
      66   87519   87516      67   87528   87525      66   87531   87525      66
   87531   87528      67   87540   87537      66   87543   87537      66   87543
   87540      67   87552   87549      66   87555   87549      66   87555   87552
      67   87564   87561      66   87567   87561      66   87567   87564      67
   87576   87573      66   87579   87573      66   87579   87576      67   87588
   87585      66   87591   87585      66   87591   87588      67   87600   87597
      66   87603   87597      66   87603   87600      67   87612   87609      66
   87615   87609      66   87615   87612      67   87624   87621      66   87627
   87621      66   87627   87624      67   87636   87633      66   87639   87633
      66   87639   87636      67   87648   87645      66   87651   87645      66
   87651   87648      67   87660   87657      66   87663   87657      66   87663
   87660      67   87672   87669      66   87675   87669      66   87675   87672
      67   87684   87681      66   87687   87681      66   87687   87684      67
   87696   87693      66   87699   87693      66   87699   87696      67   87708
   87705      66   87711   87705      66   87711   87708      67   87720   87717
      66   87723   87717      66   87723   87720      67   87732   87729      66
   87735   87729      66   87735   87732      67   87744   87741      66   87747
   87741      66   87747   87744      67   87756   87753      66   87759   87753
      66   87759   87756      67   87768   87765      66   87771   87765      66
   87771   87768      67   87780   87777      66   87783   87777      66   87783
   87780      67   87792   87789      66   87795   87789      66   87795   87792
      67   87804   87801      66   87807   87801      66   87807   87804      67
   87816   87813      66   87819   87813      66   87819   87816      67   87828
   87825      66   87831   87825      66   87831   87828      67   87840   87837
      66   87843   87837      66   87843   87840      67   87852   87849      66
   87855   87849      66   87855   87852      67   87864   87861      66   87867
   87861      66   87867   87864      67   87876   87873      66   87879   87873
      66   87879   87876      67   87888   87885      66   87891   87885      66
   87891   87888      67   87900   87897      66   87903   87897      66   87903
   87900      67   87912   87909      66   87915   87909      66   87915   87912
      67   87924   87921      66   87927   87921      66   87927   87924      67
   87936   87933      66   87939   87933      66   87939   87936      67   87948
   87945      66   87951   87945      66   87951   87948      67   87960   87957
      66   87963   87957      66   87963   87960      67   87972   87969      66
   87975   87969      66   87975   87972      67   87984   87981      66   87987
   87981      66   87987   87984      67   87996   87993      66   87999   87993
      66   87999   87996      67   88008   88005      66   88011   88005      66
   88011   88008      67   88020   88017      66   88023   88017      66   88023
   88020      67   88032   88029      66   88035   88029      66   88035   88032
      67   88044   88041      66   88047   88041      66   88047   88044      67
   88056   88053      66   88059   88053      66   88059   88056      67   88068
   88065      66   88071   88065      66   88071   88068      67   88080   88077
      66   88083   88077      66   88083   88080      67   88092   88089      66
   88095   88089      66   88095   88092      67   88104   88101      66   88107
   88101      66   88107   88104      67   88116   88113      66   88119   88113
      66   88119   88116      67   88128   88125      66   88131   88125      66
   88131   88128      67   88140   88137      66   88143   88137      66   88143
   88140      67   88152   88149      66   88155   88149      66   88155   88152
      67   88164   88161      66   88167   88161      66   88167   88164      67
   88176   88173      66   88179   88173      66   88179   88176      67   88188
   88185      66   88191   88185      66   88191   88188      67   88200   88197
      66   88203   88197      66   88203   88200      67   88212   88209      66
   88215   88209      66   88215   88212      67   88224   88221      66   88227
   88221      66   88227   88224      67   88236   88233      66   88239   88233
      66   88239   88236      67   88248   88245      66   88251   88245      66
   88251   88248      67   88260   88257      66   88263   88257      66   88263
   88260      67   88272   88269      66   88275   88269      66   88275   88272
      67   88284   88281      66   88287   88281      66   88287   88284      67
   88296   88293      66   88299   88293      66   88299   88296      67   88308
   88305      66   88311   88305      66   88311   88308      67   88320   88317
      66   88323   88317      66   88323   88320      67   88332   88329      66
   88335   88329      66   88335   88332      67   88344   88341      66   88347
   88341      66   88347   88344      67   88356   88353      66   88359   88353
      66   88359   88356      67   88368   88365      66   88371   88365      66
   88371   88368      67   88380   88377      66   88383   88377      66   88383
   88380      67   88392   88389      66   88395   88389      66   88395   88392
      67   88404   88401      66   88407   88401      66   88407   88404      67
   88416   88413      66   88419   88413      66   88419   88416      67   88428
   88425      66   88431   88425      66   88431   88428      67   88440   88437
      66   88443   88437      66   88443   88440      67   88452   88449      66
   88455   88449      66   88455   88452      67   88464   88461      66   88467
   88461      66   88467   88464      67   88476   88473      66   88479   88473
      66   88479   88476      67   88488   88485      66   88491   88485      66
   88491   88488      67   88500   88497      66   88503   88497      66   88503
   88500      67   88512   88509      66   88515   88509      66   88515   88512
      67   88524   88521      66   88527   88521      66   88527   88524      67
   88536   88533      66   88539   88533      66   88539   88536      67   88548
   88545      66   88551   88545      66   88551   88548      67   88560   88557
      66   88563   88557      66   88563   88560      67   88572   88569      66
   88575   88569      66   88575   88572      67   88584   88581      66   88587
   88581      66   88587   88584      67   88596   88593      66   88599   88593
      66   88599   88596      67   88608   88605      66   88611   88605      66
   88611   88608      67   88620   88617      66   88623   88617      66   88623
   88620      67   88632   88629      66   88635   88629      66   88635   88632
      67   88644   88641      66   88647   88641      66   88647   88644      67
   88656   88653      66   88659   88653      66   88659   88656      67   88668
   88665      66   88671   88665      66   88671   88668      67   88680   88677
      66   88683   88677      66   88683   88680      67   88692   88689      66
   88695   88689      66   88695   88692      67   88704   88701      66   88707
   88701      66   88707   88704      67   88716   88713      66   88719   88713
      66   88719   88716      67   88728   88725      66   88731   88725      66
   88731   88728      67   88740   88737      66   88743   88737      66   88743
   88740      67   88752   88749      66   88755   88749      66   88755   88752
      67   88764   88761      66   88767   88761      66   88767   88764      67
   88776   88773      66   88779   88773      66   88779   88776      67   88788
   88785      66   88791   88785      66   88791   88788      67   88800   88797
      66   88803   88797      66   88803   88800      67   88812   88809      66
   88815   88809      66   88815   88812      67   88824   88821      66   88827
   88821      66   88827   88824      67   88836   88833      66   88839   88833
      66   88839   88836      67   88848   88845      66   88851   88845      66
   88851   88848      67   88860   88857      66   88863   88857      66   88863
   88860      67   88872   88869      66   88875   88869      66   88875   88872
      67   88884   88881      66   88887   88881      66   88887   88884      67
   88896   88893      66   88899   88893      66   88899   88896      67   88908
   88905      66   88911   88905      66   88911   88908      67   88920   88917
      66   88923   88917      66   88923   88920      67   88932   88929      66
   88935   88929      66   88935   88932      67   88944   88941      66   88947
   88941      66   88947   88944      67   88956   88953      66   88959   88953
      66   88959   88956      67   88968   88965      66   88971   88965      66
   88971   88968      67   88980   88977      66   88983   88977      66   88983
   88980      67   88992   88989      66   88995   88989      66   88995   88992
      67   89004   89001      66   89007   89001      66   89007   89004      67
   89016   89013      66   89019   89013      66   89019   89016      67   89028
   89025      66   89031   89025      66   89031   89028      67   89040   89037
      66   89043   89037      66   89043   89040      67   89052   89049      66
   89055   89049      66   89055   89052      67   89064   89061      66   89067
   89061      66   89067   89064      67   89076   89073      66   89079   89073
      66   89079   89076      67   89088   89085      66   89091   89085      66
   89091   89088      67   89100   89097      66   89103   89097      66   89103
   89100      67   89112   89109      66   89115   89109      66   89115   89112
      67   89124   89121      66   89127   89121      66   89127   89124      67
   89136   89133      66   89139   89133      66   89139   89136      67   89148
   89145      66   89151   89145      66   89151   89148      67   89160   89157
      66   89163   89157      66   89163   89160      67   89172   89169      66
   89175   89169      66   89175   89172      67   89184   89181      66   89187
   89181      66   89187   89184      67   89196   89193      66   89199   89193
      66   89199   89196      67   89208   89205      66   89211   89205      66
   89211   89208      67   89220   89217      66   89223   89217      66   89223
   89220      67   89232   89229      66   89235   89229      66   89235   89232
      67   89244   89241      66   89247   89241      66   89247   89244      67
   89256   89253      66   89259   89253      66   89259   89256      67   89268
   89265      66   89271   89265      66   89271   89268      67   89280   89277
      66   89283   89277      66   89283   89280      67   89292   89289      66
   89295   89289      66   89295   89292      67   89304   89301      66   89307
   89301      66   89307   89304      67   89316   89313      66   89319   89313
      66   89319   89316      67   89328   89325      66   89331   89325      66
   89331   89328      67   89340   89337      66   89343   89337      66   89343
   89340      67   89352   89349      66   89355   89349      66   89355   89352
      67   89364   89361      66   89367   89361      66   89367   89364      67
   89376   89373      66   89379   89373      66   89379   89376      67   89388
   89385      66   89391   89385      66   89391   89388      67   89400   89397
      66   89403   89397      66   89403   89400      67   89412   89409      66
   89415   89409      66   89415   89412      67   89424   89421      66   89427
   89421      66   89427   89424      67   89436   89433      66   89439   89433
      66   89439   89436      67   89448   89445      66   89451   89445      66
   89451   89448      67   89460   89457      66   89463   89457      66   89463
   89460      67   89472   89469      66   89475   89469      66   89475   89472
      67   89484   89481      66   89487   89481      66   89487   89484      67
   89496   89493      66   89499   89493      66   89499   89496      67   89508
   89505      66   89511   89505      66   89511   89508      67   89520   89517
      66   89523   89517      66   89523   89520      67   89532   89529      66
   89535   89529      66   89535   89532      67   89544   89541      66   89547
   89541      66   89547   89544      67   89556   89553      66   89559   89553
      66   89559   89556      67   89568   89565      66   89571   89565      66
   89571   89568      67   89580   89577      66   89583   89577      66   89583
   89580      67   89592   89589      66   89595   89589      66   89595   89592
      67   89604   89601      66   89607   89601      66   89607   89604      67
   89616   89613      66   89619   89613      66   89619   89616      67   89628
   89625      66   89631   89625      66   89631   89628      67   89640   89637
      66   89643   89637      66   89643   89640      67   89652   89649      66
   89655   89649      66   89655   89652      67   89664   89661      66   89667
   89661      66   89667   89664      67   89676   89673      66   89679   89673
      66   89679   89676      67   89688   89685      66   89691   89685      66
   89691   89688      67   89700   89697      66   89703   89697      66   89703
   89700      67   89712   89709      66   89715   89709      66   89715   89712
      67   89724   89721      66   89727   89721      66   89727   89724      67
   89736   89733      66   89739   89733      66   89739   89736      67   89748
   89745      66   89751   89745      66   89751   89748      67   89760   89757
      66   89763   89757      66   89763   89760      67   89772   89769      66
   89775   89769      66   89775   89772      67   89784   89781      66   89787
   89781      66   89787   89784      67   89796   89793      66   89799   89793
      66   89799   89796      67   89808   89805      66   89811   89805      66
   89811   89808      67   89820   89817      66   89823   89817      66   89823
   89820      67   89832   89829      66   89835   89829      66   89835   89832
      67   89844   89841      66   89847   89841      66   89847   89844      67
   89856   89853      66   89859   89853      66   89859   89856      67   89868
   89865      66   89871   89865      66   89871   89868      67   89880   89877
      66   89883   89877      66   89883   89880      67   89892   89889      66
   89895   89889      66   89895   89892      67   89904   89901      66   89907
   89901      66   89907   89904      67   89916   89913      66   89919   89913
      66   89919   89916      67   89928   89925      66   89931   89925      66
   89931   89928      67   89940   89937      66   89943   89937      66   89943
   89940      67   89952   89949      66   89955   89949      66   89955   89952
      67   89964   89961      66   89967   89961      66   89967   89964      67
   89976   89973      66   89979   89973      66   89979   89976      67   89988
   89985      66   89991   89985      66   89991   89988      67   90000   89997
      66   90003   89997      66   90003   90000      67   90012   90009      66
   90015   90009      66   90015   90012      67   90024   90021      66   90027
   90021      66   90027   90024      67   90036   90033      66   90039   90033
      66   90039   90036      67   90048   90045      66   90051   90045      66
   90051   90048      67   90060   90057      66   90063   90057      66   90063
   90060      67   90072   90069      66   90075   90069      66   90075   90072
      67   90084   90081      66   90087   90081      66   90087   90084      67
   90096   90093      66   90099   90093      66   90099   90096      67   90108
   90105      66   90111   90105      66   90111   90108      67   90120   90117
      66   90123   90117      66   90123   90120      67   90132   90129      66
   90135   90129      66   90135   90132      67   90144   90141      66   90147
   90141      66   90147   90144      67   90156   90153      66   90159   90153
      66   90159   90156      67   90168   90165      66   90171   90165      66
   90171   90168      67   90180   90177      66   90183   90177      66   90183
   90180      67   90192   90189      66   90195   90189      66   90195   90192
      67   90204   90201      66   90207   90201      66   90207   90204      67
   90216   90213      66   90219   90213      66   90219   90216      67   90228
   90225      66   90231   90225      66   90231   90228      67   90240   90237
      66   90243   90237      66   90243   90240      67   90252   90249      66
   90255   90249      66   90255   90252      67   90264   90261      66   90267
   90261      66   90267   90264      67   90276   90273      66   90279   90273
      66   90279   90276      67   90288   90285      66   90291   90285      66
   90291   90288      67   90300   90297      66   90303   90297      66   90303
   90300      67   90312   90309      66   90315   90309      66   90315   90312
      67   90324   90321      66   90327   90321      66   90327   90324      67
   90336   90333      66   90339   90333      66   90339   90336      67   90348
   90345      66   90351   90345      66   90351   90348      67   90360   90357
      66   90363   90357      66   90363   90360      67   90372   90369      66
   90375   90369      66   90375   90372      67   90384   90381      66   90387
   90381      66   90387   90384      67   90396   90393      66   90399   90393
      66   90399   90396      67   90408   90405      66   90411   90405      66
   90411   90408      67   90420   90417      66   90423   90417      66   90423
   90420      67   90432   90429      66   90435   90429      66   90435   90432
      67   90444   90441      66   90447   90441      66   90447   90444      67
   90456   90453      66   90459   90453      66   90459   90456      67   90468
   90465      66   90471   90465      66   90471   90468      67   90480   90477
      66   90483   90477      66   90483   90480      67   90492   90489      66
   90495   90489      66   90495   90492      67   90504   90501      66   90507
   90501      66   90507   90504      67   90516   90513      66   90519   90513
      66   90519   90516      67   90528   90525      66   90531   90525      66
   90531   90528      67   90540   90537      66   90543   90537      66   90543
   90540      67   90552   90549      66   90555   90549      66   90555   90552
      67   90564   90561      66   90567   90561      66   90567   90564      67
   90576   90573      66   90579   90573      66   90579   90576      67   90588
   90585      66   90591   90585      66   90591   90588      67   90600   90597
      66   90603   90597      66   90603   90600      67   90612   90609      66
   90615   90609      66   90615   90612      67   90624   90621      66   90627
   90621      66   90627   90624      67   90636   90633      66   90639   90633
      66   90639   90636      67   90648   90645      66   90651   90645      66
   90651   90648      67   90660   90657      66   90663   90657      66   90663
   90660      67   90672   90669      66   90675   90669      66   90675   90672
      67   90684   90681      66   90687   90681      66   90687   90684      67
   90696   90693      66   90699   90693      66   90699   90696      67   90708
   90705      66   90711   90705      66   90711   90708      67   90720   90717
      66   90723   90717      66   90723   90720      67   90732   90729      66
   90735   90729      66   90735   90732      67   90744   90741      66   90747
   90741      66   90747   90744      67   90756   90753      66   90759   90753
      66   90759   90756      67   90768   90765      66   90771   90765      66
   90771   90768      67   90780   90777      66   90783   90777      66   90783
   90780      67   90792   90789      66   90795   90789      66   90795   90792
      67   90804   90801      66   90807   90801      66   90807   90804      67
   90816   90813      66   90819   90813      66   90819   90816      67   90828
   90825      66   90831   90825      66   90831   90828      67   90840   90837
      66   90843   90837      66   90843   90840      67   90852   90849      66
   90855   90849      66   90855   90852      67   90864   90861      66   90867
   90861      66   90867   90864      67   90876   90873      66   90879   90873
      66   90879   90876      67   90888   90885      66   90891   90885      66
   90891   90888      67   90900   90897      66   90903   90897      66   90903
   90900      67   90912   90909      66   90915   90909      66   90915   90912
      67   90924   90921      66   90927   90921      66   90927   90924      67
   90936   90933      66   90939   90933      66   90939   90936      67   90948
   90945      66   90951   90945      66   90951   90948      67   90960   90957
      66   90963   90957      66   90963   90960      67   90972   90969      66
   90975   90969      66   90975   90972      67   90984   90981      66   90987
   90981      66   90987   90984      67   90996   90993      66   90999   90993
      66   90999   90996      67   91008   91005      66   91011   91005      66
   91011   91008      67   91020   91017      66   91023   91017      66   91023
   91020      67   91032   91029      66   91035   91029      66   91035   91032
      67   91044   91041      66   91047   91041      66   91047   91044      67
   91056   91053      66   91059   91053      66   91059   91056      67   91068
   91065      66   91071   91065      66   91071   91068      67   91080   91077
      66   91083   91077      66   91083   91080      67   91092   91089      66
   91095   91089      66   91095   91092      67   91104   91101      66   91107
   91101      66   91107   91104      67   91116   91113      66   91119   91113
      66   91119   91116      67   91128   91125      66   91131   91125      66
   91131   91128      67   91140   91137      66   91143   91137      66   91143
   91140      67   91152   91149      66   91155   91149      66   91155   91152
      67   91164   91161      66   91167   91161      66   91167   91164      67
   91176   91173      66   91179   91173      66   91179   91176      67   91188
   91185      66   91191   91185      66   91191   91188      67   91200   91197
      66   91203   91197      66   91203   91200      67   91212   91209      66
   91215   91209      66   91215   91212      67   91224   91221      66   91227
   91221      66   91227   91224      67   91236   91233      66   91239   91233
      66   91239   91236      67   91248   91245      66   91251   91245      66
   91251   91248      67   91260   91257      66   91263   91257      66   91263
   91260      67   91272   91269      66   91275   91269      66   91275   91272
      67   91284   91281      66   91287   91281      66   91287   91284      67
   91296   91293      66   91299   91293      66   91299   91296      67   91308
   91305      66   91311   91305      66   91311   91308      67   91320   91317
      66   91323   91317      66   91323   91320      67   91332   91329      66
   91335   91329      66   91335   91332      67   91344   91341      66   91347
   91341      66   91347   91344      67   91356   91353      66   91359   91353
      66   91359   91356      67   91368   91365      66   91371   91365      66
   91371   91368      67   91380   91377      66   91383   91377      66   91383
   91380      67   91392   91389      66   91395   91389      66   91395   91392
      67   91404   91401      66   91407   91401      66   91407   91404      67
   91416   91413      66   91419   91413      66   91419   91416      67   91428
   91425      66   91431   91425      66   91431   91428      67   91440   91437
      66   91443   91437      66   91443   91440      67   91452   91449      66
   91455   91449      66   91455   91452      67   91464   91461      66   91467
   91461      66   91467   91464      67   91476   91473      66   91479   91473
      66   91479   91476      67   91488   91485      66   91491   91485      66
   91491   91488      67   91500   91497      66   91503   91497      66   91503
   91500      67   91512   91509      66   91515   91509      66   91515   91512
      67   91524   91521      66   91527   91521      66   91527   91524      67
   91536   91533      66   91539   91533      66   91539   91536      67   91548
   91545      66   91551   91545      66   91551   91548      67   91560   91557
      66   91563   91557      66   91563   91560      67   91572   91569      66
   91575   91569      66   91575   91572      67   91584   91581      66   91587
   91581      66   91587   91584      67   91596   91593      66   91599   91593
      66   91599   91596      67   91608   91605      66   91611   91605      66
   91611   91608      67   91620   91617      66   91623   91617      66   91623
   91620      67   91632   91629      66   91635   91629      66   91635   91632
      67   91644   91641      66   91647   91641      66   91647   91644      67
   91656   91653      66   91659   91653      66   91659   91656      67   91668
   91665      66   91671   91665      66   91671   91668      67   91680   91677
      66   91683   91677      66   91683   91680      67   91692   91689      66
   91695   91689      66   91695   91692      67   91704   91701      66   91707
   91701      66   91707   91704      67   91716   91713      66   91719   91713
      66   91719   91716      67   91728   91725      66   91731   91725      66
   91731   91728      67   91740   91737      66   91743   91737      66   91743
   91740      67   91752   91749      66   91755   91749      66   91755   91752
      67   91764   91761      66   91767   91761      66   91767   91764      67
   91776   91773      66   91779   91773      66   91779   91776      67   91788
   91785      66   91791   91785      66   91791   91788      67   91800   91797
      66   91803   91797      66   91803   91800      67   91812   91809      66
   91815   91809      66   91815   91812      67   91824   91821      66   91827
   91821      66   91827   91824      67   91836   91833      66   91839   91833
      66   91839   91836      67   91848   91845      66   91851   91845      66
   91851   91848      67   91860   91857      66   91863   91857      66   91863
   91860      67   91872   91869      66   91875   91869      66   91875   91872
      67   91884   91881      66   91887   91881      66   91887   91884      67
   91896   91893      66   91899   91893      66   91899   91896      67   91908
   91905      66   91911   91905      66   91911   91908      67   91920   91917
      66   91923   91917      66   91923   91920      67   91932   91929      66
   91935   91929      66   91935   91932      67   91944   91941      66   91947
   91941      66   91947   91944      67   91956   91953      66   91959   91953
      66   91959   91956      67   91968   91965      66   91971   91965      66
   91971   91968      67   91980   91977      66   91983   91977      66   91983
   91980      67   91992   91989      66   91995   91989      66   91995   91992
      67   92004   92001      66   92007   92001      66   92007   92004      67
   92016   92013      66   92019   92013      66   92019   92016      67   92028
   92025      66   92031   92025      66   92031   92028      67   92040   92037
      66   92043   92037      66   92043   92040      67   92052   92049      66
   92055   92049      66   92055   92052      67   92064   92061      66   92067
   92061      66   92067   92064      67   92076   92073      66   92079   92073
      66   92079   92076      67   92088   92085      66   92091   92085      66
   92091   92088      67   92100   92097      66   92103   92097      66   92103
   92100      67   92112   92109      66   92115   92109      66   92115   92112
      67   92124   92121      66   92127   92121      66   92127   92124      67
   92136   92133      66   92139   92133      66   92139   92136      67   92148
   92145      66   92151   92145      66   92151   92148      67   92160   92157
      66   92163   92157      66   92163   92160      67   92172   92169      66
   92175   92169      66   92175   92172      67   92184   92181      66   92187
   92181      66   92187   92184      67   92196   92193      66   92199   92193
      66   92199   92196      67   92208   92205      66   92211   92205      66
   92211   92208      67   92220   92217      66   92223   92217      66   92223
   92220      67   92232   92229      66   92235   92229      66   92235   92232
      67   92244   92241      66   92247   92241      66   92247   92244      67
   92256   92253      66   92259   92253      66   92259   92256      67   92268
   92265      66   92271   92265      66   92271   92268      67   92280   92277
      66   92283   92277      66   92283   92280      67   92292   92289      66
   92295   92289      66   92295   92292      67   92304   92301      66   92307
   92301      66   92307   92304      67   92316   92313      66   92319   92313
      66   92319   92316      67   92328   92325      66   92331   92325      66
   92331   92328      67   92340   92337      66   92343   92337      66   92343
   92340      67   92352   92349      66   92355   92349      66   92355   92352
      67   92364   92361      66   92367   92361      66   92367   92364      67
   92376   92373      66   92379   92373      66   92379   92376      67   92388
   92385      66   92391   92385      66   92391   92388      67   92400   92397
      66   92403   92397      66   92403   92400      67   92412   92409      66
   92415   92409      66   92415   92412      67   92424   92421      66   92427
   92421      66   92427   92424      67   92436   92433      66   92439   92433
      66   92439   92436      67   92448   92445      66   92451   92445      66
   92451   92448      67   92460   92457      66   92463   92457      66   92463
   92460      67   92472   92469      66   92475   92469      66   92475   92472
      67   92484   92481      66   92487   92481      66   92487   92484      67
   92496   92493      66   92499   92493      66   92499   92496      67   92508
   92505      66   92511   92505      66   92511   92508      67   92520   92517
      66   92523   92517      66   92523   92520      67   92532   92529      66
   92535   92529      66   92535   92532      67   92544   92541      66   92547
   92541      66   92547   92544      67   92556   92553      66   92559   92553
      66   92559   92556      67   92568   92565      66   92571   92565      66
   92571   92568      67   92580   92577      66   92583   92577      66   92583
   92580      67   92592   92589      66   92595   92589      66   92595   92592
      67   92604   92601      66   92607   92601      66   92607   92604      67
   92616   92613      66   92619   92613      66   92619   92616      67   92628
   92625      66   92631   92625      66   92631   92628      67   92640   92637
      66   92643   92637      66   92643   92640      67   92652   92649      66
   92655   92649      66   92655   92652      67   92664   92661      66   92667
   92661      66   92667   92664      67   92676   92673      66   92679   92673
      66   92679   92676      67   92688   92685      66   92691   92685      66
   92691   92688      67   92700   92697      66   92703   92697      66   92703
   92700      67   92712   92709      66   92715   92709      66   92715   92712
      67   92724   92721      66   92727   92721      66   92727   92724      67
   92736   92733      66   92739   92733      66   92739   92736      67   92748
   92745      66   92751   92745      66   92751   92748      67   92760   92757
      66   92763   92757      66   92763   92760      67   92772   92769      66
   92775   92769      66   92775   92772      67   92784   92781      66   92787
   92781      66   92787   92784      67   92796   92793      66   92799   92793
      66   92799   92796      67   92808   92805      66   92811   92805      66
   92811   92808      67   92820   92817      66   92823   92817      66   92823
   92820      67   92832   92829      66   92835   92829      66   92835   92832
      67   92844   92841      66   92847   92841      66   92847   92844      67
   92856   92853      66   92859   92853      66   92859   92856      67   92868
   92865      66   92871   92865      66   92871   92868      67   92880   92877
      66   92883   92877      66   92883   92880      67   92892   92889      66
   92895   92889      66   92895   92892      67   92904   92901      66   92907
   92901      66   92907   92904      67   92916   92913      66   92919   92913
      66   92919   92916      67   92928   92925      66   92931   92925      66
   92931   92928      67   92940   92937      66   92943   92937      66   92943
   92940      67   92952   92949      66   92955   92949      66   92955   92952
      67   92964   92961      66   92967   92961      66   92967   92964      67
   92976   92973      66   92979   92973      66   92979   92976      67   92988
   92985      66   92991   92985      66   92991   92988      67   93000   92997
      66   93003   92997      66   93003   93000      67   93012   93009      66
   93015   93009      66   93015   93012      67   93024   93021      66   93027
   93021      66   93027   93024      67   93036   93033      66   93039   93033
      66   93039   93036      67   93048   93045      66   93051   93045      66
   93051   93048      67   93060   93057      66   93063   93057      66   93063
   93060      67   93072   93069      66   93075   93069      66   93075   93072
      67   93084   93081      66   93087   93081      66   93087   93084      67
   93096   93093      66   93099   93093      66   93099   93096      67   93108
   93105      66   93111   93105      66   93111   93108      67   93120   93117
      66   93123   93117      66   93123   93120      67   93132   93129      66
   93135   93129      66   93135   93132      67   93144   93141      66   93147
   93141      66   93147   93144      67   93156   93153      66   93159   93153
      66   93159   93156      67   93168   93165      66   93171   93165      66
   93171   93168      67   93180   93177      66   93183   93177      66   93183
   93180      67   93192   93189      66   93195   93189      66   93195   93192
      67   93204   93201      66   93207   93201      66   93207   93204      67
   93216   93213      66   93219   93213      66   93219   93216      67   93228
   93225      66   93231   93225      66   93231   93228      67   93240   93237
      66   93243   93237      66   93243   93240      67   93252   93249      66
   93255   93249      66   93255   93252      67   93264   93261      66   93267
   93261      66   93267   93264      67   93276   93273      66   93279   93273
      66   93279   93276      67   93288   93285      66   93291   93285      66
   93291   93288      67   93300   93297      66   93303   93297      66   93303
   93300      67   93312   93309      66   93315   93309      66   93315   93312
      67   93324   93321      66   93327   93321      66   93327   93324      67
   93336   93333      66   93339   93333      66   93339   93336      67   93348
   93345      66   93351   93345      66   93351   93348      67   93360   93357
      66   93363   93357      66   93363   93360      67   93372   93369      66
   93375   93369      66   93375   93372      67   93384   93381      66   93387
   93381      66   93387   93384      67   93396   93393      66   93399   93393
      66   93399   93396      67   93408   93405      66   93411   93405      66
   93411   93408      67   93420   93417      66   93423   93417      66   93423
   93420      67   93432   93429      66   93435   93429      66   93435   93432
      67   93444   93441      66   93447   93441      66   93447   93444      67
   93456   93453      66   93459   93453      66   93459   93456      67   93468
   93465      66   93471   93465      66   93471   93468      67   93480   93477
      66   93483   93477      66   93483   93480      67   93492   93489      66
   93495   93489      66   93495   93492      67   93504   93501      66   93507
   93501      66   93507   93504      67   93516   93513      66   93519   93513
      66   93519   93516      67   93528   93525      66   93531   93525      66
   93531   93528      67   93540   93537      66   93543   93537      66   93543
   93540      67   93552   93549      66   93555   93549      66   93555   93552
      67   93564   93561      66   93567   93561      66   93567   93564      67
   93576   93573      66   93579   93573      66   93579   93576      67   93588
   93585      66   93591   93585      66   93591   93588      67   93600   93597
      66   93603   93597      66   93603   93600      67   93612   93609      66
   93615   93609      66   93615   93612      67   93624   93621      66   93627
   93621      66   93627   93624      67   93636   93633      66   93639   93633
      66   93639   93636      67   93648   93645      66   93651   93645      66
   93651   93648      67   93660   93657      66   93663   93657      66   93663
   93660      67   93672   93669      66   93675   93669      66   93675   93672
      67   93684   93681      66   93687   93681      66   93687   93684      67
   93696   93693      66   93699   93693      66   93699   93696      67   93708
   93705      66   93711   93705      66   93711   93708      67   93720   93717
      66   93723   93717      66   93723   93720      67   93732   93729      66
   93735   93729      66   93735   93732      67   93744   93741      66   93747
   93741      66   93747   93744      67   93756   93753      66   93759   93753
      66   93759   93756      67   93768   93765      66   93771   93765      66
   93771   93768      67   93780   93777      66   93783   93777      66   93783
   93780      67   93792   93789      66   93795   93789      66   93795   93792
      67   93804   93801      66   93807   93801      66   93807   93804      67
   93816   93813      66   93819   93813      66   93819   93816      67   93828
   93825      66   93831   93825      66   93831   93828      67   93840   93837
      66   93843   93837      66   93843   93840      67   93852   93849      66
   93855   93849      66   93855   93852      67   93864   93861      66   93867
   93861      66   93867   93864      67   93876   93873      66   93879   93873
      66   93879   93876      67   93888   93885      66   93891   93885      66
   93891   93888      67   93900   93897      66   93903   93897      66   93903
   93900      67   93912   93909      66   93915   93909      66   93915   93912
      67   93924   93921      66   93927   93921      66   93927   93924      67
   93936   93933      66   93939   93933      66   93939   93936      67   93948
   93945      66   93951   93945      66   93951   93948      67   93960   93957
      66   93963   93957      66   93963   93960      67   93972   93969      66
   93975   93969      66   93975   93972      67   93984   93981      66   93987
   93981      66   93987   93984      67   93996   93993      66   93999   93993
      66   93999   93996      67   94008   94005      66   94011   94005      66
   94011   94008      67   94020   94017      66   94023   94017      66   94023
   94020      67   94032   94029      66   94035   94029      66   94035   94032
      67   94044   94041      66   94047   94041      66   94047   94044      67
   94056   94053      66   94059   94053      66   94059   94056      67   94068
   94065      66   94071   94065      66   94071   94068      67   94080   94077
      66   94083   94077      66   94083   94080      67   94092   94089      66
   94095   94089      66   94095   94092      67   94104   94101      66   94107
   94101      66   94107   94104      67   94116   94113      66   94119   94113
      66   94119   94116      67   94128   94125      66   94131   94125      66
   94131   94128      67   94140   94137      66   94143   94137      66   94143
   94140      67   94152   94149      66   94155   94149      66   94155   94152
      67   94164   94161      66   94167   94161      66   94167   94164      67
   94176   94173      66   94179   94173      66   94179   94176      67   94188
   94185      66   94191   94185      66   94191   94188      67   94200   94197
      66   94203   94197      66   94203   94200      67   94212   94209      66
   94215   94209      66   94215   94212      67   94224   94221      66   94227
   94221      66   94227   94224      67   94236   94233      66   94239   94233
      66   94239   94236      67   94248   94245      66   94251   94245      66
   94251   94248      67   94260   94257      66   94263   94257      66   94263
   94260      67   94272   94269      66   94275   94269      66   94275   94272
      67   94284   94281      66   94287   94281      66   94287   94284      67
   94296   94293      66   94299   94293      66   94299   94296      67   94308
   94305      66   94311   94305      66   94311   94308      67   94320   94317
      66   94323   94317      66   94323   94320      67   94332   94329      66
   94335   94329      66   94335   94332      67   94344   94341      66   94347
   94341      66   94347   94344      67   94356   94353      66   94359   94353
      66   94359   94356      67   94368   94365      66   94371   94365      66
   94371   94368      67   94380   94377      66   94383   94377      66   94383
   94380      67   94392   94389      66   94395   94389      66   94395   94392
      67   94404   94401      66   94407   94401      66   94407   94404      67
   94416   94413      66   94419   94413      66   94419   94416      67   94428
   94425      66   94431   94425      66   94431   94428      67   94440   94437
      66   94443   94437      66   94443   94440      67   94452   94449      66
   94455   94449      66   94455   94452      67   94464   94461      66   94467
   94461      66   94467   94464      67   94476   94473      66   94479   94473
      66   94479   94476      67   94488   94485      66   94491   94485      66
   94491   94488      67   94500   94497      66   94503   94497      66   94503
   94500      67   94512   94509      66   94515   94509      66   94515   94512
      67   94524   94521      66   94527   94521      66   94527   94524      67
   94536   94533      66   94539   94533      66   94539   94536      67   94548
   94545      66   94551   94545      66   94551   94548      67   94560   94557
      66   94563   94557      66   94563   94560      67   94572   94569      66
   94575   94569      66   94575   94572      67   94584   94581      66   94587
   94581      66   94587   94584      67   94596   94593      66   94599   94593
      66   94599   94596      67   94608   94605      66   94611   94605      66
   94611   94608      67   94620   94617      66   94623   94617      66   94623
   94620      67   94632   94629      66   94635   94629      66   94635   94632
      67   94644   94641      66   94647   94641      66   94647   94644      67
   94656   94653      66   94659   94653      66   94659   94656      67   94668
   94665      66   94671   94665      66   94671   94668      67   94680   94677
      66   94683   94677      66   94683   94680      67   94692   94689      66
   94695   94689      66   94695   94692      67   94704   94701      66   94707
   94701      66   94707   94704      67   94716   94713      66   94719   94713
      66   94719   94716      67   94728   94725      66   94731   94725      66
   94731   94728      67   94740   94737      66   94743   94737      66   94743
   94740      67   94752   94749      66   94755   94749      66   94755   94752
      67   94764   94761      66   94767   94761      66   94767   94764      67
   94776   94773      66   94779   94773      66   94779   94776      67   94788
   94785      66   94791   94785      66   94791   94788      67   94800   94797
      66   94803   94797      66   94803   94800      67   94812   94809      66
   94815   94809      66   94815   94812      67   94824   94821      66   94827
   94821      66   94827   94824      67   94836   94833      66   94839   94833
      66   94839   94836      67   94848   94845      66   94851   94845      66
   94851   94848      67   94860   94857      66   94863   94857      66   94863
   94860      67   94872   94869      66   94875   94869      66   94875   94872
      67   94884   94881      66   94887   94881      66   94887   94884      67
   94896   94893      66   94899   94893      66   94899   94896      67   94908
   94905      66   94911   94905      66   94911   94908      67   94920   94917
      66   94923   94917      66   94923   94920      67   94932   94929      66
   94935   94929      66   94935   94932      67   94944   94941      66   94947
   94941      66   94947   94944      67   94956   94953      66   94959   94953
      66   94959   94956      67   94968   94965      66   94971   94965      66
   94971   94968      67   94980   94977      66   94983   94977      66   94983
   94980      67   94992   94989      66   94995   94989      66   94995   94992
      67   95004   95001      66   95007   95001      66   95007   95004      67
   95016   95013      66   95019   95013      66   95019   95016      67   95028
   95025      66   95031   95025      66   95031   95028      67   95040   95037
      66   95043   95037      66   95043   95040      67   95052   95049      66
   95055   95049      66   95055   95052      67   95064   95061      66   95067
   95061      66   95067   95064      67   95076   95073      66   95079   95073
      66   95079   95076      67   95088   95085      66   95091   95085      66
   95091   95088      67   95100   95097      66   95103   95097      66   95103
   95100      67   95112   95109      66   95115   95109      66   95115   95112
      67   95124   95121      66   95127   95121      66   95127   95124      67
   95136   95133      66   95139   95133      66   95139   95136      67   95148
   95145      66   95151   95145      66   95151   95148      67   95160   95157
      66   95163   95157      66   95163   95160      67   95172   95169      66
   95175   95169      66   95175   95172      67   95184   95181      66   95187
   95181      66   95187   95184      67   95196   95193      66   95199   95193
      66   95199   95196      67   95208   95205      66   95211   95205      66
   95211   95208      67   95220   95217      66   95223   95217      66   95223
   95220      67   95232   95229      66   95235   95229      66   95235   95232
      67   95244   95241      66   95247   95241      66   95247   95244      67
   95256   95253      66   95259   95253      66   95259   95256      67   95268
   95265      66   95271   95265      66   95271   95268      67   95280   95277
      66   95283   95277      66   95283   95280      67   95292   95289      66
   95295   95289      66   95295   95292      67   95304   95301      66   95307
   95301      66   95307   95304      67   95316   95313      66   95319   95313
      66   95319   95316      67   95328   95325      66   95331   95325      66
   95331   95328      67   95340   95337      66   95343   95337      66   95343
   95340      67   95352   95349      66   95355   95349      66   95355   95352
      67   95364   95361      66   95367   95361      66   95367   95364      67
   95376   95373      66   95379   95373      66   95379   95376      67   95388
   95385      66   95391   95385      66   95391   95388      67   95400   95397
      66   95403   95397      66   95403   95400      67   95412   95409      66
   95415   95409      66   95415   95412      67   95424   95421      66   95427
   95421      66   95427   95424      67   95436   95433      66   95439   95433
      66   95439   95436      67   95448   95445      66   95451   95445      66
   95451   95448      67   95460   95457      66   95463   95457      66   95463
   95460      67   95472   95469      66   95475   95469      66   95475   95472
      67   95484   95481      66   95487   95481      66   95487   95484      67
   95496   95493      66   95499   95493      66   95499   95496      67   95508
   95505      66   95511   95505      66   95511   95508      67   95520   95517
      66   95523   95517      66   95523   95520      67   95532   95529      66
   95535   95529      66   95535   95532      67   95544   95541      66   95547
   95541      66   95547   95544      67   95556   95553      66   95559   95553
      66   95559   95556      67   95568   95565      66   95571   95565      66
   95571   95568      67   95580   95577      66   95583   95577      66   95583
   95580      67   95592   95589      66   95595   95589      66   95595   95592
      67   95604   95601      66   95607   95601      66   95607   95604      67
   95616   95613      66   95619   95613      66   95619   95616      67   95628
   95625      66   95631   95625      66   95631   95628      67   95640   95637
      66   95643   95637      66   95643   95640      67   95652   95649      66
   95655   95649      66   95655   95652      67   95664   95661      66   95667
   95661      66   95667   95664      67   95676   95673      66   95679   95673
      66   95679   95676      67   95688   95685      66   95691   95685      66
   95691   95688      67   95700   95697      66   95703   95697      66   95703
   95700      67   95712   95709      66   95715   95709      66   95715   95712
      67   95724   95721      66   95727   95721      66   95727   95724      67
   95736   95733      66   95739   95733      66   95739   95736      67   95748
   95745      66   95751   95745      66   95751   95748      67   95760   95757
      66   95763   95757      66   95763   95760      67   95772   95769      66
   95775   95769      66   95775   95772      67   95784   95781      66   95787
   95781      66   95787   95784      67   95796   95793      66   95799   95793
      66   95799   95796      67   95808   95805      66   95811   95805      66
   95811   95808      67   95820   95817      66   95823   95817      66   95823
   95820      67   95832   95829      66   95835   95829      66   95835   95832
      67   95844   95841      66   95847   95841      66   95847   95844      67
   95856   95853      66   95859   95853      66   95859   95856      67   95868
   95865      66   95871   95865      66   95871   95868      67   95880   95877
      66   95883   95877      66   95883   95880      67   95892   95889      66
   95895   95889      66   95895   95892      67   95904   95901      66   95907
   95901      66   95907   95904      67   95916   95913      66   95919   95913
      66   95919   95916      67   95928   95925      66   95931   95925      66
   95931   95928      67   95940   95937      66   95943   95937      66   95943
   95940      67   95952   95949      66   95955   95949      66   95955   95952
      67   95964   95961      66   95967   95961      66   95967   95964      67
   95976   95973      66   95979   95973      66   95979   95976      67   95988
   95985      66   95991   95985      66   95991   95988      67   96000   95997
      66   96003   95997      66   96003   96000      67   96012   96009      66
   96015   96009      66   96015   96012      67   96024   96021      66   96027
   96021      66   96027   96024      67   96036   96033      66   96039   96033
      66   96039   96036      67   96048   96045      66   96051   96045      66
   96051   96048      67   96060   96057      66   96063   96057      66   96063
   96060      67   96072   96069      66   96075   96069      66   96075   96072
      67   96084   96081      66   96087   96081      66   96087   96084      67
   96096   96093      66   96099   96093      66   96099   96096      67   96108
   96105      66   96111   96105      66   96111   96108      67   96120   96117
      66   96123   96117      66   96123   96120      67   96132   96129      66
   96135   96129      66   96135   96132      67   96144   96141      66   96147
   96141      66   96147   96144      67   96156   96153      66   96159   96153
      66   96159   96156      67   96168   96165      66   96171   96165      66
   96171   96168      67   96180   96177      66   96183   96177      66   96183
   96180      67   96192   96189      66   96195   96189      66   96195   96192
      67   96204   96201      66   96207   96201      66   96207   96204      67
   96216   96213      66   96219   96213      66   96219   96216      67   96228
   96225      66   96231   96225      66   96231   96228      67   96240   96237
      66   96243   96237      66   96243   96240      67   96252   96249      66
   96255   96249      66   96255   96252      67   96264   96261      66   96267
   96261      66   96267   96264      67   96276   96273      66   96279   96273
      66   96279   96276      67   96288   96285      66   96291   96285      66
   96291   96288      67   96300   96297      66   96303   96297      66   96303
   96300      67   96312   96309      66   96315   96309      66   96315   96312
      67   96324   96321      66   96327   96321      66   96327   96324      67
   96336   96333      66   96339   96333      66   96339   96336      67   96348
   96345      66   96351   96345      66   96351   96348      67   96360   96357
      66   96363   96357      66   96363   96360      67   96372   96369      66
   96375   96369      66   96375   96372      67   96384   96381      66   96387
   96381      66   96387   96384      67   96396   96393      66   96399   96393
      66   96399   96396      67   96408   96405      66   96411   96405      66
   96411   96408      67   96420   96417      66   96423   96417      66   96423
   96420      67   96432   96429      66   96435   96429      66   96435   96432
      67   96444   96441      66   96447   96441      66   96447   96444      67
   96456   96453      66   96459   96453      66   96459   96456      67   96468
   96465      66   96471   96465      66   96471   96468      67   96480   96477
      66   96483   96477      66   96483   96480      67   96492   96489      66
   96495   96489      66   96495   96492      67   96504   96501      66   96507
   96501      66   96507   96504      67   96516   96513      66   96519   96513
      66   96519   96516      67   96528   96525      66   96531   96525      66
   96531   96528      67   96540   96537      66   96543   96537      66   96543
   96540      67   96552   96549      66   96555   96549      66   96555   96552
      67   96564   96561      66   96567   96561      66   96567   96564      67
   96576   96573      66   96579   96573      66   96579   96576      67   96588
   96585      66   96591   96585      66   96591   96588      67   96600   96597
      66   96603   96597      66   96603   96600      67   96612   96609      66
   96615   96609      66   96615   96612      67   96624   96621      66   96627
   96621      66   96627   96624      67   96636   96633      66   96639   96633
      66   96639   96636      67   96648   96645      66   96651   96645      66
   96651   96648      67   96660   96657      66   96663   96657      66   96663
   96660      67   96672   96669      66   96675   96669      66   96675   96672
      67   96684   96681      66   96687   96681      66   96687   96684      67
   96696   96693      66   96699   96693      66   96699   96696      67   96708
   96705      66   96711   96705      66   96711   96708      67   96720   96717
      66   96723   96717      66   96723   96720      67   96732   96729      66
   96735   96729      66   96735   96732      67   96744   96741      66   96747
   96741      66   96747   96744      67   96756   96753      66   96759   96753
      66   96759   96756      67   96768   96765      66   96771   96765      66
   96771   96768      67   96780   96777      66   96783   96777      66   96783
   96780      67   96792   96789      66   96795   96789      66   96795   96792
      67   96804   96801      66   96807   96801      66   96807   96804      67
   96816   96813      66   96819   96813      66   96819   96816      67   96828
   96825      66   96831   96825      66   96831   96828      67   96840   96837
      66   96843   96837      66   96843   96840      67   96852   96849      66
   96855   96849      66   96855   96852      67   96864   96861      66   96867
   96861      66   96867   96864      67   96876   96873      66   96879   96873
      66   96879   96876      67   96888   96885      66   96891   96885      66
   96891   96888      67   96900   96897      66   96903   96897      66   96903
   96900      67   96912   96909      66   96915   96909      66   96915   96912
      67   96924   96921      66   96927   96921      66   96927   96924      67
   96936   96933      66   96939   96933      66   96939   96936      67   96948
   96945      66   96951   96945      66   96951   96948      67   96960   96957
      66   96963   96957      66   96963   96960      67   96972   96969      66
   96975   96969      66   96975   96972      67   96984   96981      66   96987
   96981      66   96987   96984      67   96996   96993      66   96999   96993
      66   96999   96996      67   97008   97005      66   97011   97005      66
   97011   97008      67   97020   97017      66   97023   97017      66   97023
   97020      67   97032   97029      66   97035   97029      66   97035   97032
      67   97044   97041      66   97047   97041      66   97047   97044      67
   97056   97053      66   97059   97053      66   97059   97056      67   97068
   97065      66   97071   97065      66   97071   97068      67   97080   97077
      66   97083   97077      66   97083   97080      67   97092   97089      66
   97095   97089      66   97095   97092      67   97104   97101      66   97107
   97101      66   97107   97104      67   97116   97113      66   97119   97113
      66   97119   97116      67   97128   97125      66   97131   97125      66
   97131   97128      67   97140   97137      66   97143   97137      66   97143
   97140      67   97152   97149      66   97155   97149      66   97155   97152
      67   97164   97161      66   97167   97161      66   97167   97164      67
   97176   97173      66   97179   97173      66   97179   97176      67   97188
   97185      66   97191   97185      66   97191   97188      67   97200   97197
      66   97203   97197      66   97203   97200      67   97212   97209      66
   97215   97209      66   97215   97212      67   97224   97221      66   97227
   97221      66   97227   97224      67   97236   97233      66   97239   97233
      66   97239   97236      67   97248   97245      66   97251   97245      66
   97251   97248      67   97260   97257      66   97263   97257      66   97263
   97260      67   97272   97269      66   97275   97269      66   97275   97272
      67   97284   97281      66   97287   97281      66   97287   97284      67
   97296   97293      66   97299   97293      66   97299   97296      67   97308
   97305      66   97311   97305      66   97311   97308      67   97320   97317
      66   97323   97317      66   97323   97320      67   97332   97329      66
   97335   97329      66   97335   97332      67   97344   97341      66   97347
   97341      66   97347   97344      67   97356   97353      66   97359   97353
      66   97359   97356      67   97368   97365      66   97371   97365      66
   97371   97368      67   97380   97377      66   97383   97377      66   97383
   97380      67   97392   97389      66   97395   97389      66   97395   97392
      67   97404   97401      66   97407   97401      66   97407   97404      67
   97416   97413      66   97419   97413      66   97419   97416      67   97428
   97425      66   97431   97425      66   97431   97428      67   97440   97437
      66   97443   97437      66   97443   97440      67   97452   97449      66
   97455   97449      66   97455   97452      67   97464   97461      66   97467
   97461      66   97467   97464      67   97476   97473      66   97479   97473
      66   97479   97476      67   97488   97485      66   97491   97485      66
   97491   97488      67   97500   97497      66   97503   97497      66   97503
   97500      67   97512   97509      66   97515   97509      66   97515   97512
      67   97524   97521      66   97527   97521      66   97527   97524      67
   97536   97533      66   97539   97533      66   97539   97536      67   97548
   97545      66   97551   97545      66   97551   97548      67   97560   97557
      66   97563   97557      66   97563   97560      67   97572   97569      66
   97575   97569      66   97575   97572      67   97584   97581      66   97587
   97581      66   97587   97584      67   97596   97593      66   97599   97593
      66   97599   97596      67   97608   97605      66   97611   97605      66
   97611   97608      67   97620   97617      66   97623   97617      66   97623
   97620      67   97632   97629      66   97635   97629      66   97635   97632
      67   97644   97641      66   97647   97641      66   97647   97644      67
   97656   97653      66   97659   97653      66   97659   97656      67   97668
   97665      66   97671   97665      66   97671   97668      67   97680   97677
      66   97683   97677      66   97683   97680      67   97692   97689      66
   97695   97689      66   97695   97692      67   97704   97701      66   97707
   97701      66   97707   97704      67   97716   97713      66   97719   97713
      66   97719   97716      67   97728   97725      66   97731   97725      66
   97731   97728      67   97740   97737      66   97743   97737      66   97743
   97740      67   97752   97749      66   97755   97749      66   97755   97752
      67   97764   97761      66   97767   97761      66   97767   97764      67
   97776   97773      66   97779   97773      66   97779   97776      67   97788
   97785      66   97791   97785      66   97791   97788      67   97800   97797
      66   97803   97797      66   97803   97800      67   97812   97809      66
   97815   97809      66   97815   97812      67   97824   97821      66   97827
   97821      66   97827   97824      67   97836   97833      66   97839   97833
      66   97839   97836      67   97848   97845      66   97851   97845      66
   97851   97848      67   97860   97857      66   97863   97857      66   97863
   97860      67   97872   97869      66   97875   97869      66   97875   97872
      67   97884   97881      66   97887   97881      66   97887   97884      67
   97896   97893      66   97899   97893      66   97899   97896      67   97908
   97905      66   97911   97905      66   97911   97908      67   97920   97917
      66   97923   97917      66   97923   97920      67   97932   97929      66
   97935   97929      66   97935   97932      67   97944   97941      66   97947
   97941      66   97947   97944      67   97956   97953      66   97959   97953
      66   97959   97956      67   97968   97965      66   97971   97965      66
   97971   97968      67   97980   97977      66   97983   97977      66   97983
   97980      67   97992   97989      66   97995   97989      66   97995   97992
      67   98004   98001      66   98007   98001      66   98007   98004      67
   98016   98013      66   98019   98013      66   98019   98016      67   98028
   98025      66   98031   98025      66   98031   98028      67   98040   98037
      66   98043   98037      66   98043   98040      67   98052   98049      66
   98055   98049      66   98055   98052      67   98064   98061      66   98067
   98061      66   98067   98064      67   98076   98073      66   98079   98073
      66   98079   98076      67   98088   98085      66   98091   98085      66
   98091   98088      67   98100   98097      66   98103   98097      66   98103
   98100      67   98112   98109      66   98115   98109      66   98115   98112
      67   98124   98121      66   98127   98121      66   98127   98124      67
   98136   98133      66   98139   98133      66   98139   98136      67   98148
   98145      66   98151   98145      66   98151   98148      67   98160   98157
      66   98163   98157      66   98163   98160      67   98172   98169      66
   98175   98169      66   98175   98172      67   98184   98181      66   98187
   98181      66   98187   98184      67   98196   98193      66   98199   98193
      66   98199   98196      67   98208   98205      66   98211   98205      66
   98211   98208      67   98220   98217      66   98223   98217      66   98223
   98220      67   98232   98229      66   98235   98229      66   98235   98232
      67   98244   98241      66   98247   98241      66   98247   98244      67
   98256   98253      66   98259   98253      66   98259   98256      67   98268
   98265      66   98271   98265      66   98271   98268      67   98280   98277
      66   98283   98277      66   98283   98280      67   98292   98289      66
   98295   98289      66   98295   98292      67   98304   98301      66   98307
   98301      66   98307   98304      67   98316   98313      66   98319   98313
      66   98319   98316      67   98328   98325      66   98331   98325      66
   98331   98328      67   98340   98337      66   98343   98337      66   98343
   98340      67   98352   98349      66   98355   98349      66   98355   98352
      67   98364   98361      66   98367   98361      66   98367   98364      67
   98376   98373      66   98379   98373      66   98379   98376      67   98388
   98385      66   98391   98385      66   98391   98388      67   98400   98397
      66   98403   98397      66   98403   98400      67   98412   98409      66
   98415   98409      66   98415   98412      67   98424   98421      66   98427
   98421      66   98427   98424      67   98436   98433      66   98439   98433
      66   98439   98436      67   98448   98445      66   98451   98445      66
   98451   98448      67   98460   98457      66   98463   98457      66   98463
   98460      67   98472   98469      66   98475   98469      66   98475   98472
      67   98484   98481      66   98487   98481      66   98487   98484      67
   98496   98493      66   98499   98493      66   98499   98496      67   98508
   98505      66   98511   98505      66   98511   98508      67   98520   98517
      66   98523   98517      66   98523   98520      67   98532   98529      66
   98535   98529      66   98535   98532      67   98544   98541      66   98547
   98541      66   98547   98544      67   98556   98553      66   98559   98553
      66   98559   98556      67   98568   98565      66   98571   98565      66
   98571   98568      67   98580   98577      66   98583   98577      66   98583
   98580      67   98592   98589      66   98595   98589      66   98595   98592
      67   98604   98601      66   98607   98601      66   98607   98604      67
   98616   98613      66   98619   98613      66   98619   98616      67   98628
   98625      66   98631   98625      66   98631   98628      67   98640   98637
      66   98643   98637      66   98643   98640      67   98652   98649      66
   98655   98649      66   98655   98652      67   98664   98661      66   98667
   98661      66   98667   98664      67   98676   98673      66   98679   98673
      66   98679   98676      67   98688   98685      66   98691   98685      66
   98691   98688      67   98700   98697      66   98703   98697      66   98703
   98700      67   98712   98709      66   98715   98709      66   98715   98712
      67   98724   98721      66   98727   98721      66   98727   98724      67
   98736   98733      66   98739   98733      66   98739   98736      67   98748
   98745      66   98751   98745      66   98751   98748      67   98760   98757
      66   98763   98757      66   98763   98760      67   98772   98769      66
   98775   98769      66   98775   98772      67   98784   98781      66   98787
   98781      66   98787   98784      67   98796   98793      66   98799   98793
      66   98799   98796      67   98808   98805      66   98811   98805      66
   98811   98808      67   98820   98817      66   98823   98817      66   98823
   98820      67   98832   98829      66   98835   98829      66   98835   98832
      67   98844   98841      66   98847   98841      66   98847   98844      67
   98856   98853      66   98859   98853      66   98859   98856      67   98868
   98865      66   98871   98865      66   98871   98868      67   98880   98877
      66   98883   98877      66   98883   98880      67   98892   98889      66
   98895   98889      66   98895   98892      67   98904   98901      66   98907
   98901      66   98907   98904      67   98916   98913      66   98919   98913
      66   98919   98916      67   98928   98925      66   98931   98925      66
   98931   98928      67   98940   98937      66   98943   98937      66   98943
   98940      67   98952   98949      66   98955   98949      66   98955   98952
      67   98964   98961      66   98967   98961      66   98967   98964      67
   98976   98973      66   98979   98973      66   98979   98976      67   98988
   98985      66   98991   98985      66   98991   98988      67   99000   98997
      66   99003   98997      66   99003   99000      67   99012   99009      66
   99015   99009      66   99015   99012      67   99024   99021      66   99027
   99021      66   99027   99024      67   99036   99033      66   99039   99033
      66   99039   99036      67   99048   99045      66   99051   99045      66
   99051   99048      67   99060   99057      66   99063   99057      66   99063
   99060      67   99072   99069      66   99075   99069      66   99075   99072
      67   99084   99081      66   99087   99081      66   99087   99084      67
   99096   99093      66   99099   99093      66   99099   99096      67   99108
   99105      66   99111   99105      66   99111   99108      67   99120   99117
      66   99123   99117      66   99123   99120      67   99132   99129      66
   99135   99129      66   99135   99132      67   99144   99141      66   99147
   99141      66   99147   99144      67   99156   99153      66   99159   99153
      66   99159   99156      67   99168   99165      66   99171   99165      66
   99171   99168      67   99180   99177      66   99183   99177      66   99183
   99180      67   99192   99189      66   99195   99189      66   99195   99192
      67   99204   99201      66   99207   99201      66   99207   99204      67
   99216   99213      66   99219   99213      66   99219   99216      67   99228
   99225      66   99231   99225      66   99231   99228      67   99240   99237
      66   99243   99237      66   99243   99240      67   99252   99249      66
   99255   99249      66   99255   99252      67   99264   99261      66   99267
   99261      66   99267   99264      67   99276   99273      66   99279   99273
      66   99279   99276      67   99288   99285      66   99291   99285      66
   99291   99288      67   99300   99297      66   99303   99297      66   99303
   99300      67   99312   99309      66   99315   99309      66   99315   99312
      67   99324   99321      66   99327   99321      66   99327   99324      67
   99336   99333      66   99339   99333      66   99339   99336      67   99348
   99345      66   99351   99345      66   99351   99348      67   99360   99357
      66   99363   99357      66   99363   99360      67   99372   99369      66
   99375   99369      66   99375   99372      67   99384   99381      66   99387
   99381      66   99387   99384      67   99396   99393      66   99399   99393
      66   99399   99396      67   99408   99405      66   99411   99405      66
   99411   99408      67   99420   99417      66   99423   99417      66   99423
   99420      67   99432   99429      66   99435   99429      66   99435   99432
      67   99444   99441      66   99447   99441      66   99447   99444      67
   99456   99453      66   99459   99453      66   99459   99456      67   99468
   99465      66   99471   99465      66   99471   99468      67   99480   99477
      66   99483   99477      66   99483   99480      67   99492   99489      66
   99495   99489      66   99495   99492      67   99504   99501      66   99507
   99501      66   99507   99504      67   99516   99513      66   99519   99513
      66   99519   99516      67   99528   99525      66   99531   99525      66
   99531   99528      67   99540   99537      66   99543   99537      66   99543
   99540      67   99552   99549      66   99555   99549      66   99555   99552
      67   99564   99561      66   99567   99561      66   99567   99564      67
   99576   99573      66   99579   99573      66   99579   99576      67   99588
   99585      66   99591   99585      66   99591   99588      67   99600   99597
      66   99603   99597      66   99603   99600      67   99612   99609      66
   99615   99609      66   99615   99612      67   99624   99621      66   99627
   99621      66   99627   99624      67   99636   99633      66   99639   99633
      66   99639   99636      67   99648   99645      66   99651   99645      66
   99651   99648      67   99660   99657      66   99663   99657      66   99663
   99660      67   99672   99669      66   99675   99669      66   99675   99672
      67   99684   99681      66   99687   99681      66   99687   99684      67
   99696   99693      66   99699   99693      66   99699   99696      67   99708
   99705      66   99711   99705      66   99711   99708      67   99720   99717
      66   99723   99717      66   99723   99720      67   99732   99729      66
   99735   99729      66   99735   99732      67   99744   99741      66   99747
   99741      66   99747   99744      67   99756   99753      66   99759   99753
      66   99759   99756      67   99768   99765      66   99771   99765      66
   99771   99768      67   99780   99777      66   99783   99777      66   99783
   99780      67   99792   99789      66   99795   99789      66   99795   99792
      67   99804   99801      66   99807   99801      66   99807   99804      67
   99816   99813      66   99819   99813      66   99819   99816      67   99828
   99825      66   99831   99825      66   99831   99828      67   99840   99837
      66   99843   99837      66   99843   99840      67   99852   99849      66
   99855   99849      66   99855   99852      67   99864   99861      66   99867
   99861      66   99867   99864      67   99876   99873      66   99879   99873
      66   99879   99876      67   99888   99885      66   99891   99885      66
   99891   99888      67   99900   99897      66   99903   99897      66   99903
   99900      67   99912   99909      66   99915   99909      66   99915   99912
      67   99924   99921      66   99927   99921      66   99927   99924      67
   99936   99933      66   99939   99933      66   99939   99936      67   99948
   99945      66   99951   99945      66   99951   99948      67   99960   99957
      66   99963   99957      66   99963   99960      67   99972   99969      66
   99975   99969      66   99975   99972      67   99984   99981      66   99987
   99981      66   99987   99984      67   99996   99993      66   99999   99993
      66   99999   99996      67  100008  100005      66  100011  100005      66
  100011  100008      67  100020  100017      66  100023  100017      66  100023
  100020      67  100032  100029      66  100035  100029      66  100035  100032
      67  100044  100041      66  100047  100041      66  100047  100044      67
  100056  100053      66  100059  100053      66  100059  100056      67  100068
  100065      66  100071  100065      66  100071  100068      67  100080  100077
      66  100083  100077      66  100083  100080      67  100092  100089      66
  100095  100089      66  100095  100092      67  100104  100101      66  100107
  100101      66  100107  100104      67  100116  100113      66  100119  100113
      66  100119  100116      67  100128  100125      66  100131  100125      66
  100131  100128      67  100140  100137      66  100143  100137      66  100143
  100140      67  100152  100149      66  100155  100149      66  100155  100152
      67  100164  100161      66  100167  100161      66  100167  100164      67
  100176  100173      66  100179  100173      66  100179  100176      67  100188
  100185      66  100191  100185      66  100191  100188      67  100200  100197
      66  100203  100197      66  100203  100200      67  100212  100209      66
  100215  100209      66  100215  100212      67  100224  100221      66  100227
  100221      66  100227  100224      67  100236  100233      66  100239  100233
      66  100239  100236      67  100248  100245      66  100251  100245      66
  100251  100248      67  100260  100257      66  100263  100257      66  100263
  100260      67  100272  100269      66  100275  100269      66  100275  100272
      67  100284  100281      66  100287  100281      66  100287  100284      67
  100296  100293      66  100299  100293      66  100299  100296      67  100308
  100305      66  100311  100305      66  100311  100308      67  100320  100317
      66  100323  100317      66  100323  100320      67  100332  100329      66
  100335  100329      66  100335  100332      67  100344  100341      66  100347
  100341      66  100347  100344      67  100356  100353      66  100359  100353
      66  100359  100356      67  100368  100365      66  100371  100365      66
  100371  100368      67  100380  100377      66  100383  100377      66  100383
  100380      67  100392  100389      66  100395  100389      66  100395  100392
      67  100404  100401      66  100407  100401      66  100407  100404      67
  100416  100413      66  100419  100413      66  100419  100416      67  100428
  100425      66  100431  100425      66  100431  100428      67  100440  100437
      66  100443  100437      66  100443  100440      67  100452  100449      66
  100455  100449      66  100455  100452      67  100464  100461      66  100467
  100461      66  100467  100464      67  100476  100473      66  100479  100473
      66  100479  100476      67  100488  100485      66  100491  100485      66
  100491  100488      67  100500  100497      66  100503  100497      66  100503
  100500      67  100512  100509      66  100515  100509      66  100515  100512
      67  100524  100521      66  100527  100521      66  100527  100524      67
  100536  100533      66  100539  100533      66  100539  100536      67  100548
  100545      66  100551  100545      66  100551  100548      67  100560  100557
      66  100563  100557      66  100563  100560      67  100572  100569      66
  100575  100569      66  100575  100572      67  100584  100581      66  100587
  100581      66  100587  100584      67  100596  100593      66  100599  100593
      66  100599  100596      67  100608  100605      66  100611  100605      66
  100611  100608      67  100620  100617      66  100623  100617      66  100623
  100620      67  100632  100629      66  100635  100629      66  100635  100632
      67  100644  100641      66  100647  100641      66  100647  100644      67
  100656  100653      66  100659  100653      66  100659  100656      67  100668
  100665      66  100671  100665      66  100671  100668      67  100680  100677
      66  100683  100677      66  100683  100680      67  100692  100689      66
  100695  100689      66  100695  100692      67  100704  100701      66  100707
  100701      66  100707  100704      67  100716  100713      66  100719  100713
      66  100719  100716      67  100728  100725      66  100731  100725      66
  100731  100728      67  100740  100737      66  100743  100737      66  100743
  100740      67  100752  100749      66  100755  100749      66  100755  100752
      67  100764  100761      66  100767  100761      66  100767  100764      67
  100776  100773      66  100779  100773      66  100779  100776      67  100788
  100785      66  100791  100785      66  100791  100788      67  100800  100797
      66  100803  100797      66  100803  100800      67  100812  100809      66
  100815  100809      66  100815  100812      67  100824  100821      66  100827
  100821      66  100827  100824      67  100836  100833      66  100839  100833
      66  100839  100836      67  100848  100845      66  100851  100845      66
  100851  100848      67  100860  100857      66  100863  100857      66  100863
  100860      67  100872  100869      66  100875  100869      66  100875  100872
      67  100884  100881      66  100887  100881      66  100887  100884      67
  100896  100893      66  100899  100893      66  100899  100896      67  100908
  100905      66  100911  100905      66  100911  100908      67  100920  100917
      66  100923  100917      66  100923  100920      67  100932  100929      66
  100935  100929      66  100935  100932      67  100944  100941      66  100947
  100941      66  100947  100944      67  100956  100953      66  100959  100953
      66  100959  100956      67  100968  100965      66  100971  100965      66
  100971  100968      67  100980  100977      66  100983  100977      66  100983
  100980      67  100992  100989      66  100995  100989      66  100995  100992
      67  101004  101001      66  101007  101001      66  101007  101004      67
  101016  101013      66  101019  101013      66  101019  101016      67  101028
  101025      66  101031  101025      66  101031  101028      67  101040  101037
      66  101043  101037      66  101043  101040      67  101052  101049      66
  101055  101049      66  101055  101052      67  101064  101061      66  101067
  101061      66  101067  101064      67  101076  101073      66  101079  101073
      66  101079  101076      67  101088  101085      66  101091  101085      66
  101091  101088      67  101100  101097      66  101103  101097      66  101103
  101100      67  101112  101109      66  101115  101109      66  101115  101112
      67  101124  101121      66  101127  101121      66  101127  101124      67
  101136  101133      66  101139  101133      66  101139  101136      67  101148
  101145      66  101151  101145      66  101151  101148      67  101160  101157
      66  101163  101157      66  101163  101160      67  101172  101169      66
  101175  101169      66  101175  101172      67  101184  101181      66  101187
  101181      66  101187  101184      67  101196  101193      66  101199  101193
      66  101199  101196      67  101208  101205      66  101211  101205      66
  101211  101208      67  101220  101217      66  101223  101217      66  101223
  101220      67  101232  101229      66  101235  101229      66  101235  101232
      67  101244  101241      66  101247  101241      66  101247  101244      67
  101256  101253      66  101259  101253      66  101259  101256      67  101268
  101265      66  101271  101265      66  101271  101268      67  101280  101277
      66  101283  101277      66  101283  101280      67  101292  101289      66
  101295  101289      66  101295  101292      67  101304  101301      66  101307
  101301      66  101307  101304      67  101316  101313      66  101319  101313
      66  101319  101316      67  101328  101325      66  101331  101325      66
  101331  101328      67  101340  101337      66  101343  101337      66  101343
  101340      67  101352  101349      66  101355  101349      66  101355  101352
      67  101364  101361      66  101367  101361      66  101367  101364      67
  101376  101373      66  101379  101373      66  101379  101376      67  101388
  101385      66  101391  101385      66  101391  101388      67  101400  101397
      66  101403  101397      66  101403  101400      67  101412  101409      66
  101415  101409      66  101415  101412      67  101424  101421      66  101427
  101421      66  101427  101424      67  101436  101433      66  101439  101433
      66  101439  101436      67  101448  101445      66  101451  101445      66
  101451  101448      67  101460  101457      66  101463  101457      66  101463
  101460      67  101472  101469      66  101475  101469      66  101475  101472
      67  101484  101481      66  101487  101481      66  101487  101484      67
  101496  101493      66  101499  101493      66  101499  101496      67  101508
  101505      66  101511  101505      66  101511  101508      67  101520  101517
      66  101523  101517      66  101523  101520      67  101532  101529      66
  101535  101529      66  101535  101532      67  101544  101541      66  101547
  101541      66  101547  101544      67  101556  101553      66  101559  101553
      66  101559  101556      67  101568  101565      66  101571  101565      66
  101571  101568      67  101580  101577      66  101583  101577      66  101583
  101580      67  101592  101589      66  101595  101589      66  101595  101592
      67  101604  101601      66  101607  101601      66  101607  101604      67
  101616  101613      66  101619  101613      66  101619  101616      67  101628
  101625      66  101631  101625      66  101631  101628      67  101640  101637
      66  101643  101637      66  101643  101640      67  101652  101649      66
  101655  101649      66  101655  101652      67  101664  101661      66  101667
  101661      66  101667  101664      67  101676  101673      66  101679  101673
      66  101679  101676      67  101688  101685      66  101691  101685      66
  101691  101688      67  101700  101697      66  101703  101697      66  101703
  101700      67  101712  101709      66  101715  101709      66  101715  101712
      67  101724  101721      66  101727  101721      66  101727  101724      67
  101736  101733      66  101739  101733      66  101739  101736      67  101748
  101745      66  101751  101745      66  101751  101748      67  101760  101757
      66  101763  101757      66  101763  101760      67  101772  101769      66
  101775  101769      66  101775  101772      67  101784  101781      66  101787
  101781      66  101787  101784      67  101796  101793      66  101799  101793
      66  101799  101796      67  101808  101805      66  101811  101805      66
  101811  101808      67  101820  101817      66  101823  101817      66  101823
  101820      67  101832  101829      66  101835  101829      66  101835  101832
      67  101844  101841      66  101847  101841      66  101847  101844      67
  101856  101853      66  101859  101853      66  101859  101856      67  101868
  101865      66  101871  101865      66  101871  101868      67  101880  101877
      66  101883  101877      66  101883  101880      67  101892  101889      66
  101895  101889      66  101895  101892      67  101904  101901      66  101907
  101901      66  101907  101904      67  101916  101913      66  101919  101913
      66  101919  101916      67  101928  101925      66  101931  101925      66
  101931  101928      67  101940  101937      66  101943  101937      66  101943
  101940      67  101952  101949      66  101955  101949      66  101955  101952
      67  101964  101961      66  101967  101961      66  101967  101964      67
  101976  101973      66  101979  101973      66  101979  101976      67  101988
  101985      66  101991  101985      66  101991  101988      67  102000  101997
      66  102003  101997      66  102003  102000      67  102012  102009      66
  102015  102009      66  102015  102012      67  102024  102021      66  102027
  102021      66  102027  102024      67  102036  102033      66  102039  102033
      66  102039  102036      67  102048  102045      66  102051  102045      66
  102051  102048      67  102060  102057      66  102063  102057      66  102063
  102060      67  102072  102069      66  102075  102069      66  102075  102072
      67  102084  102081      66  102087  102081      66  102087  102084      67
  102096  102093      66  102099  102093      66  102099  102096      67  102108
  102105      66  102111  102105      66  102111  102108      67  102120  102117
      66  102123  102117      66  102123  102120      67  102132  102129      66
  102135  102129      66  102135  102132      67  102144  102141      66  102147
  102141      66  102147  102144      67  102156  102153      66  102159  102153
      66  102159  102156      67  102168  102165      66  102171  102165      66
  102171  102168      67  102180  102177      66  102183  102177      66  102183
  102180      67  102192  102189      66  102195  102189      66  102195  102192
      67  102204  102201      66  102207  102201      66  102207  102204      67
  102216  102213      66  102219  102213      66  102219  102216      67  102228
  102225      66  102231  102225      66  102231  102228      67  102240  102237
      66  102243  102237      66  102243  102240      67  102252  102249      66
  102255  102249      66  102255  102252      67  102264  102261      66  102267
  102261      66  102267  102264      67  102276  102273      66  102279  102273
      66  102279  102276      67  102288  102285      66  102291  102285      66
  102291  102288      67  102300  102297      66  102303  102297      66  102303
  102300      67  102312  102309      66  102315  102309      66  102315  102312
      67  102324  102321      66  102327  102321      66  102327  102324      67
  102336  102333      66  102339  102333      66  102339  102336      67  102348
  102345      66  102351  102345      66  102351  102348      67  102360  102357
      66  102363  102357      66  102363  102360      67  102372  102369      66
  102375  102369      66  102375  102372      67  102384  102381      66  102387
  102381      66  102387  102384      67  102396  102393      66  102399  102393
      66  102399  102396      67  102408  102405      66  102411  102405      66
  102411  102408      67  102420  102417      66  102423  102417      66  102423
  102420      67  102432  102429      66  102435  102429      66  102435  102432
      67  102444  102441      66  102447  102441      66  102447  102444      67
  102456  102453      66  102459  102453      66  102459  102456      67  102468
  102465      66  102471  102465      66  102471  102468      67  102480  102477
      66  102483  102477      66  102483  102480      67  102492  102489      66
  102495  102489      66  102495  102492      67  102504  102501      66  102507
  102501      66  102507  102504      67  102516  102513      66  102519  102513
      66  102519  102516      67  102528  102525      66  102531  102525      66
  102531  102528      67  102540  102537      66  102543  102537      66  102543
  102540      67  102552  102549      66  102555  102549      66  102555  102552
      67  102564  102561      66  102567  102561      66  102567  102564      67
  102576  102573      66  102579  102573      66  102579  102576      67  102588
  102585      66  102591  102585      66  102591  102588      67  102600  102597
      66  102603  102597      66  102603  102600      67  102612  102609      66
  102615  102609      66  102615  102612      67  102624  102621      66  102627
  102621      66  102627  102624      67  102636  102633      66  102639  102633
      66  102639  102636      67  102648  102645      66  102651  102645      66
  102651  102648      67  102660  102657      66  102663  102657      66  102663
  102660      67  102672  102669      66  102675  102669      66  102675  102672
      67  102684  102681      66  102687  102681      66  102687  102684      67
  102696  102693      66  102699  102693      66  102699  102696      67  102708
  102705      66  102711  102705      66  102711  102708      67  102720  102717
      66  102723  102717      66  102723  102720      67  102732  102729      66
  102735  102729      66  102735  102732      67  102744  102741      66  102747
  102741      66  102747  102744      67  102756  102753      66  102759  102753
      66  102759  102756      67  102768  102765      66  102771  102765      66
  102771  102768      67  102780  102777      66  102783  102777      66  102783
  102780      67  102792  102789      66  102795  102789      66  102795  102792
      67  102804  102801      66  102807  102801      66  102807  102804      67
  102816  102813      66  102819  102813      66  102819  102816      67  102828
  102825      66  102831  102825      66  102831  102828      67  102840  102837
      66  102843  102837      66  102843  102840      67  102852  102849      66
  102855  102849      66  102855  102852      67  102864  102861      66  102867
  102861      66  102867  102864      67  102876  102873      66  102879  102873
      66  102879  102876      67  102888  102885      66  102891  102885      66
  102891  102888      67  102900  102897      66  102903  102897      66  102903
  102900      67  102912  102909      66  102915  102909      66  102915  102912
      67  102924  102921      66  102927  102921      66  102927  102924      67
  102936  102933      66  102939  102933      66  102939  102936      67  102948
  102945      66  102951  102945      66  102951  102948      67  102960  102957
      66  102963  102957      66  102963  102960      67  102972  102969      66
  102975  102969      66  102975  102972      67  102984  102981      66  102987
  102981      66  102987  102984      67  102996  102993      66  102999  102993
      66  102999  102996      67  103008  103005      66  103011  103005      66
  103011  103008      67  103020  103017      66  103023  103017      66  103023
  103020      67  103032  103029      66  103035  103029      66  103035  103032
      67  103044  103041      66  103047  103041      66  103047  103044      67
  103056  103053      66  103059  103053      66  103059  103056      67  103068
  103065      66  103071  103065      66  103071  103068      67  103080  103077
      66  103083  103077      66  103083  103080      67  103092  103089      66
  103095  103089      66  103095  103092      67  103104  103101      66  103107
  103101      66  103107  103104      67  103116  103113      66  103119  103113
      66  103119  103116      67  103128  103125      66  103131  103125      66
  103131  103128      67  103140  103137      66  103143  103137      66  103143
  103140      67  103152  103149      66  103155  103149      66  103155  103152
      67  103164  103161      66  103167  103161      66  103167  103164      67
  103176  103173      66  103179  103173      66  103179  103176      67  103188
  103185      66  103191  103185      66  103191  103188      67  103200  103197
      66  103203  103197      66  103203  103200      67  103212  103209      66
  103215  103209      66  103215  103212      67  103224  103221      66  103227
  103221      66  103227  103224      67  103236  103233      66  103239  103233
      66  103239  103236      67  103248  103245      66  103251  103245      66
  103251  103248      67  103260  103257      66  103263  103257      66  103263
  103260      67  103272  103269      66  103275  103269      66  103275  103272
      67  103284  103281      66  103287  103281      66  103287  103284      67
  103296  103293      66  103299  103293      66  103299  103296      67  103308
  103305      66  103311  103305      66  103311  103308      67  103320  103317
      66  103323  103317      66  103323  103320      67  103332  103329      66
  103335  103329      66  103335  103332      67  103344  103341      66  103347
  103341      66  103347  103344      67  103356  103353      66  103359  103353
      66  103359  103356      67  103368  103365      66  103371  103365      66
  103371  103368      67  103380  103377      66  103383  103377      66  103383
  103380      67  103392  103389      66  103395  103389      66  103395  103392
      67  103404  103401      66  103407  103401      66  103407  103404      67
  103416  103413      66  103419  103413      66  103419  103416      67  103428
  103425      66  103431  103425      66  103431  103428      67  103440  103437
      66  103443  103437      66  103443  103440      67  103452  103449      66
  103455  103449      66  103455  103452      67  103464  103461      66  103467
  103461      66  103467  103464      67  103476  103473      66  103479  103473
      66  103479  103476      67  103488  103485      66  103491  103485      66
  103491  103488      67  103500  103497      66  103503  103497      66  103503
  103500      67  103512  103509      66  103515  103509      66  103515  103512
      67  103524  103521      66  103527  103521      66  103527  103524      67
  103536  103533      66  103539  103533      66  103539  103536      67  103548
  103545      66  103551  103545      66  103551  103548      67  103560  103557
      66  103563  103557      66  103563  103560      67  103572  103569      66
  103575  103569      66  103575  103572      67  103584  103581      66  103587
  103581      66  103587  103584      67  103596  103593      66  103599  103593
      66  103599  103596      67  103608  103605      66  103611  103605      66
  103611  103608      67  103620  103617      66  103623  103617      66  103623
  103620      67  103632  103629      66  103635  103629      66  103635  103632
      67  103644  103641      66  103647  103641      66  103647  103644      67
  103656  103653      66  103659  103653      66  103659  103656      67  103668
  103665      66  103671  103665      66  103671  103668      67  103680  103677
      66  103683  103677      66  103683  103680      67  103692  103689      66
  103695  103689      66  103695  103692      67  103704  103701      66  103707
  103701      66  103707  103704      67  103716  103713      66  103719  103713
      66  103719  103716      67  103728  103725      66  103731  103725      66
  103731  103728      67  103740  103737      66  103743  103737      66  103743
  103740      67  103752  103749      66  103755  103749      66  103755  103752
      67  103764  103761      66  103767  103761      66  103767  103764      67
  103776  103773      66  103779  103773      66  103779  103776      67  103788
  103785      66  103791  103785      66  103791  103788      67  103800  103797
      66  103803  103797      66  103803  103800      67  103812  103809      66
  103815  103809      66  103815  103812      67  103824  103821      66  103827
  103821      66  103827  103824      67  103836  103833      66  103839  103833
      66  103839  103836      67  103848  103845      66  103851  103845      66
  103851  103848      67  103860  103857      66  103863  103857      66  103863
  103860      67  103872  103869      66  103875  103869      66  103875  103872
      67  103884  103881      66  103887  103881      66  103887  103884      67
  103896  103893      66  103899  103893      66  103899  103896      67  103908
  103905      66  103911  103905      66  103911  103908      67  103920  103917
      66  103923  103917      66  103923  103920      67  103932  103929      66
  103935  103929      66  103935  103932      67  103944  103941      66  103947
  103941      66  103947  103944      67  103956  103953      66  103959  103953
      66  103959  103956      67  103968  103965      66  103971  103965      66
  103971  103968      67  103980  103977      66  103983  103977      66  103983
  103980      67  103992  103989      66  103995  103989      66  103995  103992
      67  104004  104001      66  104007  104001      66  104007  104004      67
  104016  104013      66  104019  104013      66  104019  104016      67  104028
  104025      66  104031  104025      66  104031  104028      67  104040  104037
      66  104043  104037      66  104043  104040      67  104052  104049      66
  104055  104049      66  104055  104052      67  104064  104061      66  104067
  104061      66  104067  104064      67  104076  104073      66  104079  104073
      66  104079  104076      67  104088  104085      66  104091  104085      66
  104091  104088      67  104100  104097      66  104103  104097      66  104103
  104100      67  104112  104109      66  104115  104109      66  104115  104112
      67  104124  104121      66  104127  104121      66  104127  104124      67
  104136  104133      66  104139  104133      66  104139  104136      67  104148
  104145      66  104151  104145      66  104151  104148      67  104160  104157
      66  104163  104157      66  104163  104160      67  104172  104169      66
  104175  104169      66  104175  104172      67  104184  104181      66  104187
  104181      66  104187  104184      67  104196  104193      66  104199  104193
      66  104199  104196      67  104208  104205      66  104211  104205      66
  104211  104208      67  104220  104217      66  104223  104217      66  104223
  104220      67  104232  104229      66  104235  104229      66  104235  104232
      67  104244  104241      66  104247  104241      66  104247  104244      67
  104256  104253      66  104259  104253      66  104259  104256      67  104268
  104265      66  104271  104265      66  104271  104268      67  104280  104277
      66  104283  104277      66  104283  104280      67  104292  104289      66
  104295  104289      66  104295  104292      67  104304  104301      66  104307
  104301      66  104307  104304      67  104316  104313      66  104319  104313
      66  104319  104316      67  104328  104325      66  104331  104325      66
  104331  104328      67  104340  104337      66  104343  104337      66  104343
  104340      67  104352  104349      66  104355  104349      66  104355  104352
      67  104364  104361      66  104367  104361      66  104367  104364      67
  104376  104373      66  104379  104373      66  104379  104376      67  104388
  104385      66  104391  104385      66  104391  104388      67  104400  104397
      66  104403  104397      66  104403  104400      67  104412  104409      66
  104415  104409      66  104415  104412      67  104424  104421      66  104427
  104421      66  104427  104424      67  104436  104433      66  104439  104433
      66  104439  104436      67  104448  104445      66  104451  104445      66
  104451  104448      67  104460  104457      66  104463  104457      66  104463
  104460      67  104472  104469      66  104475  104469      66  104475  104472
      67  104484  104481      66  104487  104481      66  104487  104484      67
  104496  104493      66  104499  104493      66  104499  104496      67  104508
  104505      66  104511  104505      66  104511  104508      67  104520  104517
      66  104523  104517      66  104523  104520      67  104532  104529      66
  104535  104529      66  104535  104532      67  104544  104541      66  104547
  104541      66  104547  104544      67  104556  104553      66  104559  104553
      66  104559  104556      67  104568  104565      66  104571  104565      66
  104571  104568      67  104580  104577      66  104583  104577      66  104583
  104580      67  104592  104589      66  104595  104589      66  104595  104592
      67  104604  104601      66  104607  104601      66  104607  104604      67
  104616  104613      66  104619  104613      66  104619  104616      67  104628
  104625      66  104631  104625      66  104631  104628      67  104640  104637
      66  104643  104637      66  104643  104640      67  104652  104649      66
  104655  104649      66  104655  104652      67  104664  104661      66  104667
  104661      66  104667  104664      67  104676  104673      66  104679  104673
      66  104679  104676      67  104688  104685      66  104691  104685      66
  104691  104688      67  104700  104697      66  104703  104697      66  104703
  104700      67  104712  104709      66  104715  104709      66  104715  104712
      67  104724  104721      66  104727  104721      66  104727  104724      67
  104736  104733      66  104739  104733      66  104739  104736      67  104748
  104745      66  104751  104745      66  104751  104748      67  104760  104757
      66  104763  104757      66  104763  104760      67  104772  104769      66
  104775  104769      66  104775  104772      67  104784  104781      66  104787
  104781      66  104787  104784      67  104796  104793      66  104799  104793
      66  104799  104796      67  104808  104805      66  104811  104805      66
  104811  104808      67  104820  104817      66  104823  104817      66  104823
  104820      67  104832  104829      66  104835  104829      66  104835  104832
      67  104844  104841      66  104847  104841      66  104847  104844      67
  104856  104853      66  104859  104853      66  104859  104856      67  104868
  104865      66  104871  104865      66  104871  104868      67  104880  104877
      66  104883  104877      66  104883  104880      67  104892  104889      66
  104895  104889      66  104895  104892      67  104904  104901      66  104907
  104901      66  104907  104904      67  104916  104913      66  104919  104913
      66  104919  104916      67  104928  104925      66  104931  104925      66
  104931  104928      67  104940  104937      66  104943  104937      66  104943
  104940      67  104952  104949      66  104955  104949      66  104955  104952
      67  104964  104961      66  104967  104961      66  104967  104964      67
  104976  104973      66  104979  104973      66  104979  104976      67  104988
  104985      66  104991  104985      66  104991  104988      67  105000  104997
      66  105003  104997      66  105003  105000      67  105012  105009      66
  105015  105009      66  105015  105012      67  105024  105021      66  105027
  105021      66  105027  105024      67  105036  105033      66  105039  105033
      66  105039  105036      67  105048  105045      66  105051  105045      66
  105051  105048      67  105060  105057      66  105063  105057      66  105063
  105060      67  105072  105069      66  105075  105069      66  105075  105072
      67  105084  105081      66  105087  105081      66  105087  105084      67
  105096  105093      66  105099  105093      66  105099  105096      67  105108
  105105      66  105111  105105      66  105111  105108      67  105120  105117
      66  105123  105117      66  105123  105120      67  105132  105129      66
  105135  105129      66  105135  105132      67  105144  105141      66  105147
  105141      66  105147  105144      67  105156  105153      66  105159  105153
      66  105159  105156      67  105168  105165      66  105171  105165      66
  105171  105168      67  105180  105177      66  105183  105177      66  105183
  105180      67  105192  105189      66  105195  105189      66  105195  105192
      67  105204  105201      66  105207  105201      66  105207  105204      67
  105216  105213      66  105219  105213      66  105219  105216      67  105228
  105225      66  105231  105225      66  105231  105228      67  105240  105237
      66  105243  105237      66  105243  105240      67  105252  105249      66
  105255  105249      66  105255  105252      67  105264  105261      66  105267
  105261      66  105267  105264      67  105276  105273      66  105279  105273
      66  105279  105276      67  105288  105285      66  105291  105285      66
  105291  105288      67  105300  105297      66  105303  105297      66  105303
  105300      67  105312  105309      66  105315  105309      66  105315  105312
      67  105324  105321      66  105327  105321      66  105327  105324      67
  105336  105333      66  105339  105333      66  105339  105336      67  105348
  105345      66  105351  105345      66  105351  105348      67  105360  105357
      66  105363  105357      66  105363  105360      67  105372  105369      66
  105375  105369      66  105375  105372      67  105384  105381      66  105387
  105381      66  105387  105384      67  105396  105393      66  105399  105393
      66  105399  105396      67  105408  105405      66  105411  105405      66
  105411  105408      67  105420  105417      66  105423  105417      66  105423
  105420      67  105432  105429      66  105435  105429      66  105435  105432
      67  105444  105441      66  105447  105441      66  105447  105444      67
  105456  105453      66  105459  105453      66  105459  105456      67  105468
  105465      66  105471  105465      66  105471  105468      67  105480  105477
      66  105483  105477      66  105483  105480      67  105492  105489      66
  105495  105489      66  105495  105492      67  105504  105501      66  105507
  105501      66  105507  105504      67  105516  105513      66  105519  105513
      66  105519  105516      67  105528  105525      66  105531  105525      66
  105531  105528      67  105540  105537      66  105543  105537      66  105543
  105540      67  105552  105549      66  105555  105549      66  105555  105552
      67  105564  105561      66  105567  105561      66  105567  105564      67
  105576  105573      66  105579  105573      66  105579  105576      67  105588
  105585      66  105591  105585      66  105591  105588      67  105600  105597
      66  105603  105597      66  105603  105600      67  105612  105609      66
  105615  105609      66  105615  105612      67  105624  105621      66  105627
  105621      66  105627  105624      67  105636  105633      66  105639  105633
      66  105639  105636      67  105648  105645      66  105651  105645      66
  105651  105648      67  105660  105657      66  105663  105657      66  105663
  105660      67  105672  105669      66  105675  105669      66  105675  105672
      67  105684  105681      66  105687  105681      66  105687  105684      67
  105696  105693      66  105699  105693      66  105699  105696      67  105708
  105705      66  105711  105705      66  105711  105708      67  105720  105717
      66  105723  105717      66  105723  105720      67  105732  105729      66
  105735  105729      66  105735  105732      67  105744  105741      66  105747
  105741      66  105747  105744      67  105756  105753      66  105759  105753
      66  105759  105756      67  105768  105765      66  105771  105765      66
  105771  105768      67  105780  105777      66  105783  105777      66  105783
  105780      67  105792  105789      66  105795  105789      66  105795  105792
      67  105804  105801      66  105807  105801      66  105807  105804      67
  105816  105813      66  105819  105813      66  105819  105816      67  105828
  105825      66  105831  105825      66  105831  105828      67  105840  105837
      66  105843  105837      66  105843  105840      67  105852  105849      66
  105855  105849      66  105855  105852      67  105864  105861      66  105867
  105861      66  105867  105864      67  105876  105873      66  105879  105873
      66  105879  105876      67  105888  105885      66  105891  105885      66
  105891  105888      67  105900  105897      66  105903  105897      66  105903
  105900      67  105912  105909      66  105915  105909      66  105915  105912
      67  105924  105921      66  105927  105921      66  105927  105924      67
  105936  105933      66  105939  105933      66  105939  105936      67  105948
  105945      66  105951  105945      66  105951  105948      67  105960  105957
      66  105963  105957      66  105963  105960      67  105972  105969      66
  105975  105969      66  105975  105972      67  105984  105981      66  105987
  105981      66  105987  105984      67  105996  105993      66  105999  105993
      66  105999  105996      67  106008  106005      66  106011  106005      66
  106011  106008      67  106020  106017      66  106023  106017      66  106023
  106020      67  106032  106029      66  106035  106029      66  106035  106032
      67  106044  106041      66  106047  106041      66  106047  106044      67
  106056  106053      66  106059  106053      66  106059  106056      67  106068
  106065      66  106071  106065      66  106071  106068      67  106080  106077
      66  106083  106077      66  106083  106080      67  106092  106089      66
  106095  106089      66  106095  106092      67  106104  106101      66  106107
  106101      66  106107  106104      67  106116  106113      66  106119  106113
      66  106119  106116      67  106128  106125      66  106131  106125      66
  106131  106128      67  106140  106137      66  106143  106137      66  106143
  106140      67  106152  106149      66  106155  106149      66  106155  106152
      67  106164  106161      66  106167  106161      66  106167  106164      67
  106176  106173      66  106179  106173      66  106179  106176      67  106188
  106185      66  106191  106185      66  106191  106188      67  106200  106197
      66  106203  106197      66  106203  106200      67  106212  106209      66
  106215  106209      66  106215  106212      67  106224  106221      66  106227
  106221      66  106227  106224      67  106236  106233      66  106239  106233
      66  106239  106236      67  106248  106245      66  106251  106245      66
  106251  106248      67  106260  106257      66  106263  106257      66  106263
  106260      67  106272  106269      66  106275  106269      66  106275  106272
      67  106284  106281      66  106287  106281      66  106287  106284      67
  106296  106293      66  106299  106293      66  106299  106296      67  106308
  106305      66  106311  106305      66  106311  106308      67  106320  106317
      66  106323  106317      66  106323  106320      67  106332  106329      66
  106335  106329      66  106335  106332      67  106344  106341      66  106347
  106341      66  106347  106344      67  106356  106353      66  106359  106353
      66  106359  106356      67  106368  106365      66  106371  106365      66
  106371  106368      67  106380  106377      66  106383  106377      66  106383
  106380      67  106392  106389      66  106395  106389      66  106395  106392
      67  106404  106401      66  106407  106401      66  106407  106404      67
  106416  106413      66  106419  106413      66  106419  106416      67  106428
  106425      66  106431  106425      66  106431  106428      67  106440  106437
      66  106443  106437      66  106443  106440      67  106452  106449      66
  106455  106449      66  106455  106452      67  106464  106461      66  106467
  106461      66  106467  106464      67  106476  106473      66  106479  106473
      66  106479  106476      67  106488  106485      66  106491  106485      66
  106491  106488      67  106500  106497      66  106503  106497      66  106503
  106500      67  106512  106509      66  106515  106509      66  106515  106512
      67  106524  106521      66  106527  106521      66  106527  106524      67
  106536  106533      66  106539  106533      66  106539  106536      67  106548
  106545      66  106551  106545      66  106551  106548      67  106560  106557
      66  106563  106557      66  106563  106560      67  106572  106569      66
  106575  106569      66  106575  106572      67  106584  106581      66  106587
  106581      66  106587  106584      67  106596  106593      66  106599  106593
      66  106599  106596      67  106608  106605      66  106611  106605      66
  106611  106608      67  106620  106617      66  106623  106617      66  106623
  106620      67  106632  106629      66  106635  106629      66  106635  106632
      67  106644  106641      66  106647  106641      66  106647  106644      67
  106656  106653      66  106659  106653      66  106659  106656      67  106668
  106665      66  106671  106665      66  106671  106668      67  106680  106677
      66  106683  106677      66  106683  106680      67  106692  106689      66
  106695  106689      66  106695  106692      67  106704  106701      66  106707
  106701      66  106707  106704      67  106716  106713      66  106719  106713
      66  106719  106716      67  106728  106725      66  106731  106725      66
  106731  106728      67  106740  106737      66  106743  106737      66  106743
  106740      67  106752  106749      66  106755  106749      66  106755  106752
      67  106764  106761      66  106767  106761      66  106767  106764      67
  106776  106773      66  106779  106773      66  106779  106776      67  106788
  106785      66  106791  106785      66  106791  106788      67  106800  106797
      66  106803  106797      66  106803  106800      67  106812  106809      66
  106815  106809      66  106815  106812      67  106824  106821      66  106827
  106821      66  106827  106824      67  106836  106833      66  106839  106833
      66  106839  106836      67  106848  106845      66  106851  106845      66
  106851  106848      67  106860  106857      66  106863  106857      66  106863
  106860      67  106872  106869      66  106875  106869      66  106875  106872
      67  106884  106881      66  106887  106881      66  106887  106884      67
  106896  106893      66  106899  106893      66  106899  106896      67  106908
  106905      66  106911  106905      66  106911  106908      67  106920  106917
      66  106923  106917      66  106923  106920      67  106932  106929      66
  106935  106929      66  106935  106932      67  106944  106941      66  106947
  106941      66  106947  106944      67  106956  106953      66  106959  106953
      66  106959  106956      67  106968  106965      66  106971  106965      66
  106971  106968      67  106980  106977      66  106983  106977      66  106983
  106980      67  106992  106989      66  106995  106989      66  106995  106992
      67  107004  107001      66  107007  107001      66  107007  107004      67
  107016  107013      66  107019  107013      66  107019  107016      67  107028
  107025      66  107031  107025      66  107031  107028      67  107040  107037
      66  107043  107037      66  107043  107040      67  107052  107049      66
  107055  107049      66  107055  107052      67  107064  107061      66  107067
  107061      66  107067  107064      67  107076  107073      66  107079  107073
      66  107079  107076      67  107088  107085      66  107091  107085      66
  107091  107088      67  107100  107097      66  107103  107097      66  107103
  107100      67  107112  107109      66  107115  107109      66  107115  107112
      67  107124  107121      66  107127  107121      66  107127  107124      67
  107136  107133      66  107139  107133      66  107139  107136      67  107148
  107145      66  107151  107145      66  107151  107148      67  107160  107157
      66  107163  107157      66  107163  107160      67  107172  107169      66
  107175  107169      66  107175  107172      67  107184  107181      66  107187
  107181      66  107187  107184      67  107196  107193      66  107199  107193
      66  107199  107196      67  107208  107205      66  107211  107205      66
  107211  107208      67  107220  107217      66  107223  107217      66  107223
  107220      67  107232  107229      66  107235  107229      66  107235  107232
      67  107244  107241      66  107247  107241      66  107247  107244      67
  107256  107253      66  107259  107253      66  107259  107256      67  107268
  107265      66  107271  107265      66  107271  107268      67  107280  107277
      66  107283  107277      66  107283  107280      67  107292  107289      66
  107295  107289      66  107295  107292      67  107304  107301      66  107307
  107301      66  107307  107304      67  107316  107313      66  107319  107313
      66  107319  107316      67  107328  107325      66  107331  107325      66
  107331  107328      67  107340  107337      66  107343  107337      66  107343
  107340      67  107352  107349      66  107355  107349      66  107355  107352
      67  107364  107361      66  107367  107361      66  107367  107364      67
  107376  107373      66  107379  107373      66  107379  107376      67  107388
  107385      66  107391  107385      66  107391  107388      67  107400  107397
      66  107403  107397      66  107403  107400      67  107412  107409      66
  107415  107409      66  107415  107412      67  107424  107421      66  107427
  107421      66  107427  107424      67  107436  107433      66  107439  107433
      66  107439  107436      67  107448  107445      66  107451  107445      66
  107451  107448      67  107460  107457      66  107463  107457      66  107463
  107460      67  107472  107469      66  107475  107469      66  107475  107472
      67  107484  107481      66  107487  107481      66  107487  107484      67
  107496  107493      66  107499  107493      66  107499  107496      67  107508
  107505      66  107511  107505      66  107511  107508      67  107520  107517
      66  107523  107517      66  107523  107520      67  107532  107529      66
  107535  107529      66  107535  107532      67  107544  107541      66  107547
  107541      66  107547  107544      67  107556  107553      66  107559  107553
      66  107559  107556      67  107568  107565      66  107571  107565      66
  107571  107568      67  107580  107577      66  107583  107577      66  107583
  107580      67  107592  107589      66  107595  107589      66  107595  107592
      67  107604  107601      66  107607  107601      66  107607  107604      67
  107616  107613      66  107619  107613      66  107619  107616      67  107628
  107625      66  107631  107625      66  107631  107628      67  107640  107637
      66  107643  107637      66  107643  107640      67  107652  107649      66
  107655  107649      66  107655  107652      67  107664  107661      66  107667
  107661      66  107667  107664      67  107676  107673      66  107679  107673
      66  107679  107676      67  107688  107685      66  107691  107685      66
  107691  107688      67  107700  107697      66  107703  107697      66  107703
  107700      67  107712  107709      66  107715  107709      66  107715  107712
      67  107724  107721      66  107727  107721      66  107727  107724      67
  107736  107733      66  107739  107733      66  107739  107736      67  107748
  107745      66  107751  107745      66  107751  107748      67  107760  107757
      66  107763  107757      66  107763  107760      67  107772  107769      66
  107775  107769      66  107775  107772      67  107784  107781      66  107787
  107781      66  107787  107784      67  107796  107793      66  107799  107793
      66  107799  107796      67  107808  107805      66  107811  107805      66
  107811  107808      67  107820  107817      66  107823  107817      66  107823
  107820      67  107832  107829      66  107835  107829      66  107835  107832
      67  107844  107841      66  107847  107841      66  107847  107844      67
  107856  107853      66  107859  107853      66  107859  107856      67  107868
  107865      66  107871  107865      66  107871  107868      67  107880  107877
      66  107883  107877      66  107883  107880      67  107892  107889      66
  107895  107889      66  107895  107892      67  107904  107901      66  107907
  107901      66  107907  107904      67  107916  107913      66  107919  107913
      66  107919  107916      67  107928  107925      66  107931  107925      66
  107931  107928      67  107940  107937      66  107943  107937      66  107943
  107940      67  107952  107949      66  107955  107949      66  107955  107952
      67  107964  107961      66  107967  107961      66  107967  107964      67
  107976  107973      66  107979  107973      66  107979  107976      67  107988
  107985      66  107991  107985      66  107991  107988      67  108000  107997
      66  108003  107997      66  108003  108000      67  108012  108009      66
  108015  108009      66  108015  108012      67  108024  108021      66  108027
  108021      66  108027  108024      67  108036  108033      66  108039  108033
      66  108039  108036      67  108048  108045      66  108051  108045      66
  108051  108048      67  108060  108057      66  108063  108057      66  108063
  108060      67  108072  108069      66  108075  108069      66  108075  108072
      67  108084  108081      66  108087  108081      66  108087  108084      67
  108096  108093      66  108099  108093      66  108099  108096      67  108108
  108105      66  108111  108105      66  108111  108108      67  108120  108117
      66  108123  108117      66  108123  108120      67  108132  108129      66
  108135  108129      66  108135  108132      67  108144  108141      66  108147
  108141      66  108147  108144      67  108156  108153      66  108159  108153
      66  108159  108156      67  108168  108165      66  108171  108165      66
  108171  108168      67  108180  108177      66  108183  108177      66  108183
  108180      67  108192  108189      66  108195  108189      66  108195  108192
      67  108204  108201      66  108207  108201      66  108207  108204      67
  108216  108213      66  108219  108213      66  108219  108216      67  108228
  108225      66  108231  108225      66  108231  108228      67  108240  108237
      66  108243  108237      66  108243  108240      67  108252  108249      66
  108255  108249      66  108255  108252      67  108264  108261      66  108267
  108261      66  108267  108264      67  108276  108273      66  108279  108273
      66  108279  108276      67  108288  108285      66  108291  108285      66
  108291  108288      67  108300  108297      66  108303  108297      66  108303
  108300      67  108312  108309      66  108315  108309      66  108315  108312
      67  108324  108321      66  108327  108321      66  108327  108324      67
  108336  108333      66  108339  108333      66  108339  108336      67  108348
  108345      66  108351  108345      66  108351  108348      67  108360  108357
      66  108363  108357      66  108363  108360      67  108372  108369      66
  108375  108369      66  108375  108372      67  108384  108381      66  108387
  108381      66  108387  108384      67  108396  108393      66  108399  108393
      66  108399  108396      67  108408  108405      66  108411  108405      66
  108411  108408      67  108420  108417      66  108423  108417      66  108423
  108420      67  108432  108429      66  108435  108429      66  108435  108432
      67  108444  108441      66  108447  108441      66  108447  108444      67
  108456  108453      66  108459  108453      66  108459  108456      67  108468
  108465      66  108471  108465      66  108471  108468      67  108480  108477
      66  108483  108477      66  108483  108480      67  108492  108489      66
  108495  108489      66  108495  108492      67  108504  108501      66  108507
  108501      66  108507  108504      67  108516  108513      66  108519  108513
      66  108519  108516      67  108528  108525      66  108531  108525      66
  108531  108528      67  108540  108537      66  108543  108537      66  108543
  108540      67  108552  108549      66  108555  108549      66  108555  108552
      67  108564  108561      66  108567  108561      66  108567  108564      67
  108576  108573      66  108579  108573      66  108579  108576      67  108588
  108585      66  108591  108585      66  108591  108588      67  108600  108597
      66  108603  108597      66  108603  108600      67  108612  108609      66
  108615  108609      66  108615  108612      67  108624  108621      66  108627
  108621      66  108627  108624      67  108636  108633      66  108639  108633
      66  108639  108636      67  108648  108645      66  108651  108645      66
  108651  108648      67  108660  108657      66  108663  108657      66  108663
  108660      67  108672  108669      66  108675  108669      66  108675  108672
      67  108684  108681      66  108687  108681      66  108687  108684      67
  108696  108693      66  108699  108693      66  108699  108696      67  108708
  108705      66  108711  108705      66  108711  108708      67  108720  108717
      66  108723  108717      66  108723  108720      67  108732  108729      66
  108735  108729      66  108735  108732      67  108744  108741      66  108747
  108741      66  108747  108744      67  108756  108753      66  108759  108753
      66  108759  108756      67  108768  108765      66  108771  108765      66
  108771  108768      67  108780  108777      66  108783  108777      66  108783
  108780      67  108792  108789      66  108795  108789      66  108795  108792
      67  108804  108801      66  108807  108801      66  108807  108804      67
  108816  108813      66  108819  108813      66  108819  108816      67  108828
  108825      66  108831  108825      66  108831  108828      67  108840  108837
      66  108843  108837      66  108843  108840      67  108852  108849      66
  108855  108849      66  108855  108852      67  108864  108861      66  108867
  108861      66  108867  108864      67  108876  108873      66  108879  108873
      66  108879  108876      67  108888  108885      66  108891  108885      66
  108891  108888      67  108900  108897      66  108903  108897      66  108903
  108900      67  108912  108909      66  108915  108909      66  108915  108912
      67  108924  108921      66  108927  108921      66  108927  108924      67
  108936  108933      66  108939  108933      66  108939  108936      67  108948
  108945      66  108951  108945      66  108951  108948      67  108960  108957
      66  108963  108957      66  108963  108960      67  108972  108969      66
  108975  108969      66  108975  108972      67  108984  108981      66  108987
  108981      66  108987  108984      67  108996  108993      66  108999  108993
      66  108999  108996      67  109008  109005      66  109011  109005      66
  109011  109008      67  109020  109017      66  109023  109017      66  109023
  109020      67  109032  109029      66  109035  109029      66  109035  109032
      67  109044  109041      66  109047  109041      66  109047  109044      67
  109056  109053      66  109059  109053      66  109059  109056      67  109068
  109065      66  109071  109065      66  109071  109068      67  109080  109077
      66  109083  109077      66  109083  109080      67  109092  109089      66
  109095  109089      66  109095  109092      67  109104  109101      66  109107
  109101      66  109107  109104      67  109116  109113      66  109119  109113
      66  109119  109116      67  109128  109125      66  109131  109125      66
  109131  109128      67  109140  109137      66  109143  109137      66  109143
  109140      67  109152  109149      66  109155  109149      66  109155  109152
      67  109164  109161      66  109167  109161      66  109167  109164      67
  109176  109173      66  109179  109173      66  109179  109176      67  109188
  109185      66  109191  109185      66  109191  109188      67  109200  109197
      66  109203  109197      66  109203  109200      67  109212  109209      66
  109215  109209      66  109215  109212      67  109224  109221      66  109227
  109221      66  109227  109224      67  109236  109233      66  109239  109233
      66  109239  109236      67  109248  109245      66  109251  109245      66
  109251  109248      67  109260  109257      66  109263  109257      66  109263
  109260      67  109272  109269      66  109275  109269      66  109275  109272
      67  109284  109281      66  109287  109281      66  109287  109284      67
  109296  109293      66  109299  109293      66  109299  109296      67  109308
  109305      66  109311  109305      66  109311  109308      67  109320  109317
      66  109323  109317      66  109323  109320      67  109332  109329      66
  109335  109329      66  109335  109332      67  109344  109341      66  109347
  109341      66  109347  109344      67  109356  109353      66  109359  109353
      66  109359  109356      67  109368  109365      66  109371  109365      66
  109371  109368      67  109380  109377      66  109383  109377      66  109383
  109380      67  109392  109389      66  109395  109389      66  109395  109392
      67  109404  109401      66  109407  109401      66  109407  109404      67
  109416  109413      66  109419  109413      66  109419  109416      67  109428
  109425      66  109431  109425      66  109431  109428      67  109440  109437
      66  109443  109437      66  109443  109440      67  109452  109449      66
  109455  109449      66  109455  109452      67  109464  109461      66  109467
  109461      66  109467  109464      67  109476  109473      66  109479  109473
      66  109479  109476      67  109488  109485      66  109491  109485      66
  109491  109488      67  109500  109497      66  109503  109497      66  109503
  109500      67  109512  109509      66  109515  109509      66  109515  109512
      67  109524  109521      66  109527  109521      66  109527  109524      67
  109536  109533      66  109539  109533      66  109539  109536      67  109548
  109545      66  109551  109545      66  109551  109548      67  109560  109557
      66  109563  109557      66  109563  109560      67  109572  109569      66
  109575  109569      66  109575  109572      67  109584  109581      66  109587
  109581      66  109587  109584      67  109596  109593      66  109599  109593
      66  109599  109596      67  109608  109605      66  109611  109605      66
  109611  109608      67  109620  109617      66  109623  109617      66  109623
  109620      67  109632  109629      66  109635  109629      66  109635  109632
      67  109644  109641      66  109647  109641      66  109647  109644      67
  109656  109653      66  109659  109653      66  109659  109656      67  109668
  109665      66  109671  109665      66  109671  109668      67  109680  109677
      66  109683  109677      66  109683  109680      67  109692  109689      66
  109695  109689      66  109695  109692      67  109704  109701      66  109707
  109701      66  109707  109704      67  109716  109713      66  109719  109713
      66  109719  109716      67  109728  109725      66  109731  109725      66
  109731  109728      67  109740  109737      66  109743  109737      66  109743
  109740      67  109752  109749      66  109755  109749      66  109755  109752
      67  109764  109761      66  109767  109761      66  109767  109764      67
  109776  109773      66  109779  109773      66  109779  109776      67  109788
  109785      66  109791  109785      66  109791  109788      67  109800  109797
      66  109803  109797      66  109803  109800      67  109812  109809      66
  109815  109809      66  109815  109812      67  109824  109821      66  109827
  109821      66  109827  109824      67  109836  109833      66  109839  109833
      66  109839  109836      67  109848  109845      66  109851  109845      66
  109851  109848      67  109860  109857      66  109863  109857      66  109863
  109860      67  109872  109869      66  109875  109869      66  109875  109872
      67  109884  109881      66  109887  109881      66  109887  109884      67
  109896  109893      66  109899  109893      66  109899  109896      67  109908
  109905      66  109911  109905      66  109911  109908      67  109920  109917
      66  109923  109917      66  109923  109920      67  109932  109929      66
  109935  109929      66  109935  109932      67  109944  109941      66  109947
  109941      66  109947  109944      67  109956  109953      66  109959  109953
      66  109959  109956      67  109968  109965      66  109971  109965      66
  109971  109968      67  109980  109977      66  109983  109977      66  109983
  109980      67  109992  109989      66  109995  109989      66  109995  109992
      67  110004  110001      66  110007  110001      66  110007  110004      67
  110016  110013      66  110019  110013      66  110019  110016      67  110028
  110025      66  110031  110025      66  110031  110028      67  110040  110037
      66  110043  110037      66  110043  110040      67  110052  110049      66
  110055  110049      66  110055  110052      67  110064  110061      66  110067
  110061      66  110067  110064      67  110076  110073      66  110079  110073
      66  110079  110076      67  110088  110085      66  110091  110085      66
  110091  110088      67  110100  110097      66  110103  110097      66  110103
  110100      67  110112  110109      66  110115  110109      66  110115  110112
      67  110124  110121      66  110127  110121      66  110127  110124      67
  110136  110133      66  110139  110133      66  110139  110136      67  110148
  110145      66  110151  110145      66  110151  110148      67  110160  110157
      66  110163  110157      66  110163  110160      67  110172  110169      66
  110175  110169      66  110175  110172      67  110184  110181      66  110187
  110181      66  110187  110184      67  110196  110193      66  110199  110193
      66  110199  110196      67  110208  110205      66  110211  110205      66
  110211  110208      67  110220  110217      66  110223  110217      66  110223
  110220      67  110232  110229      66  110235  110229      66  110235  110232
      67  110244  110241      66  110247  110241      66  110247  110244      67
  110256  110253      66  110259  110253      66  110259  110256      67  110268
  110265      66  110271  110265      66  110271  110268      67  110280  110277
      66  110283  110277      66  110283  110280      67  110292  110289      66
  110295  110289      66  110295  110292      67  110304  110301      66  110307
  110301      66  110307  110304      67  110316  110313      66  110319  110313
      66  110319  110316      67  110328  110325      66  110331  110325      66
  110331  110328      67  110340  110337      66  110343  110337      66  110343
  110340      67  110352  110349      66  110355  110349      66  110355  110352
      67  110364  110361      66  110367  110361      66  110367  110364      67
  110376  110373      66  110379  110373      66  110379  110376      67  110388
  110385      66  110391  110385      66  110391  110388      67  110400  110397
      66  110403  110397      66  110403  110400      67  110412  110409      66
  110415  110409      66  110415  110412      67  110424  110421      66  110427
  110421      66  110427  110424      67  110436  110433      66  110439  110433
      66  110439  110436      67  110448  110445      66  110451  110445      66
  110451  110448      67  110460  110457      66  110463  110457      66  110463
  110460      67  110472  110469      66  110475  110469      66  110475  110472
      67  110484  110481      66  110487  110481      66  110487  110484      67
  110496  110493      66  110499  110493      66  110499  110496      67  110508
  110505      66  110511  110505      66  110511  110508      67  110520  110517
      66  110523  110517      66  110523  110520      67  110532  110529      66
  110535  110529      66  110535  110532      67  110544  110541      66  110547
  110541      66  110547  110544      67  110556  110553      66  110559  110553
      66  110559  110556      67  110568  110565      66  110571  110565      66
  110571  110568      67  110580  110577      66  110583  110577      66  110583
  110580      67  110592  110589      66  110595  110589      66  110595  110592
      67  110604  110601      66  110607  110601      66  110607  110604      67
  110616  110613      66  110619  110613      66  110619  110616      67  110628
  110625      66  110631  110625      66  110631  110628      67  110640  110637
      66  110643  110637      66  110643  110640      67  110652  110649      66
  110655  110649      66  110655  110652      67  110664  110661      66  110667
  110661      66  110667  110664      67  110676  110673      66  110679  110673
      66  110679  110676      67  110688  110685      66  110691  110685      66
  110691  110688      67  110700  110697      66  110703  110697      66  110703
  110700      67  110712  110709      66  110715  110709      66  110715  110712
      67  110724  110721      66  110727  110721      66  110727  110724      67
  110736  110733      66  110739  110733      66  110739  110736      67  110748
  110745      66  110751  110745      66  110751  110748      67  110760  110757
      66  110763  110757      66  110763  110760      67  110772  110769      66
  110775  110769      66  110775  110772      67  110784  110781      66  110787
  110781      66  110787  110784      67  110796  110793      66  110799  110793
      66  110799  110796      67  110808  110805      66  110811  110805      66
  110811  110808      67  110820  110817      66  110823  110817      66  110823
  110820      67  110832  110829      66  110835  110829      66  110835  110832
      67  110844  110841      66  110847  110841      66  110847  110844      67
  110856  110853      66  110859  110853      66  110859  110856      67  110868
  110865      66  110871  110865      66  110871  110868      67  110880  110877
      66  110883  110877      66  110883  110880      67  110892  110889      66
  110895  110889      66  110895  110892      67  110904  110901      66  110907
  110901      66  110907  110904      67  110916  110913      66  110919  110913
      66  110919  110916      67  110928  110925      66  110931  110925      66
  110931  110928      67  110940  110937      66  110943  110937      66  110943
  110940      67  110952  110949      66  110955  110949      66  110955  110952
      67  110964  110961      66  110967  110961      66  110967  110964      67
  110976  110973      66  110979  110973      66  110979  110976      67  110988
  110985      66  110991  110985      66  110991  110988      67  111000  110997
      66  111003  110997      66  111003  111000      67  111012  111009      66
  111015  111009      66  111015  111012      67  111024  111021      66  111027
  111021      66  111027  111024      67  111036  111033      66  111039  111033
      66  111039  111036      67  111048  111045      66  111051  111045      66
  111051  111048      67  111060  111057      66  111063  111057      66  111063
  111060      67  111072  111069      66  111075  111069      66  111075  111072
      67  111084  111081      66  111087  111081      66  111087  111084      67
  111096  111093      66  111099  111093      66  111099  111096      67  111108
  111105      66  111111  111105      66  111111  111108      67  111120  111117
      66  111123  111117      66  111123  111120      67  111132  111129      66
  111135  111129      66  111135  111132      67  111144  111141      66  111147
  111141      66  111147  111144      67  111156  111153      66  111159  111153
      66  111159  111156      67  111168  111165      66  111171  111165      66
  111171  111168      67  111180  111177      66  111183  111177      66  111183
  111180      67  111192  111189      66  111195  111189      66  111195  111192
      67  111204  111201      66  111207  111201      66  111207  111204      67
  111216  111213      66  111219  111213      66  111219  111216      67  111228
  111225      66  111231  111225      66  111231  111228      67  111240  111237
      66  111243  111237      66  111243  111240      67  111252  111249      66
  111255  111249      66  111255  111252      67  111264  111261      66  111267
  111261      66  111267  111264      67  111276  111273      66  111279  111273
      66  111279  111276      67  111288  111285      66  111291  111285      66
  111291  111288      67  111300  111297      66  111303  111297      66  111303
  111300      67  111312  111309      66  111315  111309      66  111315  111312
      67  111324  111321      66  111327  111321      66  111327  111324      67
  111336  111333      66  111339  111333      66  111339  111336      67  111348
  111345      66  111351  111345      66  111351  111348      67  111360  111357
      66  111363  111357      66  111363  111360      67  111372  111369      66
  111375  111369      66  111375  111372      67  111384  111381      66  111387
  111381      66  111387  111384      67  111396  111393      66  111399  111393
      66  111399  111396      67  111408  111405      66  111411  111405      66
  111411  111408      67  111420  111417      66  111423  111417      66  111423
  111420      67  111432  111429      66  111435  111429      66  111435  111432
      67  111444  111441      66  111447  111441      66  111447  111444      67
  111456  111453      66  111459  111453      66  111459  111456      67  111468
  111465      66  111471  111465      66  111471  111468      67  111480  111477
      66  111483  111477      66  111483  111480      67  111492  111489      66
  111495  111489      66  111495  111492      67  111504  111501      66  111507
  111501      66  111507  111504      67  111516  111513      66  111519  111513
      66  111519  111516      67  111528  111525      66  111531  111525      66
  111531  111528      67  111540  111537      66  111543  111537      66  111543
  111540      67  111552  111549      66  111555  111549      66  111555  111552
      67  111564  111561      66  111567  111561      66  111567  111564      67
  111576  111573      66  111579  111573      66  111579  111576      67  111588
  111585      66  111591  111585      66  111591  111588      67  111600  111597
      66  111603  111597      66  111603  111600      67  111612  111609      66
  111615  111609      66  111615  111612      67  111624  111621      66  111627
  111621      66  111627  111624      67  111636  111633      66  111639  111633
      66  111639  111636      67  111648  111645      66  111651  111645      66
  111651  111648      67  111660  111657      66  111663  111657      66  111663
  111660      67  111672  111669      66  111675  111669      66  111675  111672
      67  111684  111681      66  111687  111681      66  111687  111684      67
  111696  111693      66  111699  111693      66  111699  111696      67  111708
  111705      66  111711  111705      66  111711  111708      67  111720  111717
      66  111723  111717      66  111723  111720      67  111732  111729      66
  111735  111729      66  111735  111732      67  111744  111741      66  111747
  111741      66  111747  111744      67  111756  111753      66  111759  111753
      66  111759  111756      67  111768  111765      66  111771  111765      66
  111771  111768      67  111780  111777      66  111783  111777      66  111783
  111780      67  111792  111789      66  111795  111789      66  111795  111792
      67  111804  111801      66  111807  111801      66  111807  111804      67
  111816  111813      66  111819  111813      66  111819  111816      67  111828
  111825      66  111831  111825      66  111831  111828      67  111840  111837
      66  111843  111837      66  111843  111840      67  111852  111849      66
  111855  111849      66  111855  111852      67  111864  111861      66  111867
  111861      66  111867  111864      67  111876  111873      66  111879  111873
      66  111879  111876      67  111888  111885      66  111891  111885      66
  111891  111888      67  111900  111897      66  111903  111897      66  111903
  111900      67  111912  111909      66  111915  111909      66  111915  111912
      67  111924  111921      66  111927  111921      66  111927  111924      67
  111936  111933      66  111939  111933      66  111939  111936      67  111948
  111945      66  111951  111945      66  111951  111948      67  111960  111957
      66  111963  111957      66  111963  111960      67  111972  111969      66
  111975  111969      66  111975  111972      67  111984  111981      66  111987
  111981      66  111987  111984      67  111996  111993      66  111999  111993
      66  111999  111996      67  112008  112005      66  112011  112005      66
  112011  112008      67  112020  112017      66  112023  112017      66  112023
  112020      67  112032  112029      66  112035  112029      66  112035  112032
      67  112044  112041      66  112047  112041      66  112047  112044      67
  112056  112053      66  112059  112053      66  112059  112056      67  112068
  112065      66  112071  112065      66  112071  112068      67  112080  112077
      66  112083  112077      66  112083  112080      67  112092  112089      66
  112095  112089      66  112095  112092      67  112104  112101      66  112107
  112101      66  112107  112104      67  112116  112113      66  112119  112113
      66  112119  112116      67  112128  112125      66  112131  112125      66
  112131  112128      67  112140  112137      66  112143  112137      66  112143
  112140      67  112152  112149      66  112155  112149      66  112155  112152
      67  112164  112161      66  112167  112161      66  112167  112164      67
  112176  112173      66  112179  112173      66  112179  112176      67  112188
  112185      66  112191  112185      66  112191  112188      67  112200  112197
      66  112203  112197      66  112203  112200      67  112212  112209      66
  112215  112209      66  112215  112212      67  112224  112221      66  112227
  112221      66  112227  112224      67  112236  112233      66  112239  112233
      66  112239  112236      67  112248  112245      66  112251  112245      66
  112251  112248      67  112260  112257      66  112263  112257      66  112263
  112260      67  112272  112269      66  112275  112269      66  112275  112272
      67  112284  112281      66  112287  112281      66  112287  112284      67
  112296  112293      66  112299  112293      66  112299  112296      67  112308
  112305      66  112311  112305      66  112311  112308      67  112320  112317
      66  112323  112317      66  112323  112320      67  112332  112329      66
  112335  112329      66  112335  112332      67  112344  112341      66  112347
  112341      66  112347  112344      67  112356  112353      66  112359  112353
      66  112359  112356      67  112368  112365      66  112371  112365      66
  112371  112368      67  112380  112377      66  112383  112377      66  112383
  112380      67  112392  112389      66  112395  112389      66  112395  112392
      67  112404  112401      66  112407  112401      66  112407  112404      67
  112416  112413      66  112419  112413      66  112419  112416      67  112428
  112425      66  112431  112425      66  112431  112428      67  112440  112437
      66  112443  112437      66  112443  112440      67  112452  112449      66
  112455  112449      66  112455  112452      67  112464  112461      66  112467
  112461      66  112467  112464      67  112476  112473      66  112479  112473
      66  112479  112476      67  112488  112485      66  112491  112485      66
  112491  112488      67  112500  112497      66  112503  112497      66  112503
  112500      67  112512  112509      66  112515  112509      66  112515  112512
      67  112524  112521      66  112527  112521      66  112527  112524      67
  112536  112533      66  112539  112533      66  112539  112536      67  112548
  112545      66  112551  112545      66  112551  112548      67  112560  112557
      66  112563  112557      66  112563  112560      67  112572  112569      66
  112575  112569      66  112575  112572      67  112584  112581      66  112587
  112581      66  112587  112584      67  112596  112593      66  112599  112593
      66  112599  112596      67  112608  112605      66  112611  112605      66
  112611  112608      67  112620  112617      66  112623  112617      66  112623
  112620      67  112632  112629      66  112635  112629      66  112635  112632
      67  112644  112641      66  112647  112641      66  112647  112644      67
  112656  112653      66  112659  112653      66  112659  112656      67  112668
  112665      66  112671  112665      66  112671  112668      67  112680  112677
      66  112683  112677      66  112683  112680      67  112692  112689      66
  112695  112689      66  112695  112692      67  112704  112701      66  112707
  112701      66  112707  112704      67  112716  112713      66  112719  112713
      66  112719  112716      67  112728  112725      66  112731  112725      66
  112731  112728      67  112740  112737      66  112743  112737      66  112743
  112740      67  112752  112749      66  112755  112749      66  112755  112752
      67  112764  112761      66  112767  112761      66  112767  112764      67
  112776  112773      66  112779  112773      66  112779  112776      67  112788
  112785      66  112791  112785      66  112791  112788      67  112800  112797
      66  112803  112797      66  112803  112800      67  112812  112809      66
  112815  112809      66  112815  112812      67  112824  112821      66  112827
  112821      66  112827  112824      67  112836  112833      66  112839  112833
      66  112839  112836      67  112848  112845      66  112851  112845      66
  112851  112848      67  112860  112857      66  112863  112857      66  112863
  112860      67  112872  112869      66  112875  112869      66  112875  112872
      67  112884  112881      66  112887  112881      66  112887  112884      67
  112896  112893      66  112899  112893      66  112899  112896      67  112908
  112905      66  112911  112905      66  112911  112908      67  112920  112917
      66  112923  112917      66  112923  112920      67  112932  112929      66
  112935  112929      66  112935  112932      67  112944  112941      66  112947
  112941      66  112947  112944      67  112956  112953      66  112959  112953
      66  112959  112956      67  112968  112965      66  112971  112965      66
  112971  112968      67  112980  112977      66  112983  112977      66  112983
  112980      67  112992  112989      66  112995  112989      66  112995  112992
      67  113004  113001      66  113007  113001      66  113007  113004      67
  113016  113013      66  113019  113013      66  113019  113016      67  113028
  113025      66  113031  113025      66  113031  113028      67  113040  113037
      66  113043  113037      66  113043  113040      67  113052  113049      66
  113055  113049      66  113055  113052      67  113064  113061      66  113067
  113061      66  113067  113064      67  113076  113073      66  113079  113073
      66  113079  113076      67  113088  113085      66  113091  113085      66
  113091  113088      67  113100  113097      66  113103  113097      66  113103
  113100      67  113112  113109      66  113115  113109      66  113115  113112
      67  113124  113121      66  113127  113121      66  113127  113124      67
  113136  113133      66  113139  113133      66  113139  113136      67  113148
  113145      66  113151  113145      66  113151  113148      67  113160  113157
      66  113163  113157      66  113163  113160      67  113172  113169      66
  113175  113169      66  113175  113172      67  113184  113181      66  113187
  113181      66  113187  113184      67  113196  113193      66  113199  113193
      66  113199  113196      67  113208  113205      66  113211  113205      66
  113211  113208      67  113220  113217      66  113223  113217      66  113223
  113220      67  113232  113229      66  113235  113229      66  113235  113232
      67  113244  113241      66  113247  113241      66  113247  113244      67
  113256  113253      66  113259  113253      66  113259  113256      67  113268
  113265      66  113271  113265      66  113271  113268      67  113280  113277
      66  113283  113277      66  113283  113280      67  113292  113289      66
  113295  113289      66  113295  113292      67  113304  113301      66  113307
  113301      66  113307  113304      67  113316  113313      66  113319  113313
      66  113319  113316      67  113328  113325      66  113331  113325      66
  113331  113328      67  113340  113337      66  113343  113337      66  113343
  113340      67  113352  113349      66  113355  113349      66  113355  113352
      67  113364  113361      66  113367  113361      66  113367  113364      67
  113376  113373      66  113379  113373      66  113379  113376      67  113388
  113385      66  113391  113385      66  113391  113388      67  113400  113397
      66  113403  113397      66  113403  113400      67  113412  113409      66
  113415  113409      66  113415  113412      67  113424  113421      66  113427
  113421      66  113427  113424      67  113436  113433      66  113439  113433
      66  113439  113436      67  113448  113445      66  113451  113445      66
  113451  113448      67  113460  113457      66  113463  113457      66  113463
  113460      67  113472  113469      66  113475  113469      66  113475  113472
      67  113484  113481      66  113487  113481      66  113487  113484      67
  113496  113493      66  113499  113493      66  113499  113496      67  113508
  113505      66  113511  113505      66  113511  113508      67  113520  113517
      66  113523  113517      66  113523  113520      67  113532  113529      66
  113535  113529      66  113535  113532      67  113544  113541      66  113547
  113541      66  113547  113544      67  113556  113553      66  113559  113553
      66  113559  113556      67  113568  113565      66  113571  113565      66
  113571  113568      67  113580  113577      66  113583  113577      66  113583
  113580      67  113592  113589      66  113595  113589      66  113595  113592
      67  113604  113601      66  113607  113601      66  113607  113604      67
  113616  113613      66  113619  113613      66  113619  113616      67  113628
  113625      66  113631  113625      66  113631  113628      67  113640  113637
      66  113643  113637      66  113643  113640      67  113652  113649      66
  113655  113649      66  113655  113652      67  113664  113661      66  113667
  113661      66  113667  113664      67  113676  113673      66  113679  113673
      66  113679  113676      67  113688  113685      66  113691  113685      66
  113691  113688      67  113700  113697      66  113703  113697      66  113703
  113700      67  113712  113709      66  113715  113709      66  113715  113712
      67  113724  113721      66  113727  113721      66  113727  113724      67
  113736  113733      66  113739  113733      66  113739  113736      67  113748
  113745      66  113751  113745      66  113751  113748      67  113760  113757
      66  113763  113757      66  113763  113760      67  113772  113769      66
  113775  113769      66  113775  113772      67  113784  113781      66  113787
  113781      66  113787  113784      67  113796  113793      66  113799  113793
      66  113799  113796      67  113808  113805      66  113811  113805      66
  113811  113808      67  113820  113817      66  113823  113817      66  113823
  113820      67  113832  113829      66  113835  113829      66  113835  113832
      67  113844  113841      66  113847  113841      66  113847  113844      67
  113856  113853      66  113859  113853      66  113859  113856      67  113868
  113865      66  113871  113865      66  113871  113868      67  113880  113877
      66  113883  113877      66  113883  113880      67  113892  113889      66
  113895  113889      66  113895  113892      67  113904  113901      66  113907
  113901      66  113907  113904      67  113916  113913      66  113919  113913
      66  113919  113916      67  113928  113925      66  113931  113925      66
  113931  113928      67  113940  113937      66  113943  113937      66  113943
  113940      67  113952  113949      66  113955  113949      66  113955  113952
      67  113964  113961      66  113967  113961      66  113967  113964      67
  113976  113973      66  113979  113973      66  113979  113976      67  113988
  113985      66  113991  113985      66  113991  113988      67  114000  113997
      66  114003  113997      66  114003  114000      67  114012  114009      66
  114015  114009      66  114015  114012      67  114024  114021      66  114027
  114021      66  114027  114024      67  114036  114033      66  114039  114033
      66  114039  114036      67  114048  114045      66  114051  114045      66
  114051  114048      67  114060  114057      66  114063  114057      66  114063
  114060      67  114072  114069      66  114075  114069      66  114075  114072
      67  114084  114081      66  114087  114081      66  114087  114084      67
  114096  114093      66  114099  114093      66  114099  114096      67  114108
  114105      66  114111  114105      66  114111  114108      67  114120  114117
      66  114123  114117      66  114123  114120      67  114132  114129      66
  114135  114129      66  114135  114132      67  114144  114141      66  114147
  114141      66  114147  114144      67  114156  114153      66  114159  114153
      66  114159  114156      67  114168  114165      66  114171  114165      66
  114171  114168      67  114180  114177      66  114183  114177      66  114183
  114180      67  114192  114189      66  114195  114189      66  114195  114192
      67  114204  114201      66  114207  114201      66  114207  114204      67
  114216  114213      66  114219  114213      66  114219  114216      67  114228
  114225      66  114231  114225      66  114231  114228      67  114240  114237
      66  114243  114237      66  114243  114240      67  114252  114249      66
  114255  114249      66  114255  114252      67  114264  114261      66  114267
  114261      66  114267  114264      67  114276  114273      66  114279  114273
      66  114279  114276      67  114288  114285      66  114291  114285      66
  114291  114288      67  114300  114297      66  114303  114297      66  114303
  114300      67  114312  114309      66  114315  114309      66  114315  114312
      67  114324  114321      66  114327  114321      66  114327  114324      67
  114336  114333      66  114339  114333      66  114339  114336      67  114348
  114345      66  114351  114345      66  114351  114348      67  114360  114357
      66  114363  114357      66  114363  114360      67  114372  114369      66
  114375  114369      66  114375  114372      67  114384  114381      66  114387
  114381      66  114387  114384      67  114396  114393      66  114399  114393
      66  114399  114396      67  114408  114405      66  114411  114405      66
  114411  114408      67  114420  114417      66  114423  114417      66  114423
  114420      67  114432  114429      66  114435  114429      66  114435  114432
      67  114444  114441      66  114447  114441      66  114447  114444      67
  114456  114453      66  114459  114453      66  114459  114456      67  114468
  114465      66  114471  114465      66  114471  114468      67  114480  114477
      66  114483  114477      66  114483  114480      67  114492  114489      66
  114495  114489      66  114495  114492      67  114504  114501      66  114507
  114501      66  114507  114504      67  114516  114513      66  114519  114513
      66  114519  114516      67  114528  114525      66  114531  114525      66
  114531  114528      67  114540  114537      66  114543  114537      66  114543
  114540      67  114552  114549      66  114555  114549      66  114555  114552
      67  114564  114561      66  114567  114561      66  114567  114564      67
  114576  114573      66  114579  114573      66  114579  114576      67  114588
  114585      66  114591  114585      66  114591  114588      67  114600  114597
      66  114603  114597      66  114603  114600      67  114612  114609      66
  114615  114609      66  114615  114612      67  114624  114621      66  114627
  114621      66  114627  114624      67  114636  114633      66  114639  114633
      66  114639  114636      67  114648  114645      66  114651  114645      66
  114651  114648      67  114660  114657      66  114663  114657      66  114663
  114660      67  114672  114669      66  114675  114669      66  114675  114672
      67  114684  114681      66  114687  114681      66  114687  114684      67
  114696  114693      66  114699  114693      66  114699  114696      67  114708
  114705      66  114711  114705      66  114711  114708      67  114720  114717
      66  114723  114717      66  114723  114720      67  114732  114729      66
  114735  114729      66  114735  114732      67  114744  114741      66  114747
  114741      66  114747  114744      67  114756  114753      66  114759  114753
      66  114759  114756      67  114768  114765      66  114771  114765      66
  114771  114768      67  114780  114777      66  114783  114777      66  114783
  114780      67  114792  114789      66  114795  114789      66  114795  114792
      67  114804  114801      66  114807  114801      66  114807  114804      67
  114816  114813      66  114819  114813      66  114819  114816      67  114828
  114825      66  114831  114825      66  114831  114828      67  114840  114837
      66  114843  114837      66  114843  114840      67  114852  114849      66
  114855  114849      66  114855  114852      67  114864  114861      66  114867
  114861      66  114867  114864      67  114876  114873      66  114879  114873
      66  114879  114876      67  114888  114885      66  114891  114885      66
  114891  114888      67  114900  114897      66  114903  114897      66  114903
  114900      67  114912  114909      66  114915  114909      66  114915  114912
      67  114924  114921      66  114927  114921      66  114927  114924      67
  114936  114933      66  114939  114933      66  114939  114936      67  114948
  114945      66  114951  114945      66  114951  114948      67  114960  114957
      66  114963  114957      66  114963  114960      67  114972  114969      66
  114975  114969      66  114975  114972      67  114984  114981      66  114987
  114981      66  114987  114984      67  114996  114993      66  114999  114993
      66  114999  114996      67  115008  115005      66  115011  115005      66
  115011  115008      67  115020  115017      66  115023  115017      66  115023
  115020      67  115032  115029      66  115035  115029      66  115035  115032
      67  115044  115041      66  115047  115041      66  115047  115044      67
  115056  115053      66  115059  115053      66  115059  115056      67  115068
  115065      66  115071  115065      66  115071  115068      67  115080  115077
      66  115083  115077      66  115083  115080      67  115092  115089      66
  115095  115089      66  115095  115092      67  115104  115101      66  115107
  115101      66  115107  115104      67  115116  115113      66  115119  115113
      66  115119  115116      67  115128  115125      66  115131  115125      66
  115131  115128      67  115140  115137      66  115143  115137      66  115143
  115140      67  115152  115149      66  115155  115149      66  115155  115152
      67  115164  115161      66  115167  115161      66  115167  115164      67
  115176  115173      66  115179  115173      66  115179  115176      67  115188
  115185      66  115191  115185      66  115191  115188      67  115200  115197
      66  115203  115197      66  115203  115200      67  115212  115209      66
  115215  115209      66  115215  115212      67  115224  115221      66  115227
  115221      66  115227  115224      67  115236  115233      66  115239  115233
      66  115239  115236      67  115248  115245      66  115251  115245      66
  115251  115248      67  115260  115257      66  115263  115257      66  115263
  115260      67  115272  115269      66  115275  115269      66  115275  115272
      67  115284  115281      66  115287  115281      66  115287  115284      67
  115296  115293      66  115299  115293      66  115299  115296      67  115308
  115305      66  115311  115305      66  115311  115308      67  115320  115317
      66  115323  115317      66  115323  115320      67  115332  115329      66
  115335  115329      66  115335  115332      67  115344  115341      66  115347
  115341      66  115347  115344      67  115356  115353      66  115359  115353
      66  115359  115356      67  115368  115365      66  115371  115365      66
  115371  115368      67  115380  115377      66  115383  115377      66  115383
  115380      67  115392  115389      66  115395  115389      66  115395  115392
      67  115404  115401      66  115407  115401      66  115407  115404      67
  115416  115413      66  115419  115413      66  115419  115416      67  115428
  115425      66  115431  115425      66  115431  115428      67  115440  115437
      66  115443  115437      66  115443  115440      67  115452  115449      66
  115455  115449      66  115455  115452      67  115464  115461      66  115467
  115461      66  115467  115464      67  115476  115473      66  115479  115473
      66  115479  115476      67  115488  115485      66  115491  115485      66
  115491  115488      67  115500  115497      66  115503  115497      66  115503
  115500      67  115512  115509      66  115515  115509      66  115515  115512
      67  115524  115521      66  115527  115521      66  115527  115524      67
  115536  115533      66  115539  115533      66  115539  115536      67  115548
  115545      66  115551  115545      66  115551  115548      67  115560  115557
      66  115563  115557      66  115563  115560      67  115572  115569      66
  115575  115569      66  115575  115572      67  115584  115581      66  115587
  115581      66  115587  115584      67  115596  115593      66  115599  115593
      66  115599  115596      67  115608  115605      66  115611  115605      66
  115611  115608      67  115620  115617      66  115623  115617      66  115623
  115620      67  115632  115629      66  115635  115629      66  115635  115632
      67  115644  115641      66  115647  115641      66  115647  115644      67
  115656  115653      66  115659  115653      66  115659  115656      67  115668
  115665      66  115671  115665      66  115671  115668      67  115680  115677
      66  115683  115677      66  115683  115680      67  115692  115689      66
  115695  115689      66  115695  115692      67  115704  115701      66  115707
  115701      66  115707  115704      67  115716  115713      66  115719  115713
      66  115719  115716      67  115728  115725      66  115731  115725      66
  115731  115728      67  115740  115737      66  115743  115737      66  115743
  115740      67  115752  115749      66  115755  115749      66  115755  115752
      67  115764  115761      66  115767  115761      66  115767  115764      67
  115776  115773      66  115779  115773      66  115779  115776      67  115788
  115785      66  115791  115785      66  115791  115788      67  115800  115797
      66  115803  115797      66  115803  115800      67  115812  115809      66
  115815  115809      66  115815  115812      67  115824  115821      66  115827
  115821      66  115827  115824      67  115836  115833      66  115839  115833
      66  115839  115836      67  115848  115845      66  115851  115845      66
  115851  115848      67  115860  115857      66  115863  115857      66  115863
  115860      67  115872  115869      66  115875  115869      66  115875  115872
      67  115884  115881      66  115887  115881      66  115887  115884      67
  115896  115893      66  115899  115893      66  115899  115896      67  115908
  115905      66  115911  115905      66  115911  115908      67  115920  115917
      66  115923  115917      66  115923  115920      67  115932  115929      66
  115935  115929      66  115935  115932      67  115944  115941      66  115947
  115941      66  115947  115944      67  115956  115953      66  115959  115953
      66  115959  115956      67  115968  115965      66  115971  115965      66
  115971  115968      67  115980  115977      66  115983  115977      66  115983
  115980      67  115992  115989      66  115995  115989      66  115995  115992
      67  116004  116001      66  116007  116001      66  116007  116004      67
  116016  116013      66  116019  116013      66  116019  116016      67  116028
  116025      66  116031  116025      66  116031  116028      67  116040  116037
      66  116043  116037      66  116043  116040      67  116052  116049      66
  116055  116049      66  116055  116052      67  116064  116061      66  116067
  116061      66  116067  116064      67  116076  116073      66  116079  116073
      66  116079  116076      67  116088  116085      66  116091  116085      66
  116091  116088      67  116100  116097      66  116103  116097      66  116103
  116100      67  116112  116109      66  116115  116109      66  116115  116112
      67  116124  116121      66  116127  116121      66  116127  116124      67
  116136  116133      66  116139  116133      66  116139  116136      67  116148
  116145      66  116151  116145      66  116151  116148      67  116160  116157
      66  116163  116157      66  116163  116160      67  116172  116169      66
  116175  116169      66  116175  116172      67  116184  116181      66  116187
  116181      66  116187  116184      67  116196  116193      66  116199  116193
      66  116199  116196      67  116208  116205      66  116211  116205      66
  116211  116208      67  116220  116217      66  116223  116217      66  116223
  116220      67  116232  116229      66  116235  116229      66  116235  116232
      67  116244  116241      66  116247  116241      66  116247  116244      67
  116256  116253      66  116259  116253      66  116259  116256      67  116268
  116265      66  116271  116265      66  116271  116268      67  116280  116277
      66  116283  116277      66  116283  116280      67  116292  116289      66
  116295  116289      66  116295  116292      67  116304  116301      66  116307
  116301      66  116307  116304      67  116316  116313      66  116319  116313
      66  116319  116316      67  116328  116325      66  116331  116325      66
  116331  116328      67  116340  116337      66  116343  116337      66  116343
  116340      67  116352  116349      66  116355  116349      66  116355  116352
      67  116364  116361      66  116367  116361      66  116367  116364      67
  116376  116373      66  116379  116373      66  116379  116376      67  116388
  116385      66  116391  116385      66  116391  116388      67  116400  116397
      66  116403  116397      66  116403  116400      67  116412  116409      66
  116415  116409      66  116415  116412      67  116424  116421      66  116427
  116421      66  116427  116424      67  116436  116433      66  116439  116433
      66  116439  116436      67  116448  116445      66  116451  116445      66
  116451  116448      67  116460  116457      66  116463  116457      66  116463
  116460      67  116472  116469      66  116475  116469      66  116475  116472
      67  116484  116481      66  116487  116481      66  116487  116484      67
  116496  116493      66  116499  116493      66  116499  116496      67  116508
  116505      66  116511  116505      66  116511  116508      67  116520  116517
      66  116523  116517      66  116523  116520      67  116532  116529      66
  116535  116529      66  116535  116532      67  116544  116541      66  116547
  116541      66  116547  116544      67  116556  116553      66  116559  116553
      66  116559  116556      67  116568  116565      66  116571  116565      66
  116571  116568      67  116580  116577      66  116583  116577      66  116583
  116580      67  116592  116589      66  116595  116589      66  116595  116592
      67  116604  116601      66  116607  116601      66  116607  116604      67
  116616  116613      66  116619  116613      66  116619  116616      67  116628
  116625      66  116631  116625      66  116631  116628      67  116640  116637
      66  116643  116637      66  116643  116640      67  116652  116649      66
  116655  116649      66  116655  116652      67  116664  116661      66  116667
  116661      66  116667  116664      67  116676  116673      66  116679  116673
      66  116679  116676      67  116688  116685      66  116691  116685      66
  116691  116688      67  116700  116697      66  116703  116697      66  116703
  116700      67  116712  116709      66  116715  116709      66  116715  116712
      67  116724  116721      66  116727  116721      66  116727  116724      67
  116736  116733      66  116739  116733      66  116739  116736      67  116748
  116745      66  116751  116745      66  116751  116748      67  116760  116757
      66  116763  116757      66  116763  116760      67  116772  116769      66
  116775  116769      66  116775  116772      67  116784  116781      66  116787
  116781      66  116787  116784      67  116796  116793      66  116799  116793
      66  116799  116796      67  116808  116805      66  116811  116805      66
  116811  116808      67  116820  116817      66  116823  116817      66  116823
  116820      67  116832  116829      66  116835  116829      66  116835  116832
      67  116844  116841      66  116847  116841      66  116847  116844      67
  116856  116853      66  116859  116853      66  116859  116856      67  116868
  116865      66  116871  116865      66  116871  116868      67  116880  116877
      66  116883  116877      66  116883  116880      67  116892  116889      66
  116895  116889      66  116895  116892      67  116904  116901      66  116907
  116901      66  116907  116904      67  116916  116913      66  116919  116913
      66  116919  116916      67  116928  116925      66  116931  116925      66
  116931  116928      67  116940  116937      66  116943  116937      66  116943
  116940      67  116952  116949      66  116955  116949      66  116955  116952
      67  116964  116961      66  116967  116961      66  116967  116964      67
  116976  116973      66  116979  116973      66  116979  116976      67  116988
  116985      66  116991  116985      66  116991  116988      67  117000  116997
      66  117003  116997      66  117003  117000      67  117012  117009      66
  117015  117009      66  117015  117012      67  117024  117021      66  117027
  117021      66  117027  117024      67  117036  117033      66  117039  117033
      66  117039  117036      67  117048  117045      66  117051  117045      66
  117051  117048      67  117060  117057      66  117063  117057      66  117063
  117060      67  117072  117069      66  117075  117069      66  117075  117072
      67  117084  117081      66  117087  117081      66  117087  117084      67
  117096  117093      66  117099  117093      66  117099  117096      67  117108
  117105      66  117111  117105      66  117111  117108      67  117120  117117
      66  117123  117117      66  117123  117120      67  117132  117129      66
  117135  117129      66  117135  117132      67  117144  117141      66  117147
  117141      66  117147  117144      67  117156  117153      66  117159  117153
      66  117159  117156      67  117168  117165      66  117171  117165      66
  117171  117168      67  117180  117177      66  117183  117177      66  117183
  117180      67  117192  117189      66  117195  117189      66  117195  117192
      67  117204  117201      66  117207  117201      66  117207  117204      67
  117216  117213      66  117219  117213      66  117219  117216      67  117228
  117225      66  117231  117225      66  117231  117228      67  117240  117237
      66  117243  117237      66  117243  117240      67  117252  117249      66
  117255  117249      66  117255  117252      67  117264  117261      66  117267
  117261      66  117267  117264      67  117276  117273      66  117279  117273
      66  117279  117276      67  117288  117285      66  117291  117285      66
  117291  117288      67  117300  117297      66  117303  117297      66  117303
  117300      67  117312  117309      66  117315  117309      66  117315  117312
      67  117324  117321      66  117327  117321      66  117327  117324      67
  117336  117333      66  117339  117333      66  117339  117336      67  117348
  117345      66  117351  117345      66  117351  117348      67  117360  117357
      66  117363  117357      66  117363  117360      67  117372  117369      66
  117375  117369      66  117375  117372      67  117384  117381      66  117387
  117381      66  117387  117384      67  117396  117393      66  117399  117393
      66  117399  117396      67  117408  117405      66  117411  117405      66
  117411  117408      67  117420  117417      66  117423  117417      66  117423
  117420      67  117432  117429      66  117435  117429      66  117435  117432
      67  117444  117441      66  117447  117441      66  117447  117444      67
  117456  117453      66  117459  117453      66  117459  117456      67  117468
  117465      66  117471  117465      66  117471  117468      67  117480  117477
      66  117483  117477      66  117483  117480      67  117492  117489      66
  117495  117489      66  117495  117492      67  117504  117501      66  117507
  117501      66  117507  117504      67  117516  117513      66  117519  117513
      66  117519  117516      67  117528  117525      66  117531  117525      66
  117531  117528      67  117540  117537      66  117543  117537      66  117543
  117540      67  117552  117549      66  117555  117549      66  117555  117552
      67  117564  117561      66  117567  117561      66  117567  117564      67
  117576  117573      66  117579  117573      66  117579  117576      67  117588
  117585      66  117591  117585      66  117591  117588      67  117600  117597
      66  117603  117597      66  117603  117600      67  117612  117609      66
  117615  117609      66  117615  117612      67  117624  117621      66  117627
  117621      66  117627  117624      67  117636  117633      66  117639  117633
      66  117639  117636      67  117648  117645      66  117651  117645      66
  117651  117648      67  117660  117657      66  117663  117657      66  117663
  117660      67  117672  117669      66  117675  117669      66  117675  117672
      67  117684  117681      66  117687  117681      66  117687  117684      67
  117696  117693      66  117699  117693      66  117699  117696      67  117708
  117705      66  117711  117705      66  117711  117708      67  117720  117717
      66  117723  117717      66  117723  117720      67  117732  117729      66
  117735  117729      66  117735  117732      67  117744  117741      66  117747
  117741      66  117747  117744      67  117756  117753      66  117759  117753
      66  117759  117756      67  117768  117765      66  117771  117765      66
  117771  117768      67  117780  117777      66  117783  117777      66  117783
  117780      67  117792  117789      66  117795  117789      66  117795  117792
      67  117804  117801      66  117807  117801      66  117807  117804      67
  117816  117813      66  117819  117813      66  117819  117816      67  117828
  117825      66  117831  117825      66  117831  117828      67  117840  117837
      66  117843  117837      66  117843  117840      67  117852  117849      66
  117855  117849      66  117855  117852      67  117864  117861      66  117867
  117861      66  117867  117864      67  117876  117873      66  117879  117873
      66  117879  117876      67  117888  117885      66  117891  117885      66
  117891  117888      67  117900  117897      66  117903  117897      66  117903
  117900      67  117912  117909      66  117915  117909      66  117915  117912
      67  117924  117921      66  117927  117921      66  117927  117924      67
  117936  117933      66  117939  117933      66  117939  117936      67  117948
  117945      66  117951  117945      66  117951  117948      67  117960  117957
      66  117963  117957      66  117963  117960      67  117972  117969      66
  117975  117969      66  117975  117972      67  117984  117981      66  117987
  117981      66  117987  117984      67  117996  117993      66  117999  117993
      66  117999  117996      67  118008  118005      66  118011  118005      66
  118011  118008      67  118020  118017      66  118023  118017      66  118023
  118020      67  118032  118029      66  118035  118029      66  118035  118032
      67  118044  118041      66  118047  118041      66  118047  118044      67
  118056  118053      66  118059  118053      66  118059  118056      67  118068
  118065      66  118071  118065      66  118071  118068      67  118080  118077
      66  118083  118077      66  118083  118080      67  118092  118089      66
  118095  118089      66  118095  118092      67  118104  118101      66  118107
  118101      66  118107  118104      67  118116  118113      66  118119  118113
      66  118119  118116      67  118128  118125      66  118131  118125      66
  118131  118128      67  118140  118137      66  118143  118137      66  118143
  118140      67  118152  118149      66  118155  118149      66  118155  118152
      67  118164  118161      66  118167  118161      66  118167  118164      67
  118176  118173      66  118179  118173      66  118179  118176      67  118188
  118185      66  118191  118185      66  118191  118188      67  118200  118197
      66  118203  118197      66  118203  118200      67  118212  118209      66
  118215  118209      66  118215  118212      67  118224  118221      66  118227
  118221      66  118227  118224      67  118236  118233      66  118239  118233
      66  118239  118236      67  118248  118245      66  118251  118245      66
  118251  118248      67  118260  118257      66  118263  118257      66  118263
  118260      67  118272  118269      66  118275  118269      66  118275  118272
      67  118284  118281      66  118287  118281      66  118287  118284      67
  118296  118293      66  118299  118293      66  118299  118296      67  118308
  118305      66  118311  118305      66  118311  118308      67  118320  118317
      66  118323  118317      66  118323  118320      67  118332  118329      66
  118335  118329      66  118335  118332      67  118344  118341      66  118347
  118341      66  118347  118344      67  118356  118353      66  118359  118353
      66  118359  118356      67  118368  118365      66  118371  118365      66
  118371  118368      67  118380  118377      66  118383  118377      66  118383
  118380      67  118392  118389      66  118395  118389      66  118395  118392
      67  118404  118401      66  118407  118401      66  118407  118404      67
  118416  118413      66  118419  118413      66  118419  118416      67  118428
  118425      66  118431  118425      66  118431  118428      67  118440  118437
      66  118443  118437      66  118443  118440      67  118452  118449      66
  118455  118449      66  118455  118452      67  118464  118461      66  118467
  118461      66  118467  118464      67  118476  118473      66  118479  118473
      66  118479  118476      67  118488  118485      66  118491  118485      66
  118491  118488      67  118500  118497      66  118503  118497      66  118503
  118500      67  118512  118509      66  118515  118509      66  118515  118512
      67  118524  118521      66  118527  118521      66  118527  118524      67
  118536  118533      66  118539  118533      66  118539  118536      67  118548
  118545      66  118551  118545      66  118551  118548      67  118560  118557
      66  118563  118557      66  118563  118560      67  118572  118569      66
  118575  118569      66  118575  118572      67  118584  118581      66  118587
  118581      66  118587  118584      67  118596  118593      66  118599  118593
      66  118599  118596      67  118608  118605      66  118611  118605      66
  118611  118608      67  118620  118617      66  118623  118617      66  118623
  118620      67  118632  118629      66  118635  118629      66  118635  118632
      67  118644  118641      66  118647  118641      66  118647  118644      67
  118656  118653      66  118659  118653      66  118659  118656      67  118668
  118665      66  118671  118665      66  118671  118668      67  118680  118677
      66  118683  118677      66  118683  118680      67  118692  118689      66
  118695  118689      66  118695  118692      67  118704  118701      66  118707
  118701      66  118707  118704      67  118716  118713      66  118719  118713
      66  118719  118716      67  118728  118725      66  118731  118725      66
  118731  118728      67  118740  118737      66  118743  118737      66  118743
  118740      67  118752  118749      66  118755  118749      66  118755  118752
      67  118764  118761      66  118767  118761      66  118767  118764      67
  118776  118773      66  118779  118773      66  118779  118776      67  118788
  118785      66  118791  118785      66  118791  118788      67  118800  118797
      66  118803  118797      66  118803  118800      67  118812  118809      66
  118815  118809      66  118815  118812      67  118824  118821      66  118827
  118821      66  118827  118824      67  118836  118833      66  118839  118833
      66  118839  118836      67  118848  118845      66  118851  118845      66
  118851  118848      67  118860  118857      66  118863  118857      66  118863
  118860      67  118872  118869      66  118875  118869      66  118875  118872
      67  118884  118881      66  118887  118881      66  118887  118884      67
  118896  118893      66  118899  118893      66  118899  118896      67  118908
  118905      66  118911  118905      66  118911  118908      67  118920  118917
      66  118923  118917      66  118923  118920      67  118932  118929      66
  118935  118929      66  118935  118932      67  118944  118941      66  118947
  118941      66  118947  118944      67  118956  118953      66  118959  118953
      66  118959  118956      67  118968  118965      66  118971  118965      66
  118971  118968      67  118980  118977      66  118983  118977      66  118983
  118980      67  118992  118989      66  118995  118989      66  118995  118992
      67  119004  119001      66  119007  119001      66  119007  119004      67
  119016  119013      66  119019  119013      66  119019  119016      67  119028
  119025      66  119031  119025      66  119031  119028      67  119040  119037
      66  119043  119037      66  119043  119040      67  119052  119049      66
  119055  119049      66  119055  119052      67  119064  119061      66  119067
  119061      66  119067  119064      67  119076  119073      66  119079  119073
      66  119079  119076      67  119088  119085      66  119091  119085      66
  119091  119088      67  119100  119097      66  119103  119097      66  119103
  119100      67  119112  119109      66  119115  119109      66  119115  119112
      67  119124  119121      66  119127  119121      66  119127  119124      67
  119136  119133      66  119139  119133      66  119139  119136      67  119148
  119145      66  119151  119145      66  119151  119148      67  119160  119157
      66  119163  119157      66  119163  119160      67  119172  119169      66
  119175  119169      66  119175  119172      67  119184  119181      66  119187
  119181      66  119187  119184      67  119196  119193      66  119199  119193
      66  119199  119196      67  119208  119205      66  119211  119205      66
  119211  119208      67  119220  119217      66  119223  119217      66  119223
  119220      67  119232  119229      66  119235  119229      66  119235  119232
      67  119244  119241      66  119247  119241      66  119247  119244      67
  119256  119253      66  119259  119253      66  119259  119256      67  119268
  119265      66  119271  119265      66  119271  119268      67  119280  119277
      66  119283  119277      66  119283  119280      67  119292  119289      66
  119295  119289      66  119295  119292      67  119304  119301      66  119307
  119301      66  119307  119304      67  119316  119313      66  119319  119313
      66  119319  119316      67  119328  119325      66  119331  119325      66
  119331  119328      67  119340  119337      66  119343  119337      66  119343
  119340      67  119352  119349      66  119355  119349      66  119355  119352
      67  119364  119361      66  119367  119361      66  119367  119364      67
  119376  119373      66  119379  119373      66  119379  119376      67  119388
  119385      66  119391  119385      66  119391  119388      67  119400  119397
      66  119403  119397      66  119403  119400      67  119412  119409      66
  119415  119409      66  119415  119412      67  119424  119421      66  119427
  119421      66  119427  119424      67  119436  119433      66  119439  119433
      66  119439  119436      67  119448  119445      66  119451  119445      66
  119451  119448      67  119460  119457      66  119463  119457      66  119463
  119460      67  119472  119469      66  119475  119469      66  119475  119472
      67  119484  119481      66  119487  119481      66  119487  119484      67
  119496  119493      66  119499  119493      66  119499  119496      67  119508
  119505      66  119511  119505      66  119511  119508      67  119520  119517
      66  119523  119517      66  119523  119520      67  119532  119529      66
  119535  119529      66  119535  119532      67  119544  119541      66  119547
  119541      66  119547  119544      67  119556  119553      66  119559  119553
      66  119559  119556      67  119568  119565      66  119571  119565      66
  119571  119568      67  119580  119577      66  119583  119577      66  119583
  119580      67  119592  119589      66  119595  119589      66  119595  119592
      67  119604  119601      66  119607  119601      66  119607  119604      67
  119616  119613      66  119619  119613      66  119619  119616      67  119628
  119625      66  119631  119625      66  119631  119628      67  119640  119637
      66  119643  119637      66  119643  119640      67  119652  119649      66
  119655  119649      66  119655  119652      67  119664  119661      66  119667
  119661      66  119667  119664      67  119676  119673      66  119679  119673
      66  119679  119676      67  119688  119685      66  119691  119685      66
  119691  119688      67  119700  119697      66  119703  119697      66  119703
  119700      67  119712  119709      66  119715  119709      66  119715  119712
      67  119724  119721      66  119727  119721      66  119727  119724      67
  119736  119733      66  119739  119733      66  119739  119736      67  119748
  119745      66  119751  119745      66  119751  119748      67  119760  119757
      66  119763  119757      66  119763  119760      67  119772  119769      66
  119775  119769      66  119775  119772      67  119784  119781      66  119787
  119781      66  119787  119784      67  119796  119793      66  119799  119793
      66  119799  119796      67  119808  119805      66  119811  119805      66
  119811  119808      67  119820  119817      66  119823  119817      66  119823
  119820      67  119832  119829      66  119835  119829      66  119835  119832
      67  119844  119841      66  119847  119841      66  119847  119844      67
  119856  119853      66  119859  119853      66  119859  119856      67  119868
  119865      66  119871  119865      66  119871  119868      67  119880  119877
      66  119883  119877      66  119883  119880      67  119892  119889      66
  119895  119889      66  119895  119892      67  119904  119901      66  119907
  119901      66  119907  119904      67  119916  119913      66  119919  119913
      66  119919  119916      67  119928  119925      66  119931  119925      66
  119931  119928      67  119940  119937      66  119943  119937      66  119943
  119940      67  119952  119949      66  119955  119949      66  119955  119952
      67  119964  119961      66  119967  119961      66  119967  119964      67
  119976  119973      66  119979  119973      66  119979  119976      67  119988
  119985      66  119991  119985      66  119991  119988      67  120000  119997
      66  120003  119997      66  120003  120000      67  120012  120009      66
  120015  120009      66  120015  120012      67  120024  120021      66  120027
  120021      66  120027  120024      67  120036  120033      66  120039  120033
      66  120039  120036      67  120048  120045      66  120051  120045      66
  120051  120048      67  120060  120057      66  120063  120057      66  120063
  120060      67  120072  120069      66  120075  120069      66  120075  120072
      67  120084  120081      66  120087  120081      66  120087  120084      67
  120096  120093      66  120099  120093      66  120099  120096      67  120108
  120105      66  120111  120105      66  120111  120108      67  120120  120117
      66  120123  120117      66  120123  120120      67  120132  120129      66
  120135  120129      66  120135  120132      67  120144  120141      66  120147
  120141      66  120147  120144      67  120156  120153      66  120159  120153
      66  120159  120156      67  120168  120165      66  120171  120165      66
  120171  120168      67  120180  120177      66  120183  120177      66  120183
  120180      67  120192  120189      66  120195  120189      66  120195  120192
      67  120204  120201      66  120207  120201      66  120207  120204      67
  120216  120213      66  120219  120213      66  120219  120216      67  120228
  120225      66  120231  120225      66  120231  120228      67  120240  120237
      66  120243  120237      66  120243  120240      67  120252  120249      66
  120255  120249      66  120255  120252      67  120264  120261      66  120267
  120261      66  120267  120264      67  120276  120273      66  120279  120273
      66  120279  120276      67  120288  120285      66  120291  120285      66
  120291  120288      67  120300  120297      66  120303  120297      66  120303
  120300      67  120312  120309      66  120315  120309      66  120315  120312
      67  120324  120321      66  120327  120321      66  120327  120324      67
  120336  120333      66  120339  120333      66  120339  120336      67  120348
  120345      66  120351  120345      66  120351  120348      67  120360  120357
      66  120363  120357      66  120363  120360      67  120372  120369      66
  120375  120369      66  120375  120372      67  120384  120381      66  120387
  120381      66  120387  120384      67  120396  120393      66  120399  120393
      66  120399  120396      67  120408  120405      66  120411  120405      66
  120411  120408      67  120420  120417      66  120423  120417      66  120423
  120420      67  120432  120429      66  120435  120429      66  120435  120432
      67  120444  120441      66  120447  120441      66  120447  120444      67
  120456  120453      66  120459  120453      66  120459  120456      67  120468
  120465      66  120471  120465      66  120471  120468      67  120480  120477
      66  120483  120477      66  120483  120480      67  120492  120489      66
  120495  120489      66  120495  120492      67  120504  120501      66  120507
  120501      66  120507  120504      67  120516  120513      66  120519  120513
      66  120519  120516      67  120528  120525      66  120531  120525      66
  120531  120528      67  120540  120537      66  120543  120537      66  120543
  120540      67  120552  120549      66  120555  120549      66  120555  120552
      67  120564  120561      66  120567  120561      66  120567  120564      67
  120576  120573      66  120579  120573      66  120579  120576      67  120588
  120585      66  120591  120585      66  120591  120588      67  120600  120597
      66  120603  120597      66  120603  120600      67  120612  120609      66
  120615  120609      66  120615  120612      67  120624  120621      66  120627
  120621      66  120627  120624      67  120636  120633      66  120639  120633
      66  120639  120636      67  120648  120645      66  120651  120645      66
  120651  120648      67  120660  120657      66  120663  120657      66  120663
  120660      67  120672  120669      66  120675  120669      66  120675  120672
      67  120684  120681      66  120687  120681      66  120687  120684      67
  120696  120693      66  120699  120693      66  120699  120696      67  120708
  120705      66  120711  120705      66  120711  120708      67  120720  120717
      66  120723  120717      66  120723  120720      67  120732  120729      66
  120735  120729      66  120735  120732      67  120744  120741      66  120747
  120741      66  120747  120744      67  120756  120753      66  120759  120753
      66  120759  120756      67  120768  120765      66  120771  120765      66
  120771  120768      67  120780  120777      66  120783  120777      66  120783
  120780      67  120792  120789      66  120795  120789      66  120795  120792
      67  120804  120801      66  120807  120801      66  120807  120804      67
  120816  120813      66  120819  120813      66  120819  120816      67  120828
  120825      66  120831  120825      66  120831  120828      67  120840  120837
      66  120843  120837      66  120843  120840      67  120852  120849      66
  120855  120849      66  120855  120852      67  120864  120861      66  120867
  120861      66  120867  120864      67  120876  120873      66  120879  120873
      66  120879  120876      67  120888  120885      66  120891  120885      66
  120891  120888      67  120900  120897      66  120903  120897      66  120903
  120900      67  120912  120909      66  120915  120909      66  120915  120912
      67  120924  120921      66  120927  120921      66  120927  120924      67
  120936  120933      66  120939  120933      66  120939  120936      67  120948
  120945      66  120951  120945      66  120951  120948      67  120960  120957
      66  120963  120957      66  120963  120960      67  120972  120969      66
  120975  120969      66  120975  120972      67  120984  120981      66  120987
  120981      66  120987  120984      67  120996  120993      66  120999  120993
      66  120999  120996      67  121008  121005      66  121011  121005      66
  121011  121008      67  121020  121017      66  121023  121017      66  121023
  121020      67  121032  121029      66  121035  121029      66  121035  121032
      67  121044  121041      66  121047  121041      66  121047  121044      67
  121056  121053      66  121059  121053      66  121059  121056      67  121068
  121065      66  121071  121065      66  121071  121068      67  121080  121077
      66  121083  121077      66  121083  121080      67  121092  121089      66
  121095  121089      66  121095  121092      67  121104  121101      66  121107
  121101      66  121107  121104      67  121116  121113      66  121119  121113
      66  121119  121116      67  121128  121125      66  121131  121125      66
  121131  121128      67  121140  121137      66  121143  121137      66  121143
  121140      67  121152  121149      66  121155  121149      66  121155  121152
      67  121164  121161      66  121167  121161      66  121167  121164      67
  121176  121173      66  121179  121173      66  121179  121176      67  121188
  121185      66  121191  121185      66  121191  121188      67  121200  121197
      66  121203  121197      66  121203  121200      67  121212  121209      66
  121215  121209      66  121215  121212      67  121224  121221      66  121227
  121221      66  121227  121224      67  121236  121233      66  121239  121233
      66  121239  121236      67  121248  121245      66  121251  121245      66
  121251  121248      67  121260  121257      66  121263  121257      66  121263
  121260      67  121272  121269      66  121275  121269      66  121275  121272
      67  121284  121281      66  121287  121281      66  121287  121284      67
  121296  121293      66  121299  121293      66  121299  121296      67  121308
  121305      66  121311  121305      66  121311  121308      67  121320  121317
      66  121323  121317      66  121323  121320      67  121332  121329      66
  121335  121329      66  121335  121332      67  121344  121341      66  121347
  121341      66  121347  121344      67  121356  121353      66  121359  121353
      66  121359  121356      67  121368  121365      66  121371  121365      66
  121371  121368      67  121380  121377      66  121383  121377      66  121383
  121380      67  121392  121389      66  121395  121389      66  121395  121392
      67  121404  121401      66  121407  121401      66  121407  121404      67
  121416  121413      66  121419  121413      66  121419  121416      67  121428
  121425      66  121431  121425      66  121431  121428      67  121440  121437
      66  121443  121437      66  121443  121440      67  121452  121449      66
  121455  121449      66  121455  121452      67  121464  121461      66  121467
  121461      66  121467  121464      67  121476  121473      66  121479  121473
      66  121479  121476      67  121488  121485      66  121491  121485      66
  121491  121488      67  121500  121497      66  121503  121497      66  121503
  121500      67  121512  121509      66  121515  121509      66  121515  121512
      67  121524  121521      66  121527  121521      66  121527  121524      67
  121536  121533      66  121539  121533      66  121539  121536      67  121548
  121545      66  121551  121545      66  121551  121548      67  121560  121557
      66  121563  121557      66  121563  121560      67  121572  121569      66
  121575  121569      66  121575  121572      67  121584  121581      66  121587
  121581      66  121587  121584      67  121596  121593      66  121599  121593
      66  121599  121596      67  121608  121605      66  121611  121605      66
  121611  121608      67  121620  121617      66  121623  121617      66  121623
  121620      67  121632  121629      66  121635  121629      66  121635  121632
      67  121644  121641      66  121647  121641      66  121647  121644      67
  121656  121653      66  121659  121653      66  121659  121656      67  121668
  121665      66  121671  121665      66  121671  121668      67  121680  121677
      66  121683  121677      66  121683  121680      67  121692  121689      66
  121695  121689      66  121695  121692      67  121704  121701      66  121707
  121701      66  121707  121704      67  121716  121713      66  121719  121713
      66  121719  121716      67  121728  121725      66  121731  121725      66
  121731  121728      67  121740  121737      66  121743  121737      66  121743
  121740      67  121752  121749      66  121755  121749      66  121755  121752
      67  121764  121761      66  121767  121761      66  121767  121764      67
  121776  121773      66  121779  121773      66  121779  121776      67  121788
  121785      66  121791  121785      66  121791  121788      67  121800  121797
      66  121803  121797      66  121803  121800      67  121812  121809      66
  121815  121809      66  121815  121812      67  121824  121821      66  121827
  121821      66  121827  121824      67  121836  121833      66  121839  121833
      66  121839  121836      67  121848  121845      66  121851  121845      66
  121851  121848      67  121860  121857      66  121863  121857      66  121863
  121860      67  121872  121869      66  121875  121869      66  121875  121872
      67  121884  121881      66  121887  121881      66  121887  121884      67
  121896  121893      66  121899  121893      66  121899  121896      67  121908
  121905      66  121911  121905      66  121911  121908      67  121920  121917
      66  121923  121917      66  121923  121920      67  121932  121929      66
  121935  121929      66  121935  121932      67  121944  121941      66  121947
  121941      66  121947  121944      67  121956  121953      66  121959  121953
      66  121959  121956      67  121968  121965      66  121971  121965      66
  121971  121968      67  121980  121977      66  121983  121977      66  121983
  121980      67  121992  121989      66  121995  121989      66  121995  121992
      67  122004  122001      66  122007  122001      66  122007  122004      67
  122016  122013      66  122019  122013      66  122019  122016      67  122028
  122025      66  122031  122025      66  122031  122028      67  122040  122037
      66  122043  122037      66  122043  122040      67  122052  122049      66
  122055  122049      66  122055  122052      67  122064  122061      66  122067
  122061      66  122067  122064      67  122076  122073      66  122079  122073
      66  122079  122076      67  122088  122085      66  122091  122085      66
  122091  122088      67  122100  122097      66  122103  122097      66  122103
  122100      67  122112  122109      66  122115  122109      66  122115  122112
      67  122124  122121      66  122127  122121      66  122127  122124      67
  122136  122133      66  122139  122133      66  122139  122136      67  122148
  122145      66  122151  122145      66  122151  122148      67  122160  122157
      66  122163  122157      66  122163  122160      67  122172  122169      66
  122175  122169      66  122175  122172      67  122184  122181      66  122187
  122181      66  122187  122184      67  122196  122193      66  122199  122193
      66  122199  122196      67  122208  122205      66  122211  122205      66
  122211  122208      67  122220  122217      66  122223  122217      66  122223
  122220      67  122232  122229      66  122235  122229      66  122235  122232
      67  122244  122241      66  122247  122241      66  122247  122244      67
  122256  122253      66  122259  122253      66  122259  122256      67  122268
  122265      66  122271  122265      66  122271  122268      67  122280  122277
      66  122283  122277      66  122283  122280      67  122292  122289      66
  122295  122289      66  122295  122292      67  122304  122301      66  122307
  122301      66  122307  122304      67  122316  122313      66  122319  122313
      66  122319  122316      67  122328  122325      66  122331  122325      66
  122331  122328      67  122340  122337      66  122343  122337      66  122343
  122340      67  122352  122349      66  122355  122349      66  122355  122352
      67  122364  122361      66  122367  122361      66  122367  122364      67
  122376  122373      66  122379  122373      66  122379  122376      67  122388
  122385      66  122391  122385      66  122391  122388      67  122400  122397
      66  122403  122397      66  122403  122400      67  122412  122409      66
  122415  122409      66  122415  122412      67  122424  122421      66  122427
  122421      66  122427  122424      67  122436  122433      66  122439  122433
      66  122439  122436      67  122448  122445      66  122451  122445      66
  122451  122448      67  122460  122457      66  122463  122457      66  122463
  122460      67  122472  122469      66  122475  122469      66  122475  122472
      67  122484  122481      66  122487  122481      66  122487  122484      67
  122496  122493      66  122499  122493      66  122499  122496      67  122508
  122505      66  122511  122505      66  122511  122508      67  122520  122517
      66  122523  122517      66  122523  122520      67  122532  122529      66
  122535  122529      66  122535  122532      67  122544  122541      66  122547
  122541      66  122547  122544      67  122556  122553      66  122559  122553
      66  122559  122556      67  122568  122565      66  122571  122565      66
  122571  122568      67  122580  122577      66  122583  122577      66  122583
  122580      67  122592  122589      66  122595  122589      66  122595  122592
      67  122604  122601      66  122607  122601      66  122607  122604      67
  122616  122613      66  122619  122613      66  122619  122616      67  122628
  122625      66  122631  122625      66  122631  122628      67  122640  122637
      66  122643  122637      66  122643  122640      67  122652  122649      66
  122655  122649      66  122655  122652      67  122664  122661      66  122667
  122661      66  122667  122664      67  122676  122673      66  122679  122673
      66  122679  122676      67  122688  122685      66  122691  122685      66
  122691  122688      67  122700  122697      66  122703  122697      66  122703
  122700      67  122712  122709      66  122715  122709      66  122715  122712
      67  122724  122721      66  122727  122721      66  122727  122724      67
  122736  122733      66  122739  122733      66  122739  122736      67  122748
  122745      66  122751  122745      66  122751  122748      67  122760  122757
      66  122763  122757      66  122763  122760      67  122772  122769      66
  122775  122769      66  122775  122772      67  122784  122781      66  122787
  122781      66  122787  122784      67  122796  122793      66  122799  122793
      66  122799  122796      67  122808  122805      66  122811  122805      66
  122811  122808      67  122820  122817      66  122823  122817      66  122823
  122820      67  122832  122829      66  122835  122829      66  122835  122832
      67  122844  122841      66  122847  122841      66  122847  122844      67
  122856  122853      66  122859  122853      66  122859  122856      67  122868
  122865      66  122871  122865      66  122871  122868      67  122880  122877
      66  122883  122877      66  122883  122880      67  122892  122889      66
  122895  122889      66  122895  122892      67  122904  122901      66  122907
  122901      66  122907  122904      67  122916  122913      66  122919  122913
      66  122919  122916      67  122928  122925      66  122931  122925      66
  122931  122928      67  122940  122937      66  122943  122937      66  122943
  122940      67  122952  122949      66  122955  122949      66  122955  122952
      67  122964  122961      66  122967  122961      66  122967  122964      67
  122976  122973      66  122979  122973      66  122979  122976      67  122988
  122985      66  122991  122985      66  122991  122988      67  123000  122997
      66  123003  122997      66  123003  123000      67  123012  123009      66
  123015  123009      66  123015  123012      67  123024  123021      66  123027
  123021      66  123027  123024      67  123036  123033      66  123039  123033
      66  123039  123036      67  123048  123045      66  123051  123045      66
  123051  123048      67  123060  123057      66  123063  123057      66  123063
  123060      67  123072  123069      66  123075  123069      66  123075  123072
      67  123084  123081      66  123087  123081      66  123087  123084      67
  123096  123093      66  123099  123093      66  123099  123096      67  123108
  123105      66  123111  123105      66  123111  123108      67  123120  123117
      66  123123  123117      66  123123  123120      67  123132  123129      66
  123135  123129      66  123135  123132      67  123144  123141      66  123147
  123141      66  123147  123144      67  123156  123153      66  123159  123153
      66  123159  123156      67  123168  123165      66  123171  123165      66
  123171  123168      67  123180  123177      66  123183  123177      66  123183
  123180      67  123192  123189      66  123195  123189      66  123195  123192
      67  123204  123201      66  123207  123201      66  123207  123204      67
  123216  123213      66  123219  123213      66  123219  123216      67  123228
  123225      66  123231  123225      66  123231  123228      67  123240  123237
      66  123243  123237      66  123243  123240      67  123252  123249      66
  123255  123249      66  123255  123252      67  123264  123261      66  123267
  123261      66  123267  123264      67  123276  123273      66  123279  123273
      66  123279  123276      67  123288  123285      66  123291  123285      66
  123291  123288      67  123300  123297      66  123303  123297      66  123303
  123300      67  123312  123309      66  123315  123309      66  123315  123312
      67  123324  123321      66  123327  123321      66  123327  123324      67
  123336  123333      66  123339  123333      66  123339  123336      67  123348
  123345      66  123351  123345      66  123351  123348      67  123360  123357
      66  123363  123357      66  123363  123360      67  123372  123369      66
  123375  123369      66  123375  123372      67  123384  123381      66  123387
  123381      66  123387  123384      67  123396  123393      66  123399  123393
      66  123399  123396      67  123408  123405      66  123411  123405      66
  123411  123408      67  123420  123417      66  123423  123417      66  123423
  123420      67  123432  123429      66  123435  123429      66  123435  123432
      67  123444  123441      66  123447  123441      66  123447  123444      67
  123456  123453      66  123459  123453      66  123459  123456      67  123468
  123465      66  123471  123465      66  123471  123468      67  123480  123477
      66  123483  123477      66  123483  123480      67  123492  123489      66
  123495  123489      66  123495  123492      67  123504  123501      66  123507
  123501      66  123507  123504      67  123516  123513      66  123519  123513
      66  123519  123516      67  123528  123525      66  123531  123525      66
  123531  123528      67  123540  123537      66  123543  123537      66  123543
  123540      67  123552  123549      66  123555  123549      66  123555  123552
      67  123564  123561      66  123567  123561      66  123567  123564      67
  123576  123573      66  123579  123573      66  123579  123576      67  123588
  123585      66  123591  123585      66  123591  123588      67  123600  123597
      66  123603  123597      66  123603  123600      67  123612  123609      66
  123615  123609      66  123615  123612      67  123624  123621      66  123627
  123621      66  123627  123624      67  123636  123633      66  123639  123633
      66  123639  123636      67  123648  123645      66  123651  123645      66
  123651  123648      67  123660  123657      66  123663  123657      66  123663
  123660      67  123672  123669      66  123675  123669      66  123675  123672
      67  123684  123681      66  123687  123681      66  123687  123684      67
  123696  123693      66  123699  123693      66  123699  123696      67  123708
  123705      66  123711  123705      66  123711  123708      67  123720  123717
      66  123723  123717      66  123723  123720      67  123732  123729      66
  123735  123729      66  123735  123732      67  123744  123741      66  123747
  123741      66  123747  123744      67  123756  123753      66  123759  123753
      66  123759  123756      67  123768  123765      66  123771  123765      66
  123771  123768      67  123780  123777      66  123783  123777      66  123783
  123780      67  123792  123789      66  123795  123789      66  123795  123792
      67  123804  123801      66  123807  123801      66  123807  123804      67
  123816  123813      66  123819  123813      66  123819  123816      67  123828
  123825      66  123831  123825      66  123831  123828      67  123840  123837
      66  123843  123837      66  123843  123840      67  123852  123849      66
  123855  123849      66  123855  123852      67  123864  123861      66  123867
  123861      66  123867  123864      67  123876  123873      66  123879  123873
      66  123879  123876      67  123888  123885      66  123891  123885      66
  123891  123888      67  123900  123897      66  123903  123897      66  123903
  123900      67  123912  123909      66  123915  123909      66  123915  123912
      67  123924  123921      66  123927  123921      66  123927  123924      67
  123936  123933      66  123939  123933      66  123939  123936      67  123948
  123945      66  123951  123945      66  123951  123948      67  123960  123957
      66  123963  123957      66  123963  123960      67  123972  123969      66
  123975  123969      66  123975  123972      67  123984  123981      66  123987
  123981      66  123987  123984      67  123996  123993      66  123999  123993
      66  123999  123996      67  124008  124005      66  124011  124005      66
  124011  124008      67  124020  124017      66  124023  124017      66  124023
  124020      67  124032  124029      66  124035  124029      66  124035  124032
      67  124044  124041      66  124047  124041      66  124047  124044      67
  124056  124053      66  124059  124053      66  124059  124056      67  124068
  124065      66  124071  124065      66  124071  124068      67  124080  124077
      66  124083  124077      66  124083  124080      67  124092  124089      66
  124095  124089      66  124095  124092      67  124104  124101      66  124107
  124101      66  124107  124104      67  124116  124113      66  124119  124113
      66  124119  124116      67  124128  124125      66  124131  124125      66
  124131  124128      67  124140  124137      66  124143  124137      66  124143
  124140      67  124152  124149      66  124155  124149      66  124155  124152
      67  124164  124161      66  124167  124161      66  124167  124164      67
  124176  124173      66  124179  124173      66  124179  124176      67  124188
  124185      66  124191  124185      66  124191  124188      67  124200  124197
      66  124203  124197      66  124203  124200      67  124212  124209      66
  124215  124209      66  124215  124212      67  124224  124221      66  124227
  124221      66  124227  124224      67  124236  124233      66  124239  124233
      66  124239  124236      67  124248  124245      66  124251  124245      66
  124251  124248      67  124260  124257      66  124263  124257      66  124263
  124260      67  124272  124269      66  124275  124269      66  124275  124272
      67  124284  124281      66  124287  124281      66  124287  124284      67
  124296  124293      66  124299  124293      66  124299  124296      67  124308
  124305      66  124311  124305      66  124311  124308      67  124320  124317
      66  124323  124317      66  124323  124320      67  124332  124329      66
  124335  124329      66  124335  124332      67  124344  124341      66  124347
  124341      66  124347  124344      67  124356  124353      66  124359  124353
      66  124359  124356      67  124368  124365      66  124371  124365      66
  124371  124368      67  124380  124377      66  124383  124377      66  124383
  124380      67  124392  124389      66  124395  124389      66  124395  124392
      67  124404  124401      66  124407  124401      66  124407  124404      67
  124416  124413      66  124419  124413      66  124419  124416      67  124428
  124425      66  124431  124425      66  124431  124428      67  124440  124437
      66  124443  124437      66  124443  124440      67  124452  124449      66
  124455  124449      66  124455  124452      67  124464  124461      66  124467
  124461      66  124467  124464      67  124476  124473      66  124479  124473
      66  124479  124476      67  124488  124485      66  124491  124485      66
  124491  124488      67  124500  124497      66  124503  124497      66  124503
  124500      67  124512  124509      66  124515  124509      66  124515  124512
      67  124524  124521      66  124527  124521      66  124527  124524      67
  124536  124533      66  124539  124533      66  124539  124536      67  124548
  124545      66  124551  124545      66  124551  124548      67  124560  124557
      66  124563  124557      66  124563  124560      67  124572  124569      66
  124575  124569      66  124575  124572      67  124584  124581      66  124587
  124581      66  124587  124584      67  124596  124593      66  124599  124593
      66  124599  124596      67  124608  124605      66  124611  124605      66
  124611  124608      67  124620  124617      66  124623  124617      66  124623
  124620      67  124632  124629      66  124635  124629      66  124635  124632
      67  124644  124641      66  124647  124641      66  124647  124644      67
  124656  124653      66  124659  124653      66  124659  124656      67  124668
  124665      66  124671  124665      66  124671  124668      67  124680  124677
      66  124683  124677      66  124683  124680      67  124692  124689      66
  124695  124689      66  124695  124692      67  124704  124701      66  124707
  124701      66  124707  124704      67  124716  124713      66  124719  124713
      66  124719  124716      67  124728  124725      66  124731  124725      66
  124731  124728      67  124740  124737      66  124743  124737      66  124743
  124740      67  124752  124749      66  124755  124749      66  124755  124752
      67  124764  124761      66  124767  124761      66  124767  124764      67
  124776  124773      66  124779  124773      66  124779  124776      67  124788
  124785      66  124791  124785      66  124791  124788      67  124800  124797
      66  124803  124797      66  124803  124800      67  124812  124809      66
  124815  124809      66  124815  124812      67  124824  124821      66  124827
  124821      66  124827  124824      67  124836  124833      66  124839  124833
      66  124839  124836      67  124848  124845      66  124851  124845      66
  124851  124848      67  124860  124857      66  124863  124857      66  124863
  124860      67  124872  124869      66  124875  124869      66  124875  124872
      67  124884  124881      66  124887  124881      66  124887  124884      67
  124896  124893      66  124899  124893      66  124899  124896      67  124908
  124905      66  124911  124905      66  124911  124908      67  124920  124917
      66  124923  124917      66  124923  124920      67  124932  124929      66
  124935  124929      66  124935  124932      67  124944  124941      66  124947
  124941      66  124947  124944      67  124956  124953      66  124959  124953
      66  124959  124956      67  124968  124965      66  124971  124965      66
  124971  124968      67  124980  124977      66  124983  124977      66  124983
  124980      67  124992  124989      66  124995  124989      66  124995  124992
      67  125004  125001      66  125007  125001      66  125007  125004      67
  125016  125013      66  125019  125013      66  125019  125016      67  125028
  125025      66  125031  125025      66  125031  125028      67  125040  125037
      66  125043  125037      66  125043  125040      67  125052  125049      66
  125055  125049      66  125055  125052      67  125064  125061      66  125067
  125061      66  125067  125064      67  125076  125073      66  125079  125073
      66  125079  125076      67  125088  125085      66  125091  125085      66
  125091  125088      67  125100  125097      66  125103  125097      66  125103
  125100      67  125112  125109      66  125115  125109      66  125115  125112
      67  125124  125121      66  125127  125121      66  125127  125124      67
  125136  125133      66  125139  125133      66  125139  125136      67  125148
  125145      66  125151  125145      66  125151  125148      67  125160  125157
      66  125163  125157      66  125163  125160      67  125172  125169      66
  125175  125169      66  125175  125172      67  125184  125181      66  125187
  125181      66  125187  125184      67  125196  125193      66  125199  125193
      66  125199  125196      67  125208  125205      66  125211  125205      66
  125211  125208      67  125220  125217      66  125223  125217      66  125223
  125220      67  125232  125229      66  125235  125229      66  125235  125232
      67  125244  125241      66  125247  125241      66  125247  125244      67
  125256  125253      66  125259  125253      66  125259  125256      67  125268
  125265      66  125271  125265      66  125271  125268      67  125280  125277
      66  125283  125277      66  125283  125280      67  125292  125289      66
  125295  125289      66  125295  125292      67  125304  125301      66  125307
  125301      66  125307  125304      67  125316  125313      66  125319  125313
      66  125319  125316      67  125328  125325      66  125331  125325      66
  125331  125328      67  125340  125337      66  125343  125337      66  125343
  125340      67  125352  125349      66  125355  125349      66  125355  125352
      67  125364  125361      66  125367  125361      66  125367  125364      67
  125376  125373      66  125379  125373      66  125379  125376      67  125388
  125385      66  125391  125385      66  125391  125388      67  125400  125397
      66  125403  125397      66  125403  125400      67  125412  125409      66
  125415  125409      66  125415  125412      67  125424  125421      66  125427
  125421      66  125427  125424      67  125436  125433      66  125439  125433
      66  125439  125436      67  125448  125445      66  125451  125445      66
  125451  125448      67  125460  125457      66  125463  125457      66  125463
  125460      67  125472  125469      66  125475  125469      66  125475  125472
      67  125484  125481      66  125487  125481      66  125487  125484      67
  125496  125493      66  125499  125493      66  125499  125496      67  125508
  125505      66  125511  125505      66  125511  125508      67  125520  125517
      66  125523  125517      66  125523  125520      67  125532  125529      66
  125535  125529      66  125535  125532      67  125544  125541      66  125547
  125541      66  125547  125544      67  125556  125553      66  125559  125553
      66  125559  125556      67  125568  125565      66  125571  125565      66
  125571  125568      67  125580  125577      66  125583  125577      66  125583
  125580      67  125592  125589      66  125595  125589      66  125595  125592
      67  125604  125601      66  125607  125601      66  125607  125604      67
  125616  125613      66  125619  125613      66  125619  125616      67  125628
  125625      66  125631  125625      66  125631  125628      67  125640  125637
      66  125643  125637      66  125643  125640      67  125652  125649      66
  125655  125649      66  125655  125652      67  125664  125661      66  125667
  125661      66  125667  125664      67  125676  125673      66  125679  125673
      66  125679  125676      67  125688  125685      66  125691  125685      66
  125691  125688      67  125700  125697      66  125703  125697      66  125703
  125700      67  125712  125709      66  125715  125709      66  125715  125712
      67  125724  125721      66  125727  125721      66  125727  125724      67
  125736  125733      66  125739  125733      66  125739  125736      67  125748
  125745      66  125751  125745      66  125751  125748      67  125760  125757
      66  125763  125757      66  125763  125760      67  125772  125769      66
  125775  125769      66  125775  125772      67  125784  125781      66  125787
  125781      66  125787  125784      67  125796  125793      66  125799  125793
      66  125799  125796      67  125808  125805      66  125811  125805      66
  125811  125808      67  125820  125817      66  125823  125817      66  125823
  125820      67  125832  125829      66  125835  125829      66  125835  125832
      67  125844  125841      66  125847  125841      66  125847  125844      67
  125856  125853      66  125859  125853      66  125859  125856      67  125868
  125865      66  125871  125865      66  125871  125868      67  125880  125877
      66  125883  125877      66  125883  125880      67  125892  125889      66
  125895  125889      66  125895  125892      67  125904  125901      66  125907
  125901      66  125907  125904      67  125916  125913      66  125919  125913
      66  125919  125916      67  125928  125925      66  125931  125925      66
  125931  125928      67  125940  125937      66  125943  125937      66  125943
  125940      67  125952  125949      66  125955  125949      66  125955  125952
      67  125964  125961      66  125967  125961      66  125967  125964      67
  125976  125973      66  125979  125973      66  125979  125976      67  125988
  125985      66  125991  125985      66  125991  125988      67  126000  125997
      66  126003  125997      66  126003  126000      67  126012  126009      66
  126015  126009      66  126015  126012      67  126024  126021      66  126027
  126021      66  126027  126024      67  126036  126033      66  126039  126033
      66  126039  126036      67  126048  126045      66  126051  126045      66
  126051  126048      67  126060  126057      66  126063  126057      66  126063
  126060      67  126072  126069      66  126075  126069      66  126075  126072
      67  126084  126081      66  126087  126081      66  126087  126084      67
  126096  126093      66  126099  126093      66  126099  126096      67  126108
  126105      66  126111  126105      66  126111  126108      67  126120  126117
      66  126123  126117      66  126123  126120      67  126132  126129      66
  126135  126129      66  126135  126132      67  126144  126141      66  126147
  126141      66  126147  126144      67  126156  126153      66  126159  126153
      66  126159  126156      67  126168  126165      66  126171  126165      66
  126171  126168      67  126180  126177      66  126183  126177      66  126183
  126180      67  126192  126189      66  126195  126189      66  126195  126192
      67  126204  126201      66  126207  126201      66  126207  126204      67
  126216  126213      66  126219  126213      66  126219  126216      67  126228
  126225      66  126231  126225      66  126231  126228      67  126240  126237
      66  126243  126237      66  126243  126240      67  126252  126249      66
  126255  126249      66  126255  126252      67  126264  126261      66  126267
  126261      66  126267  126264      67  126276  126273      66  126279  126273
      66  126279  126276      67  126288  126285      66  126291  126285      66
  126291  126288      67  126300  126297      66  126303  126297      66  126303
  126300      67  126312  126309      66  126315  126309      66  126315  126312
      67  126324  126321      66  126327  126321      66  126327  126324      67
  126336  126333      66  126339  126333      66  126339  126336      67  126348
  126345      66  126351  126345      66  126351  126348      67  126360  126357
      66  126363  126357      66  126363  126360      67  126372  126369      66
  126375  126369      66  126375  126372      67  126384  126381      66  126387
  126381      66  126387  126384      67  126396  126393      66  126399  126393
      66  126399  126396      67  126408  126405      66  126411  126405      66
  126411  126408      67  126420  126417      66  126423  126417      66  126423
  126420      67  126432  126429      66  126435  126429      66  126435  126432
      67  126444  126441      66  126447  126441      66  126447  126444      67
  126456  126453      66  126459  126453      66  126459  126456      67  126468
  126465      66  126471  126465      66  126471  126468      67  126480  126477
      66  126483  126477      66  126483  126480      67  126492  126489      66
  126495  126489      66  126495  126492      67  126504  126501      66  126507
  126501      66  126507  126504      67  126516  126513      66  126519  126513
      66  126519  126516      67  126528  126525      66  126531  126525      66
  126531  126528      67  126540  126537      66  126543  126537      66  126543
  126540      67  126552  126549      66  126555  126549      66  126555  126552
      67  126564  126561      66  126567  126561      66  126567  126564      67
  126576  126573      66  126579  126573      66  126579  126576      67  126588
  126585      66  126591  126585      66  126591  126588      67  126600  126597
      66  126603  126597      66  126603  126600      67  126612  126609      66
  126615  126609      66  126615  126612      67  126624  126621      66  126627
  126621      66  126627  126624      67  126636  126633      66  126639  126633
      66  126639  126636      67  126648  126645      66  126651  126645      66
  126651  126648      67  126660  126657      66  126663  126657      66  126663
  126660      67  126672  126669      66  126675  126669      66  126675  126672
      67  126684  126681      66  126687  126681      66  126687  126684      67
  126696  126693      66  126699  126693      66  126699  126696      67  126708
  126705      66  126711  126705      66  126711  126708      67  126720  126717
      66  126723  126717      66  126723  126720      67  126732  126729      66
  126735  126729      66  126735  126732      67  126744  126741      66  126747
  126741      66  126747  126744      67  126756  126753      66  126759  126753
      66  126759  126756      67  126768  126765      66  126771  126765      66
  126771  126768      67  126780  126777      66  126783  126777      66  126783
  126780      67  126792  126789      66  126795  126789      66  126795  126792
      67  126804  126801      66  126807  126801      66  126807  126804      67
  126816  126813      66  126819  126813      66  126819  126816      67  126828
  126825      66  126831  126825      66  126831  126828      67  126840  126837
      66  126843  126837      66  126843  126840      67  126852  126849      66
  126855  126849      66  126855  126852      67  126864  126861      66  126867
  126861      66  126867  126864      67  126876  126873      66  126879  126873
      66  126879  126876      67  126888  126885      66  126891  126885      66
  126891  126888      67  126900  126897      66  126903  126897      66  126903
  126900      67  126912  126909      66  126915  126909      66  126915  126912
      67  126924  126921      66  126927  126921      66  126927  126924      67
  126936  126933      66  126939  126933      66  126939  126936      67  126948
  126945      66  126951  126945      66  126951  126948      67  126960  126957
      66  126963  126957      66  126963  126960      67  126972  126969      66
  126975  126969      66  126975  126972      67  126984  126981      66  126987
  126981      66  126987  126984      67  126996  126993      66  126999  126993
      66  126999  126996      67  127008  127005      66  127011  127005      66
  127011  127008      67  127020  127017      66  127023  127017      66  127023
  127020      67  127032  127029      66  127035  127029      66  127035  127032
      67  127044  127041      66  127047  127041      66  127047  127044      67
  127056  127053      66  127059  127053      66  127059  127056      67  127068
  127065      66  127071  127065      66  127071  127068      67  127080  127077
      66  127083  127077      66  127083  127080      67  127092  127089      66
  127095  127089      66  127095  127092      67  127104  127101      66  127107
  127101      66  127107  127104      67  127116  127113      66  127119  127113
      66  127119  127116      67  127128  127125      66  127131  127125      66
  127131  127128      67  127140  127137      66  127143  127137      66  127143
  127140      67  127152  127149      66  127155  127149      66  127155  127152
      67  127164  127161      66  127167  127161      66  127167  127164      67
  127176  127173      66  127179  127173      66  127179  127176      67  127188
  127185      66  127191  127185      66  127191  127188      67  127200  127197
      66  127203  127197      66  127203  127200      67  127212  127209      66
  127215  127209      66  127215  127212      67  127224  127221      66  127227
  127221      66  127227  127224      67  127236  127233      66  127239  127233
      66  127239  127236      67  127248  127245      66  127251  127245      66
  127251  127248      67  127260  127257      66  127263  127257      66  127263
  127260      67  127272  127269      66  127275  127269      66  127275  127272
      67  127284  127281      66  127287  127281      66  127287  127284      67
  127296  127293      66  127299  127293      66  127299  127296      67  127308
  127305      66  127311  127305      66  127311  127308      67  127320  127317
      66  127323  127317      66  127323  127320      67  127332  127329      66
  127335  127329      66  127335  127332      67  127344  127341      66  127347
  127341      66  127347  127344      67  127356  127353      66  127359  127353
      66  127359  127356      67  127368  127365      66  127371  127365      66
  127371  127368      67  127380  127377      66  127383  127377      66  127383
  127380      67  127392  127389      66  127395  127389      66  127395  127392
      67  127404  127401      66  127407  127401      66  127407  127404      67
  127416  127413      66  127419  127413      66  127419  127416      67  127428
  127425      66  127431  127425      66  127431  127428      67  127440  127437
      66  127443  127437      66  127443  127440      67  127452  127449      66
  127455  127449      66  127455  127452      67  127464  127461      66  127467
  127461      66  127467  127464      67  127476  127473      66  127479  127473
      66  127479  127476      67  127488  127485      66  127491  127485      66
  127491  127488      67  127500  127497      66  127503  127497      66  127503
  127500      67  127512  127509      66  127515  127509      66  127515  127512
      67  127524  127521      66  127527  127521      66  127527  127524      67
  127536  127533      66  127539  127533      66  127539  127536      67  127548
  127545      66  127551  127545      66  127551  127548      67  127560  127557
      66  127563  127557      66  127563  127560      67  127572  127569      66
  127575  127569      66  127575  127572      67  127584  127581      66  127587
  127581      66  127587  127584      67  127596  127593      66  127599  127593
      66  127599  127596      67  127608  127605      66  127611  127605      66
  127611  127608      67  127620  127617      66  127623  127617      66  127623
  127620      67  127632  127629      66  127635  127629      66  127635  127632
      67  127644  127641      66  127647  127641      66  127647  127644      67
  127656  127653      66  127659  127653      66  127659  127656      67  127668
  127665      66  127671  127665      66  127671  127668      67  127680  127677
      66  127683  127677      66  127683  127680      67  127692  127689      66
  127695  127689      66  127695  127692      67  127704  127701      66  127707
  127701      66  127707  127704      67  127716  127713      66  127719  127713
      66  127719  127716      67  127728  127725      66  127731  127725      66
  127731  127728      67  127740  127737      66  127743  127737      66  127743
  127740      67  127752  127749      66  127755  127749      66  127755  127752
      67  127764  127761      66  127767  127761      66  127767  127764      67
  127776  127773      66  127779  127773      66  127779  127776      67  127788
  127785      66  127791  127785      66  127791  127788      67  127800  127797
      66  127803  127797      66  127803  127800      67  127812  127809      66
  127815  127809      66  127815  127812      67  127824  127821      66  127827
  127821      66  127827  127824      67  127836  127833      66  127839  127833
      66  127839  127836      67  127848  127845      66  127851  127845      66
  127851  127848      67  127860  127857      66  127863  127857      66  127863
  127860      67  127872  127869      66  127875  127869      66  127875  127872
      67  127884  127881      66  127887  127881      66  127887  127884      67
  127896  127893      66  127899  127893      66  127899  127896      67  127908
  127905      66  127911  127905      66  127911  127908      67  127920  127917
      66  127923  127917      66  127923  127920      67  127932  127929      66
  127935  127929      66  127935  127932      67  127944  127941      66  127947
  127941      66  127947  127944      67  127956  127953      66  127959  127953
      66  127959  127956      67  127968  127965      66  127971  127965      66
  127971  127968      67  127980  127977      66  127983  127977      66  127983
  127980      67  127992  127989      66  127995  127989      66  127995  127992
      67  128004  128001      66  128007  128001      66  128007  128004      67
  128016  128013      66  128019  128013      66  128019  128016      67  128028
  128025      66  128031  128025      66  128031  128028      67  128040  128037
      66  128043  128037      66  128043  128040      67  128052  128049      66
  128055  128049      66  128055  128052      67  128064  128061      66  128067
  128061      66  128067  128064      67  128076  128073      66  128079  128073
      66  128079  128076      67  128088  128085      66  128091  128085      66
  128091  128088      67  128100  128097      66  128103  128097      66  128103
  128100      67  128112  128109      66  128115  128109      66  128115  128112
      67  128124  128121      66  128127  128121      66  128127  128124      67
  128136  128133      66  128139  128133      66  128139  128136      67  128148
  128145      66  128151  128145      66  128151  128148      67  128160  128157
      66  128163  128157      66  128163  128160      67  128172  128169      66
  128175  128169      66  128175  128172      67  128184  128181      66  128187
  128181      66  128187  128184      67  128196  128193      66  128199  128193
      66  128199  128196      67  128208  128205      66  128211  128205      66
  128211  128208      67  128220  128217      66  128223  128217      66  128223
  128220      67  128232  128229      66  128235  128229      66  128235  128232
      67  128244  128241      66  128247  128241      66  128247  128244      67
  128256  128253      66  128259  128253      66  128259  128256      67  128268
  128265      66  128271  128265      66  128271  128268      67  128280  128277
      66  128283  128277      66  128283  128280      67  128292  128289      66
  128295  128289      66  128295  128292      67  128304  128301      66  128307
  128301      66  128307  128304      67  128316  128313      66  128319  128313
      66  128319  128316      67  128328  128325      66  128331  128325      66
  128331  128328      67  128340  128337      66  128343  128337      66  128343
  128340      67  128352  128349      66  128355  128349      66  128355  128352
      67  128364  128361      66  128367  128361      66  128367  128364      67
  128376  128373      66  128379  128373      66  128379  128376      67  128388
  128385      66  128391  128385      66  128391  128388      67  128400  128397
      66  128403  128397      66  128403  128400      67  128412  128409      66
  128415  128409      66  128415  128412      67  128424  128421      66  128427
  128421      66  128427  128424      67  128436  128433      66  128439  128433
      66  128439  128436      67  128448  128445      66  128451  128445      66
  128451  128448      67  128460  128457      66  128463  128457      66  128463
  128460      67  128472  128469      66  128475  128469      66  128475  128472
      67  128484  128481      66  128487  128481      66  128487  128484      67
  128496  128493      66  128499  128493      66  128499  128496      67  128508
  128505      66  128511  128505      66  128511  128508      67  128520  128517
      66  128523  128517      66  128523  128520      67  128532  128529      66
  128535  128529      66  128535  128532      67  128544  128541      66  128547
  128541      66  128547  128544      67  128556  128553      66  128559  128553
      66  128559  128556      67  128568  128565      66  128571  128565      66
  128571  128568      67  128580  128577      66  128583  128577      66  128583
  128580      67  128592  128589      66  128595  128589      66  128595  128592
      67  128604  128601      66  128607  128601      66  128607  128604      67
  128616  128613      66  128619  128613      66  128619  128616      67  128628
  128625      66  128631  128625      66  128631  128628      67  128640  128637
      66  128643  128637      66  128643  128640      67  128652  128649      66
  128655  128649      66  128655  128652      67  128664  128661      66  128667
  128661      66  128667  128664      67  128676  128673      66  128679  128673
      66  128679  128676      67  128688  128685      66  128691  128685      66
  128691  128688      67  128700  128697      66  128703  128697      66  128703
  128700      67  128712  128709      66  128715  128709      66  128715  128712
      67  128724  128721      66  128727  128721      66  128727  128724      67
  128736  128733      66  128739  128733      66  128739  128736      67  128748
  128745      66  128751  128745      66  128751  128748      67  128760  128757
      66  128763  128757      66  128763  128760      67  128772  128769      66
  128775  128769      66  128775  128772      67  128784  128781      66  128787
  128781      66  128787  128784      67  128796  128793      66  128799  128793
      66  128799  128796      67  128808  128805      66  128811  128805      66
  128811  128808      67  128820  128817      66  128823  128817      66  128823
  128820      67  128832  128829      66  128835  128829      66  128835  128832
      67  128844  128841      66  128847  128841      66  128847  128844      67
  128856  128853      66  128859  128853      66  128859  128856      67  128868
  128865      66  128871  128865      66  128871  128868      67  128880  128877
      66  128883  128877      66  128883  128880      67  128892  128889      66
  128895  128889      66  128895  128892      67  128904  128901      66  128907
  128901      66  128907  128904      67  128916  128913      66  128919  128913
      66  128919  128916      67  128928  128925      66  128931  128925      66
  128931  128928      67  128940  128937      66  128943  128937      66  128943
  128940      67  128952  128949      66  128955  128949      66  128955  128952
      67  128964  128961      66  128967  128961      66  128967  128964      67
  128976  128973      66  128979  128973      66  128979  128976      67  128988
  128985      66  128991  128985      66  128991  128988      67  129000  128997
      66  129003  128997      66  129003  129000      67  129012  129009      66
  129015  129009      66  129015  129012      67  129024  129021      66  129027
  129021      66  129027  129024      67  129036  129033      66  129039  129033
      66  129039  129036      67  129048  129045      66  129051  129045      66
  129051  129048      67  129060  129057      66  129063  129057      66  129063
  129060      67  129072  129069      66  129075  129069      66  129075  129072
      67  129084  129081      66  129087  129081      66  129087  129084      67
  129096  129093      66  129099  129093      66  129099  129096      67  129108
  129105      66  129111  129105      66  129111  129108      67  129120  129117
      66  129123  129117      66  129123  129120      67  129132  129129      66
  129135  129129      66  129135  129132      67  129144  129141      66  129147
  129141      66  129147  129144      67  129156  129153      66  129159  129153
      66  129159  129156      67  129168  129165      66  129171  129165      66
  129171  129168      67  129180  129177      66  129183  129177      66  129183
  129180      67  129192  129189      66  129195  129189      66  129195  129192
      67  129204  129201      66  129207  129201      66  129207  129204      67
  129216  129213      66  129219  129213      66  129219  129216      67  129228
  129225      66  129231  129225      66  129231  129228      67  129240  129237
      66  129243  129237      66  129243  129240      67  129252  129249      66
  129255  129249      66  129255  129252      67  129264  129261      66  129267
  129261      66  129267  129264      67  129276  129273      66  129279  129273
      66  129279  129276      67  129288  129285      66  129291  129285      66
  129291  129288      67  129300  129297      66  129303  129297      66  129303
  129300      67  129312  129309      66  129315  129309      66  129315  129312
      67  129324  129321      66  129327  129321      66  129327  129324      67
  129336  129333      66  129339  129333      66  129339  129336      67  129348
  129345      66  129351  129345      66  129351  129348      67  129360  129357
      66  129363  129357      66  129363  129360      67  129372  129369      66
  129375  129369      66  129375  129372      67  129384  129381      66  129387
  129381      66  129387  129384      67  129396  129393      66  129399  129393
      66  129399  129396      67  129408  129405      66  129411  129405      66
  129411  129408      67  129420  129417      66  129423  129417      66  129423
  129420      67  129432  129429      66  129435  129429      66  129435  129432
      67  129444  129441      66  129447  129441      66  129447  129444      67
  129456  129453      66  129459  129453      66  129459  129456      67  129468
  129465      66  129471  129465      66  129471  129468      67  129480  129477
      66  129483  129477      66  129483  129480      67  129492  129489      66
  129495  129489      66  129495  129492      67  129504  129501      66  129507
  129501      66  129507  129504      67  129516  129513      66  129519  129513
      66  129519  129516      67  129528  129525      66  129531  129525      66
  129531  129528      67  129540  129537      66  129543  129537      66  129543
  129540      67  129552  129549      66  129555  129549      66  129555  129552
      67  129564  129561      66  129567  129561      66  129567  129564      67
  129576  129573      66  129579  129573      66  129579  129576      67  129588
  129585      66  129591  129585      66  129591  129588      67  129600  129597
      66  129603  129597      66  129603  129600      67  129612  129609      66
  129615  129609      66  129615  129612      67  129624  129621      66  129627
  129621      66  129627  129624      67  129636  129633      66  129639  129633
      66  129639  129636      67  129648  129645      66  129651  129645      66
  129651  129648      67  129660  129657      66  129663  129657      66  129663
  129660      67  129672  129669      66  129675  129669      66  129675  129672
      67  129684  129681      66  129687  129681      66  129687  129684      67
  129696  129693      66  129699  129693      66  129699  129696      67  129708
  129705      66  129711  129705      66  129711  129708      67  129720  129717
      66  129723  129717      66  129723  129720      67  129732  129729      66
  129735  129729      66  129735  129732      67  129744  129741      66  129747
  129741      66  129747  129744      67  129756  129753      66  129759  129753
      66  129759  129756      67  129768  129765      66  129771  129765      66
  129771  129768      67  129780  129777      66  129783  129777      66  129783
  129780      67  129792  129789      66  129795  129789      66  129795  129792
      67  129804  129801      66  129807  129801      66  129807  129804      67
  129816  129813      66  129819  129813      66  129819  129816      67  129828
  129825      66  129831  129825      66  129831  129828      67  129840  129837
      66  129843  129837      66  129843  129840      67  129852  129849      66
  129855  129849      66  129855  129852      67  129864  129861      66  129867
  129861      66  129867  129864      67  129876  129873      66  129879  129873
      66  129879  129876      67  129888  129885      66  129891  129885      66
  129891  129888      67  129900  129897      66  129903  129897      66  129903
  129900      67  129912  129909      66  129915  129909      66  129915  129912
      67  129924  129921      66  129927  129921      66  129927  129924      67
  129936  129933      66  129939  129933      66  129939  129936      67  129948
  129945      66  129951  129945      66  129951  129948      67  129960  129957
      66  129963  129957      66  129963  129960      67  129972  129969      66
  129975  129969      66  129975  129972      67  129984  129981      66  129987
  129981      66  129987  129984      67  129996  129993      66  129999  129993
      66  129999  129996      67  130008  130005      66  130011  130005      66
  130011  130008      67  130020  130017      66  130023  130017      66  130023
  130020      67  130032  130029      66  130035  130029      66  130035  130032
      67  130044  130041      66  130047  130041      66  130047  130044      67
  130056  130053      66  130059  130053      66  130059  130056      67  130068
  130065      66  130071  130065      66  130071  130068      67  130080  130077
      66  130083  130077      66  130083  130080      67  130092  130089      66
  130095  130089      66  130095  130092      67  130104  130101      66  130107
  130101      66  130107  130104      67  130116  130113      66  130119  130113
      66  130119  130116      67  130128  130125      66  130131  130125      66
  130131  130128      67  130140  130137      66  130143  130137      66  130143
  130140      67  130152  130149      66  130155  130149      66  130155  130152
      67  130164  130161      66  130167  130161      66  130167  130164      67
  130176  130173      66  130179  130173      66  130179  130176      67  130188
  130185      66  130191  130185      66  130191  130188      67  130200  130197
      66  130203  130197      66  130203  130200      67  130212  130209      66
  130215  130209      66  130215  130212      67  130224  130221      66  130227
  130221      66  130227  130224      67  130236  130233      66  130239  130233
      66  130239  130236      67  130248  130245      66  130251  130245      66
  130251  130248      67  130260  130257      66  130263  130257      66  130263
  130260      67  130272  130269      66  130275  130269      66  130275  130272
      67  130284  130281      66  130287  130281      66  130287  130284      67
  130296  130293      66  130299  130293      66  130299  130296      67  130308
  130305      66  130311  130305      66  130311  130308      67  130320  130317
      66  130323  130317      66  130323  130320      67  130332  130329      66
  130335  130329      66  130335  130332      67  130344  130341      66  130347
  130341      66  130347  130344      67  130356  130353      66  130359  130353
      66  130359  130356      67  130368  130365      66  130371  130365      66
  130371  130368      67  130380  130377      66  130383  130377      66  130383
  130380      67  130392  130389      66  130395  130389      66  130395  130392
      67  130404  130401      66  130407  130401      66  130407  130404      67
  130416  130413      66  130419  130413      66  130419  130416      67  130428
  130425      66  130431  130425      66  130431  130428      67  130440  130437
      66  130443  130437      66  130443  130440      67  130452  130449      66
  130455  130449      66  130455  130452      67  130464  130461      66  130467
  130461      66  130467  130464      67  130476  130473      66  130479  130473
      66  130479  130476      67  130488  130485      66  130491  130485      66
  130491  130488      67  130500  130497      66  130503  130497      66  130503
  130500      67  130512  130509      66  130515  130509      66  130515  130512
      67  130524  130521      66  130527  130521      66  130527  130524      67
  130536  130533      66  130539  130533      66  130539  130536      67  130548
  130545      66  130551  130545      66  130551  130548      67  130560  130557
      66  130563  130557      66  130563  130560      67  130572  130569      66
  130575  130569      66  130575  130572      67  130584  130581      66  130587
  130581      66  130587  130584      67  130596  130593      66  130599  130593
      66  130599  130596      67  130608  130605      66  130611  130605      66
  130611  130608      67  130620  130617      66  130623  130617      66  130623
  130620      67  130632  130629      66  130635  130629      66  130635  130632
      67  130644  130641      66  130647  130641      66  130647  130644      67
  130656  130653      66  130659  130653      66  130659  130656      67  130668
  130665      66  130671  130665      66  130671  130668      67  130680  130677
      66  130683  130677      66  130683  130680      67  130692  130689      66
  130695  130689      66  130695  130692      67  130704  130701      66  130707
  130701      66  130707  130704      67  130716  130713      66  130719  130713
      66  130719  130716      67  130728  130725      66  130731  130725      66
  130731  130728      67  130740  130737      66  130743  130737      66  130743
  130740      67  130752  130749      66  130755  130749      66  130755  130752
      67  130764  130761      66  130767  130761      66  130767  130764      67
  130776  130773      66  130779  130773      66  130779  130776      67  130788
  130785      66  130791  130785      66  130791  130788      67  130800  130797
      66  130803  130797      66  130803  130800      67  130812  130809      66
  130815  130809      66  130815  130812      67  130824  130821      66  130827
  130821      66  130827  130824      67  130836  130833      66  130839  130833
      66  130839  130836      67  130848  130845      66  130851  130845      66
  130851  130848      67  130860  130857      66  130863  130857      66  130863
  130860      67  130872  130869      66  130875  130869      66  130875  130872
      67  130884  130881      66  130887  130881      66  130887  130884      67
  130896  130893      66  130899  130893      66  130899  130896      67  130908
  130905      66  130911  130905      66  130911  130908      67  130920  130917
      66  130923  130917      66  130923  130920      67  130932  130929      66
  130935  130929      66  130935  130932      67  130944  130941      66  130947
  130941      66  130947  130944      67  130956  130953      66  130959  130953
      66  130959  130956      67  130968  130965      66  130971  130965      66
  130971  130968      67  130980  130977      66  130983  130977      66  130983
  130980      67  130992  130989      66  130995  130989      66  130995  130992
      67  131004  131001      66  131007  131001      66  131007  131004      67
  131016  131013      66  131019  131013      66  131019  131016      67  131028
  131025      66  131031  131025      66  131031  131028      67  131040  131037
      66  131043  131037      66  131043  131040      67  131052  131049      66
  131055  131049      66  131055  131052      67  131064  131061      66  131067
  131061      66  131067  131064      67  131076  131073      66  131079  131073
      66  131079  131076      67  131088  131085      66  131091  131085      66
  131091  131088      67  131100  131097      66  131103  131097      66  131103
  131100      67  131112  131109      66  131115  131109      66  131115  131112
      67  131124  131121      66  131127  131121      66  131127  131124      67
  131136  131133      66  131139  131133      66  131139  131136      67  131148
  131145      66  131151  131145      66  131151  131148      67  131160  131157
      66  131163  131157      66  131163  131160      67  131172  131169      66
  131175  131169      66  131175  131172      67  131184  131181      66  131187
  131181      66  131187  131184      67  131196  131193      66  131199  131193
      66  131199  131196      67  131208  131205      66  131211  131205      66
  131211  131208      67  131220  131217      66  131223  131217      66  131223
  131220      67  131232  131229      66  131235  131229      66  131235  131232
      67  131244  131241      66  131247  131241      66  131247  131244      67
  131256  131253      66  131259  131253      66  131259  131256      67  131268
  131265      66  131271  131265      66  131271  131268      67  131280  131277
      66  131283  131277      66  131283  131280      67  131292  131289      66
  131295  131289      66  131295  131292      67  131304  131301      66  131307
  131301      66  131307  131304      67  131316  131313      66  131319  131313
      66  131319  131316      67  131328  131325      66  131331  131325      66
  131331  131328      67  131340  131337      66  131343  131337      66  131343
  131340      67  131352  131349      66  131355  131349      66  131355  131352
      67  131364  131361      66  131367  131361      66  131367  131364      67
  131376  131373      66  131379  131373      66  131379  131376      67  131388
  131385      66  131391  131385      66  131391  131388      67  131400  131397
      66  131403  131397      66  131403  131400      67  131412  131409      66
  131415  131409      66  131415  131412      67  131424  131421      66  131427
  131421      66  131427  131424      67  131436  131433      66  131439  131433
      66  131439  131436      67  131448  131445      66  131451  131445      66
  131451  131448      67  131460  131457      66  131463  131457      66  131463
  131460      67  131472  131469      66  131475  131469      66  131475  131472
      67  131484  131481      66  131487  131481      66  131487  131484      67
  131496  131493      66  131499  131493      66  131499  131496      67  131508
  131505      66  131511  131505      66  131511  131508      67  131520  131517
      66  131523  131517      66  131523  131520      67  131532  131529      66
  131535  131529      66  131535  131532      67  131544  131541      66  131547
  131541      66  131547  131544      67  131556  131553      66  131559  131553
      66  131559  131556      67  131568  131565      66  131571  131565      66
  131571  131568      67  131580  131577      66  131583  131577      66  131583
  131580      67  131592  131589      66  131595  131589      66  131595  131592
      67  131604  131601      66  131607  131601      66  131607  131604      67
  131616  131613      66  131619  131613      66  131619  131616      67  131628
  131625      66  131631  131625      66  131631  131628      67  131640  131637
      66  131643  131637      66  131643  131640      67  131652  131649      66
  131655  131649      66  131655  131652      67  131664  131661      66  131667
  131661      66  131667  131664      67  131676  131673      66  131679  131673
      66  131679  131676      67  131688  131685      66  131691  131685      66
  131691  131688      67  131700  131697      66  131703  131697      66  131703
  131700      67  131712  131709      66  131715  131709      66  131715  131712
      67  131724  131721      66  131727  131721      66  131727  131724      67
  131736  131733      66  131739  131733      66  131739  131736      67  131748
  131745      66  131751  131745      66  131751  131748      67  131760  131757
      66  131763  131757      66  131763  131760      67  131772  131769      66
  131775  131769      66  131775  131772      67  131784  131781      66  131787
  131781      66  131787  131784      67  131796  131793      66  131799  131793
      66  131799  131796      67  131808  131805      66  131811  131805      66
  131811  131808      67  131820  131817      66  131823  131817      66  131823
  131820      67  131832  131829      66  131835  131829      66  131835  131832
      67  131844  131841      66  131847  131841      66  131847  131844      67
  131856  131853      66  131859  131853      66  131859  131856      67  131868
  131865      66  131871  131865      66  131871  131868      67  131880  131877
      66  131883  131877      66  131883  131880      67  131892  131889      66
  131895  131889      66  131895  131892      67  131904  131901      66  131907
  131901      66  131907  131904      67  131916  131913      66  131919  131913
      66  131919  131916      67  131928  131925      66  131931  131925      66
  131931  131928      67  131940  131937      66  131943  131937      66  131943
  131940      67  131952  131949      66  131955  131949      66  131955  131952
      67  131964  131961      66  131967  131961      66  131967  131964      67
  131976  131973      66  131979  131973      66  131979  131976      67  131988
  131985      66  131991  131985      66  131991  131988      67  132000  131997
      66  132003  131997      66  132003  132000      67  132012  132009      66
  132015  132009      66  132015  132012      67  132024  132021      66  132027
  132021      66  132027  132024      67  132036  132033      66  132039  132033
      66  132039  132036      67  132048  132045      66  132051  132045      66
  132051  132048      67  132060  132057      66  132063  132057      66  132063
  132060      67  132072  132069      66  132075  132069      66  132075  132072
      67  132084  132081      66  132087  132081      66  132087  132084      67
  132096  132093      66  132099  132093      66  132099  132096      67  132108
  132105      66  132111  132105      66  132111  132108      67  132120  132117
      66  132123  132117      66  132123  132120      67  132132  132129      66
  132135  132129      66  132135  132132      67  132144  132141      66  132147
  132141      66  132147  132144      67  132156  132153      66  132159  132153
      66  132159  132156      67  132168  132165      66  132171  132165      66
  132171  132168      67  132180  132177      66  132183  132177      66  132183
  132180      67  132192  132189      66  132195  132189      66  132195  132192
      67  132204  132201      66  132207  132201      66  132207  132204      67
  132216  132213      66  132219  132213      66  132219  132216      67  132228
  132225      66  132231  132225      66  132231  132228      67  132240  132237
      66  132243  132237      66  132243  132240      67  132252  132249      66
  132255  132249      66  132255  132252      67  132264  132261      66  132267
  132261      66  132267  132264      67  132276  132273      66  132279  132273
      66  132279  132276      67  132288  132285      66  132291  132285      66
  132291  132288      67  132300  132297      66  132303  132297      66  132303
  132300      67  132312  132309      66  132315  132309      66  132315  132312
      67  132324  132321      66  132327  132321      66  132327  132324      67
  132336  132333      66  132339  132333      66  132339  132336      67  132348
  132345      66  132351  132345      66  132351  132348      67  132360  132357
      66  132363  132357      66  132363  132360      67  132372  132369      66
  132375  132369      66  132375  132372      67  132384  132381      66  132387
  132381      66  132387  132384      67  132396  132393      66  132399  132393
      66  132399  132396      67  132408  132405      66  132411  132405      66
  132411  132408      67  132420  132417      66  132423  132417      66  132423
  132420      67  132432  132429      66  132435  132429      66  132435  132432
      67  132444  132441      66  132447  132441      66  132447  132444      67
  132456  132453      66  132459  132453      66  132459  132456      67  132468
  132465      66  132471  132465      66  132471  132468      67  132480  132477
      66  132483  132477      66  132483  132480      67  132492  132489      66
  132495  132489      66  132495  132492      67  132504  132501      66  132507
  132501      66  132507  132504      67  132516  132513      66  132519  132513
      66  132519  132516      67  132528  132525      66  132531  132525      66
  132531  132528      67  132540  132537      66  132543  132537      66  132543
  132540      67  132552  132549      66  132555  132549      66  132555  132552
      67  132564  132561      66  132567  132561      66  132567  132564      67
  132576  132573      66  132579  132573      66  132579  132576      67  132588
  132585      66  132591  132585      66  132591  132588      67  132600  132597
      66  132603  132597      66  132603  132600      67  132612  132609      66
  132615  132609      66  132615  132612      67  132624  132621      66  132627
  132621      66  132627  132624      67  132636  132633      66  132639  132633
      66  132639  132636      67  132648  132645      66  132651  132645      66
  132651  132648      67  132660  132657      66  132663  132657      66  132663
  132660      67  132672  132669      66  132675  132669      66  132675  132672
      67  132684  132681      66  132687  132681      66  132687  132684      67
  132696  132693      66  132699  132693      66  132699  132696      67  132708
  132705      66  132711  132705      66  132711  132708      67  132720  132717
      66  132723  132717      66  132723  132720      67  132732  132729      66
  132735  132729      66  132735  132732      67  132744  132741      66  132747
  132741      66  132747  132744      67  132756  132753      66  132759  132753
      66  132759  132756      67  132768  132765      66  132771  132765      66
  132771  132768      67  132780  132777      66  132783  132777      66  132783
  132780      67  132792  132789      66  132795  132789      66  132795  132792
      67  132804  132801      66  132807  132801      66  132807  132804      67
  132816  132813      66  132819  132813      66  132819  132816      67  132828
  132825      66  132831  132825      66  132831  132828      67  132840  132837
      66  132843  132837      66  132843  132840      67  132852  132849      66
  132855  132849      66  132855  132852      67  132864  132861      66  132867
  132861      66  132867  132864      67  132876  132873      66  132879  132873
      66  132879  132876      67  132888  132885      66  132891  132885      66
  132891  132888      67  132900  132897      66  132903  132897      66  132903
  132900      67  132912  132909      66  132915  132909      66  132915  132912
      67  132924  132921      66  132927  132921      66  132927  132924      67
  132936  132933      66  132939  132933      66  132939  132936      67  132948
  132945      66  132951  132945      66  132951  132948      67  132960  132957
      66  132963  132957      66  132963  132960      67  132972  132969      66
  132975  132969      66  132975  132972      67  132984  132981      66  132987
  132981      66  132987  132984      67  132996  132993      66  132999  132993
      66  132999  132996      67  133008  133005      66  133011  133005      66
  133011  133008      67  133020  133017      66  133023  133017      66  133023
  133020      67  133032  133029      66  133035  133029      66  133035  133032
      67  133044  133041      66  133047  133041      66  133047  133044      67
  133056  133053      66  133059  133053      66  133059  133056      67  133068
  133065      66  133071  133065      66  133071  133068      67  133080  133077
      66  133083  133077      66  133083  133080      67  133092  133089      66
  133095  133089      66  133095  133092      67  133104  133101      66  133107
  133101      66  133107  133104      67  133116  133113      66  133119  133113
      66  133119  133116      67  133128  133125      66  133131  133125      66
  133131  133128      67  133140  133137      66  133143  133137      66  133143
  133140      67  133152  133149      66  133155  133149      66  133155  133152
      67  133164  133161      66  133167  133161      66  133167  133164      67
  133176  133173      66  133179  133173      66  133179  133176      67  133188
  133185      66  133191  133185      66  133191  133188      67  133200  133197
      66  133203  133197      66  133203  133200      67  133212  133209      66
  133215  133209      66  133215  133212      67  133224  133221      66  133227
  133221      66  133227  133224      67  133236  133233      66  133239  133233
      66  133239  133236      67  133248  133245      66  133251  133245      66
  133251  133248      67  133260  133257      66  133263  133257      66  133263
  133260      67  133272  133269      66  133275  133269      66  133275  133272
      67  133284  133281      66  133287  133281      66  133287  133284      67
  133296  133293      66  133299  133293      66  133299  133296      67  133308
  133305      66  133311  133305      66  133311  133308      67  133320  133317
      66  133323  133317      66  133323  133320      67  133332  133329      66
  133335  133329      66  133335  133332      67  133344  133341      66  133347
  133341      66  133347  133344      67  133356  133353      66  133359  133353
      66  133359  133356      67  133368  133365      66  133371  133365      66
  133371  133368      67  133380  133377      66  133383  133377      66  133383
  133380      67  133392  133389      66  133395  133389      66  133395  133392
      67  133404  133401      66  133407  133401      66  133407  133404      67
  133416  133413      66  133419  133413      66  133419  133416      67  133428
  133425      66  133431  133425      66  133431  133428      67  133440  133437
      66  133443  133437      66  133443  133440      67  133452  133449      66
  133455  133449      66  133455  133452      67  133464  133461      66  133467
  133461      66  133467  133464      67  133476  133473      66  133479  133473
      66  133479  133476      67  133488  133485      66  133491  133485      66
  133491  133488      67  133500  133497      66  133503  133497      66  133503
  133500      67  133512  133509      66  133515  133509      66  133515  133512
      67  133524  133521      66  133527  133521      66  133527  133524      67
  133536  133533      66  133539  133533      66  133539  133536      67  133548
  133545      66  133551  133545      66  133551  133548      67  133560  133557
      66  133563  133557      66  133563  133560      67  133572  133569      66
  133575  133569      66  133575  133572      67  133584  133581      66  133587
  133581      66  133587  133584      67  133596  133593      66  133599  133593
      66  133599  133596      67  133608  133605      66  133611  133605      66
  133611  133608      67  133620  133617      66  133623  133617      66  133623
  133620      67  133632  133629      66  133635  133629      66  133635  133632
      67  133644  133641      66  133647  133641      66  133647  133644      67
  133656  133653      66  133659  133653      66  133659  133656      67  133668
  133665      66  133671  133665      66  133671  133668      67  133680  133677
      66  133683  133677      66  133683  133680      67  133692  133689      66
  133695  133689      66  133695  133692      67  133704  133701      66  133707
  133701      66  133707  133704      67  133716  133713      66  133719  133713
      66  133719  133716      67  133728  133725      66  133731  133725      66
  133731  133728      67  133740  133737      66  133743  133737      66  133743
  133740      67  133752  133749      66  133755  133749      66  133755  133752
      67  133764  133761      66  133767  133761      66  133767  133764      67
  133776  133773      66  133779  133773      66  133779  133776      67  133788
  133785      66  133791  133785      66  133791  133788      67  133800  133797
      66  133803  133797      66  133803  133800      67  133812  133809      66
  133815  133809      66  133815  133812      67  133824  133821      66  133827
  133821      66  133827  133824      67  133836  133833      66  133839  133833
      66  133839  133836      67  133848  133845      66  133851  133845      66
  133851  133848      67  133860  133857      66  133863  133857      66  133863
  133860      67  133872  133869      66  133875  133869      66  133875  133872
      67  133884  133881      66  133887  133881      66  133887  133884      67
  133896  133893      66  133899  133893      66  133899  133896      67  133908
  133905      66  133911  133905      66  133911  133908      67  133920  133917
      66  133923  133917      66  133923  133920      67  133932  133929      66
  133935  133929      66  133935  133932      67  133944  133941      66  133947
  133941      66  133947  133944      67  133956  133953      66  133959  133953
      66  133959  133956      67  133968  133965      66  133971  133965      66
  133971  133968      67  133980  133977      66  133983  133977      66  133983
  133980      67  133992  133989      66  133995  133989      66  133995  133992
      67  134004  134001      66  134007  134001      66  134007  134004      67
  134016  134013      66  134019  134013      66  134019  134016      67  134028
  134025      66  134031  134025      66  134031  134028      67  134040  134037
      66  134043  134037      66  134043  134040      67  134052  134049      66
  134055  134049      66  134055  134052      67  134064  134061      66  134067
  134061      66  134067  134064      67  134076  134073      66  134079  134073
      66  134079  134076      67  134088  134085      66  134091  134085      66
  134091  134088      67  134100  134097      66  134103  134097      66  134103
  134100      67  134112  134109      66  134115  134109      66  134115  134112
      67  134124  134121      66  134127  134121      66  134127  134124      67
  134136  134133      66  134139  134133      66  134139  134136      67  134148
  134145      66  134151  134145      66  134151  134148      67  134160  134157
      66  134163  134157      66  134163  134160      67  134172  134169      66
  134175  134169      66  134175  134172      67  134184  134181      66  134187
  134181      66  134187  134184      67  134196  134193      66  134199  134193
      66  134199  134196      67  134208  134205      66  134211  134205      66
  134211  134208      67  134220  134217      66  134223  134217      66  134223
  134220      67  134232  134229      66  134235  134229      66  134235  134232
      67  134244  134241      66  134247  134241      66  134247  134244      67
  134256  134253      66  134259  134253      66  134259  134256      67  134268
  134265      66  134271  134265      66  134271  134268      67  134280  134277
      66  134283  134277      66  134283  134280      67  134292  134289      66
  134295  134289      66  134295  134292      67  134304  134301      66  134307
  134301      66  134307  134304      67  134316  134313      66  134319  134313
      66  134319  134316      67  134328  134325      66  134331  134325      66
  134331  134328      67  134340  134337      66  134343  134337      66  134343
  134340      67  134352  134349      66  134355  134349      66  134355  134352
      67  134364  134361      66  134367  134361      66  134367  134364      67
  134376  134373      66  134379  134373      66  134379  134376      67  134388
  134385      66  134391  134385      66  134391  134388      67  134400  134397
      66  134403  134397      66  134403  134400      67  134412  134409      66
  134415  134409      66  134415  134412      67  134424  134421      66  134427
  134421      66  134427  134424      67  134436  134433      66  134439  134433
      66  134439  134436      67  134448  134445      66  134451  134445      66
  134451  134448      67  134460  134457      66  134463  134457      66  134463
  134460      67  134472  134469      66  134475  134469      66  134475  134472
      67  134484  134481      66  134487  134481      66  134487  134484      67
  134496  134493      66  134499  134493      66  134499  134496      67  134508
  134505      66  134511  134505      66  134511  134508      67  134520  134517
      66  134523  134517      66  134523  134520      67  134532  134529      66
  134535  134529      66  134535  134532      67  134544  134541      66  134547
  134541      66  134547  134544      67  134556  134553      66  134559  134553
      66  134559  134556      67  134568  134565      66  134571  134565      66
  134571  134568      67  134580  134577      66  134583  134577      66  134583
  134580      67  134592  134589      66  134595  134589      66  134595  134592
      67  134604  134601      66  134607  134601      66  134607  134604      67
  134616  134613      66  134619  134613      66  134619  134616      67  134628
  134625      66  134631  134625      66  134631  134628      67  134640  134637
      66  134643  134637      66  134643  134640      67  134652  134649      66
  134655  134649      66  134655  134652      67  134664  134661      66  134667
  134661      66  134667  134664      67  134676  134673      66  134679  134673
      66  134679  134676      67  134688  134685      66  134691  134685      66
  134691  134688      67  134700  134697      66  134703  134697      66  134703
  134700      67  134712  134709      66  134715  134709      66  134715  134712
      67  134724  134721      66  134727  134721      66  134727  134724      67
  134736  134733      66  134739  134733      66  134739  134736      67  134748
  134745      66  134751  134745      66  134751  134748      67  134760  134757
      66  134763  134757      66  134763  134760      67  134772  134769      66
  134775  134769      66  134775  134772      67  134784  134781      66  134787
  134781      66  134787  134784      67  134796  134793      66  134799  134793
      66  134799  134796      67  134808  134805      66  134811  134805      66
  134811  134808      67  134820  134817      66  134823  134817      66  134823
  134820      67  134832  134829      66  134835  134829      66  134835  134832
      67  134844  134841      66  134847  134841      66  134847  134844      67
  134856  134853      66  134859  134853      66  134859  134856      67  134868
  134865      66  134871  134865      66  134871  134868      67  134880  134877
      66  134883  134877      66  134883  134880      67  134892  134889      66
  134895  134889      66  134895  134892      67  134904  134901      66  134907
  134901      66  134907  134904      67  134916  134913      66  134919  134913
      66  134919  134916      67  134928  134925      66  134931  134925      66
  134931  134928      67  134940  134937      66  134943  134937      66  134943
  134940      67  134952  134949      66  134955  134949      66  134955  134952
      67  134964  134961      66  134967  134961      66  134967  134964      67
  134976  134973      66  134979  134973      66  134979  134976      67  134988
  134985      66  134991  134985      66  134991  134988      67  135000  134997
      66  135003  134997      66  135003  135000      67  135012  135009      66
  135015  135009      66  135015  135012      67  135024  135021      66  135027
  135021      66  135027  135024      67  135036  135033      66  135039  135033
      66  135039  135036      67  135048  135045      66  135051  135045      66
  135051  135048      67  135060  135057      66  135063  135057      66  135063
  135060      67  135072  135069      66  135075  135069      66  135075  135072
      67  135084  135081      66  135087  135081      66  135087  135084      67
  135096  135093      66  135099  135093      66  135099  135096      67  135108
  135105      66  135111  135105      66  135111  135108      67  135120  135117
      66  135123  135117      66  135123  135120      67  135132  135129      66
  135135  135129      66  135135  135132      67  135144  135141      66  135147
  135141      66  135147  135144      67  135156  135153      66  135159  135153
      66  135159  135156      67  135168  135165      66  135171  135165      66
  135171  135168      67  135180  135177      66  135183  135177      66  135183
  135180      67  135192  135189      66  135195  135189      66  135195  135192
      67  135204  135201      66  135207  135201      66  135207  135204      67
  135216  135213      66  135219  135213      66  135219  135216      67  135228
  135225      66  135231  135225      66  135231  135228      67  135240  135237
      66  135243  135237      66  135243  135240      67  135252  135249      66
  135255  135249      66  135255  135252      67  135264  135261      66  135267
  135261      66  135267  135264      67  135276  135273      66  135279  135273
      66  135279  135276      67  135288  135285      66  135291  135285      66
  135291  135288      67  135300  135297      66  135303  135297      66  135303
  135300      67  135312  135309      66  135315  135309      66  135315  135312
      67  135324  135321      66  135327  135321      66  135327  135324      67
  135336  135333      66  135339  135333      66  135339  135336      67  135348
  135345      66  135351  135345      66  135351  135348      67  135360  135357
      66  135363  135357      66  135363  135360      67  135372  135369      66
  135375  135369      66  135375  135372      67  135384  135381      66  135387
  135381      66  135387  135384      67  135396  135393      66  135399  135393
      66  135399  135396      67  135408  135405      66  135411  135405      66
  135411  135408      67  135420  135417      66  135423  135417      66  135423
  135420      67  135432  135429      66  135435  135429      66  135435  135432
      67  135444  135441      66  135447  135441      66  135447  135444      67
  135456  135453      66  135459  135453      66  135459  135456      67  135468
  135465      66  135471  135465      66  135471  135468      67  135480  135477
      66  135483  135477      66  135483  135480      67  135492  135489      66
  135495  135489      66  135495  135492      67  135504  135501      66  135507
  135501      66  135507  135504      67  135516  135513      66  135519  135513
      66  135519  135516      67  135528  135525      66  135531  135525      66
  135531  135528      67  135540  135537      66  135543  135537      66  135543
  135540      67  135552  135549      66  135555  135549      66  135555  135552
      67  135564  135561      66  135567  135561      66  135567  135564      67
  135576  135573      66  135579  135573      66  135579  135576      67  135588
  135585      66  135591  135585      66  135591  135588      67  135600  135597
      66  135603  135597      66  135603  135600      67  135612  135609      66
  135615  135609      66  135615  135612      67  135624  135621      66  135627
  135621      66  135627  135624      67  135636  135633      66  135639  135633
      66  135639  135636      67  135648  135645      66  135651  135645      66
  135651  135648      67  135660  135657      66  135663  135657      66  135663
  135660      67  135672  135669      66  135675  135669      66  135675  135672
      67  135684  135681      66  135687  135681      66  135687  135684      67
  135696  135693      66  135699  135693      66  135699  135696      67  135708
  135705      66  135711  135705      66  135711  135708      67  135720  135717
      66  135723  135717      66  135723  135720      67  135732  135729      66
  135735  135729      66  135735  135732      67  135744  135741      66  135747
  135741      66  135747  135744      67  135756  135753      66  135759  135753
      66  135759  135756      67  135768  135765      66  135771  135765      66
  135771  135768      67  135780  135777      66  135783  135777      66  135783
  135780      67  135792  135789      66  135795  135789      66  135795  135792
      67  135804  135801      66  135807  135801      66  135807  135804      67
  135816  135813      66  135819  135813      66  135819  135816      67  135828
  135825      66  135831  135825      66  135831  135828      67  135840  135837
      66  135843  135837      66  135843  135840      67  135852  135849      66
  135855  135849      66  135855  135852      67  135864  135861      66  135867
  135861      66  135867  135864      67  135876  135873      66  135879  135873
      66  135879  135876      67  135888  135885      66  135891  135885      66
  135891  135888      67  135900  135897      66  135903  135897      66  135903
  135900      67  135912  135909      66  135915  135909      66  135915  135912
      67  135924  135921      66  135927  135921      66  135927  135924      67
  135936  135933      66  135939  135933      66  135939  135936      67  135948
  135945      66  135951  135945      66  135951  135948      67  135960  135957
      66  135963  135957      66  135963  135960      67  135972  135969      66
  135975  135969      66  135975  135972      67  135984  135981      66  135987
  135981      66  135987  135984      67  135996  135993      66  135999  135993
      66  135999  135996      67  136008  136005      66  136011  136005      66
  136011  136008      67  136020  136017      66  136023  136017      66  136023
  136020      67  136032  136029      66  136035  136029      66  136035  136032
      67  136044  136041      66  136047  136041      66  136047  136044      67
  136056  136053      66  136059  136053      66  136059  136056      67  136068
  136065      66  136071  136065      66  136071  136068      67  136080  136077
      66  136083  136077      66  136083  136080      67  136092  136089      66
  136095  136089      66  136095  136092      67  136104  136101      66  136107
  136101      66  136107  136104      67  136116  136113      66  136119  136113
      66  136119  136116      67  136128  136125      66  136131  136125      66
  136131  136128      67  136140  136137      66  136143  136137      66  136143
  136140      67  136152  136149      66  136155  136149      66  136155  136152
      67  136164  136161      66  136167  136161      66  136167  136164      67
  136176  136173      66  136179  136173      66  136179  136176      67  136188
  136185      66  136191  136185      66  136191  136188      67  136200  136197
      66  136203  136197      66  136203  136200      67  136212  136209      66
  136215  136209      66  136215  136212      67  136224  136221      66  136227
  136221      66  136227  136224      67  136236  136233      66  136239  136233
      66  136239  136236      67  136248  136245      66  136251  136245      66
  136251  136248      67  136260  136257      66  136263  136257      66  136263
  136260      67  136272  136269      66  136275  136269      66  136275  136272
      67  136284  136281      66  136287  136281      66  136287  136284      67
  136296  136293      66  136299  136293      66  136299  136296      67  136308
  136305      66  136311  136305      66  136311  136308      67  136320  136317
      66  136323  136317      66  136323  136320      67  136332  136329      66
  136335  136329      66  136335  136332      67  136344  136341      66  136347
  136341      66  136347  136344      67  136356  136353      66  136359  136353
      66  136359  136356      67  136368  136365      66  136371  136365      66
  136371  136368      67  136380  136377      66  136383  136377      66  136383
  136380      67  136392  136389      66  136395  136389      66  136395  136392
      67  136404  136401      66  136407  136401      66  136407  136404      67
  136416  136413      66  136419  136413      66  136419  136416      67  136428
  136425      66  136431  136425      66  136431  136428      67  136440  136437
      66  136443  136437      66  136443  136440      67  136452  136449      66
  136455  136449      66  136455  136452      67  136464  136461      66  136467
  136461      66  136467  136464      67  136476  136473      66  136479  136473
      66  136479  136476      67  136488  136485      66  136491  136485      66
  136491  136488      67  136500  136497      66  136503  136497      66  136503
  136500      67  136512  136509      66  136515  136509      66  136515  136512
      67  136524  136521      66  136527  136521      66  136527  136524      67
  136536  136533      66  136539  136533      66  136539  136536      67  136548
  136545      66  136551  136545      66  136551  136548      67  136560  136557
      66  136563  136557      66  136563  136560      67  136572  136569      66
  136575  136569      66  136575  136572      67  136584  136581      66  136587
  136581      66  136587  136584      67  136596  136593      66  136599  136593
      66  136599  136596      67  136608  136605      66  136611  136605      66
  136611  136608      67  136620  136617      66  136623  136617      66  136623
  136620      67  136632  136629      66  136635  136629      66  136635  136632
      67  136644  136641      66  136647  136641      66  136647  136644      67
  136656  136653      66  136659  136653      66  136659  136656      67  136668
  136665      66  136671  136665      66  136671  136668      67  136680  136677
      66  136683  136677      66  136683  136680      67  136692  136689      66
  136695  136689      66  136695  136692      67  136704  136701      66  136707
  136701      66  136707  136704      67  136716  136713      66  136719  136713
      66  136719  136716      67  136728  136725      66  136731  136725      66
  136731  136728      67  136740  136737      66  136743  136737      66  136743
  136740      67  136752  136749      66  136755  136749      66  136755  136752
      67  136764  136761      66  136767  136761      66  136767  136764      67
  136776  136773      66  136779  136773      66  136779  136776      67  136788
  136785      66  136791  136785      66  136791  136788      67  136800  136797
      66  136803  136797      66  136803  136800      67  136812  136809      66
  136815  136809      66  136815  136812      67  136824  136821      66  136827
  136821      66  136827  136824      67  136836  136833      66  136839  136833
      66  136839  136836      67  136848  136845      66  136851  136845      66
  136851  136848      67  136860  136857      66  136863  136857      66  136863
  136860      67  136872  136869      66  136875  136869      66  136875  136872
      67  136884  136881      66  136887  136881      66  136887  136884      67
  136896  136893      66  136899  136893      66  136899  136896      67  136908
  136905      66  136911  136905      66  136911  136908      67  136920  136917
      66  136923  136917      66  136923  136920      67  136932  136929      66
  136935  136929      66  136935  136932      67  136944  136941      66  136947
  136941      66  136947  136944      67  136956  136953      66  136959  136953
      66  136959  136956      67  136968  136965      66  136971  136965      66
  136971  136968      67  136980  136977      66  136983  136977      66  136983
  136980      67  136992  136989      66  136995  136989      66  136995  136992
      67  137004  137001      66  137007  137001      66  137007  137004      67
  137016  137013      66  137019  137013      66  137019  137016      67  137028
  137025      66  137031  137025      66  137031  137028      67  137040  137037
      66  137043  137037      66  137043  137040      67  137052  137049      66
  137055  137049      66  137055  137052      67  137064  137061      66  137067
  137061      66  137067  137064      67  137076  137073      66  137079  137073
      66  137079  137076      67  137088  137085      66  137091  137085      66
  137091  137088      67  137100  137097      66  137103  137097      66  137103
  137100      67  137112  137109      66  137115  137109      66  137115  137112
      67  137124  137121      66  137127  137121      66  137127  137124      67
  137136  137133      66  137139  137133      66  137139  137136      67  137148
  137145      66  137151  137145      66  137151  137148      67  137160  137157
      66  137163  137157      66  137163  137160      67  137172  137169      66
  137175  137169      66  137175  137172      67  137184  137181      66  137187
  137181      66  137187  137184      67  137196  137193      66  137199  137193
      66  137199  137196      67  137208  137205      66  137211  137205      66
  137211  137208      67  137220  137217      66  137223  137217      66  137223
  137220      67  137232  137229      66  137235  137229      66  137235  137232
      67  137244  137241      66  137247  137241      66  137247  137244      67
  137256  137253      66  137259  137253      66  137259  137256      67  137268
  137265      66  137271  137265      66  137271  137268      67  137280  137277
      66  137283  137277      66  137283  137280      67  137292  137289      66
  137295  137289      66  137295  137292      67  137304  137301      66  137307
  137301      66  137307  137304      67  137316  137313      66  137319  137313
      66  137319  137316      67  137328  137325      66  137331  137325      66
  137331  137328      67  137340  137337      66  137343  137337      66  137343
  137340      67  137352  137349      66  137355  137349      66  137355  137352
      67  137364  137361      66  137367  137361      66  137367  137364      67
  137376  137373      66  137379  137373      66  137379  137376      67  137388
  137385      66  137391  137385      66  137391  137388      67  137400  137397
      66  137403  137397      66  137403  137400      67  137412  137409      66
  137415  137409      66  137415  137412      67  137424  137421      66  137427
  137421      66  137427  137424      67  137436  137433      66  137439  137433
      66  137439  137436      67  137448  137445      66  137451  137445      66
  137451  137448      67  137460  137457      66  137463  137457      66  137463
  137460      67  137472  137469      66  137475  137469      66  137475  137472
      67  137484  137481      66  137487  137481      66  137487  137484      67
  137496  137493      66  137499  137493      66  137499  137496      67  137508
  137505      66  137511  137505      66  137511  137508      67  137520  137517
      66  137523  137517      66  137523  137520      67  137532  137529      66
  137535  137529      66  137535  137532      67  137544  137541      66  137547
  137541      66  137547  137544      67  137556  137553      66  137559  137553
      66  137559  137556      67  137568  137565      66  137571  137565      66
  137571  137568      67  137580  137577      66  137583  137577      66  137583
  137580      67  137592  137589      66  137595  137589      66  137595  137592
      67  137604  137601      66  137607  137601      66  137607  137604      67
  137616  137613      66  137619  137613      66  137619  137616      67  137628
  137625      66  137631  137625      66  137631  137628      67  137640  137637
      66  137643  137637      66  137643  137640      67  137652  137649      66
  137655  137649      66  137655  137652      67  137664  137661      66  137667
  137661      66  137667  137664      67  137676  137673      66  137679  137673
      66  137679  137676      67  137688  137685      66  137691  137685      66
  137691  137688      67  137700  137697      66  137703  137697      66  137703
  137700      67  137712  137709      66  137715  137709      66  137715  137712
      67  137724  137721      66  137727  137721      66  137727  137724      67
  137736  137733      66  137739  137733      66  137739  137736      67  137748
  137745      66  137751  137745      66  137751  137748      67  137760  137757
      66  137763  137757      66  137763  137760      67  137772  137769      66
  137775  137769      66  137775  137772      67  137784  137781      66  137787
  137781      66  137787  137784      67  137796  137793      66  137799  137793
      66  137799  137796      67  137808  137805      66  137811  137805      66
  137811  137808      67  137820  137817      66  137823  137817      66  137823
  137820      67  137832  137829      66  137835  137829      66  137835  137832
      67  137844  137841      66  137847  137841      66  137847  137844      67
  137856  137853      66  137859  137853      66  137859  137856      67  137868
  137865      66  137871  137865      66  137871  137868      67  137880  137877
      66  137883  137877      66  137883  137880      67  137892  137889      66
  137895  137889      66  137895  137892      67  137904  137901      66  137907
  137901      66  137907  137904      67  137916  137913      66  137919  137913
      66  137919  137916      67  137928  137925      66  137931  137925      66
  137931  137928      67  137940  137937      66  137943  137937      66  137943
  137940      67  137952  137949      66  137955  137949      66  137955  137952
      67  137964  137961      66  137967  137961      66  137967  137964      67
  137976  137973      66  137979  137973      66  137979  137976      67  137988
  137985      66  137991  137985      66  137991  137988      67  138000  137997
      66  138003  137997      66  138003  138000      67  138012  138009      66
  138015  138009      66  138015  138012      67  138024  138021      66  138027
  138021      66  138027  138024      67  138036  138033      66  138039  138033
      66  138039  138036      67  138048  138045      66  138051  138045      66
  138051  138048      67  138060  138057      66  138063  138057      66  138063
  138060      67  138072  138069      66  138075  138069      66  138075  138072
      67  138084  138081      66  138087  138081      66  138087  138084      67
  138096  138093      66  138099  138093      66  138099  138096      67  138108
  138105      66  138111  138105      66  138111  138108      67  138120  138117
      66  138123  138117      66  138123  138120      67  138132  138129      66
  138135  138129      66  138135  138132      67  138144  138141      66  138147
  138141      66  138147  138144      67  138156  138153      66  138159  138153
      66  138159  138156      67  138168  138165      66  138171  138165      66
  138171  138168      67  138180  138177      66  138183  138177      66  138183
  138180      67  138192  138189      66  138195  138189      66  138195  138192
      67  138204  138201      66  138207  138201      66  138207  138204      67
  138216  138213      66  138219  138213      66  138219  138216      67  138228
  138225      66  138231  138225      66  138231  138228      67  138240  138237
      66  138243  138237      66  138243  138240      67  138252  138249      66
  138255  138249      66  138255  138252      67  138264  138261      66  138267
  138261      66  138267  138264      67  138276  138273      66  138279  138273
      66  138279  138276      67  138288  138285      66  138291  138285      66
  138291  138288      67  138300  138297      66  138303  138297      66  138303
  138300      67  138312  138309      66  138315  138309      66  138315  138312
      67  138324  138321      66  138327  138321      66  138327  138324      67
  138336  138333      66  138339  138333      66  138339  138336      67  138348
  138345      66  138351  138345      66  138351  138348      67  138360  138357
      66  138363  138357      66  138363  138360      67  138372  138369      66
  138375  138369      66  138375  138372      67  138384  138381      66  138387
  138381      66  138387  138384      67  138396  138393      66  138399  138393
      66  138399  138396      67  138408  138405      66  138411  138405      66
  138411  138408      67  138420  138417      66  138423  138417      66  138423
  138420      67  138432  138429      66  138435  138429      66  138435  138432
      67  138444  138441      66  138447  138441      66  138447  138444      67
  138456  138453      66  138459  138453      66  138459  138456      67  138468
  138465      66  138471  138465      66  138471  138468      67  138480  138477
      66  138483  138477      66  138483  138480      67  138492  138489      66
  138495  138489      66  138495  138492      67  138504  138501      66  138507
  138501      66  138507  138504      67  138516  138513      66  138519  138513
      66  138519  138516      67  138528  138525      66  138531  138525      66
  138531  138528      67  138540  138537      66  138543  138537      66  138543
  138540      67  138552  138549      66  138555  138549      66  138555  138552
      67  138564  138561      66  138567  138561      66  138567  138564      67
  138576  138573      66  138579  138573      66  138579  138576      67  138588
  138585      66  138591  138585      66  138591  138588      67  138600  138597
      66  138603  138597      66  138603  138600      67  138612  138609      66
  138615  138609      66  138615  138612      67  138624  138621      66  138627
  138621      66  138627  138624      67  138636  138633      66  138639  138633
      66  138639  138636      67  138648  138645      66  138651  138645      66
  138651  138648      67  138660  138657      66  138663  138657      66  138663
  138660      67  138672  138669      66  138675  138669      66  138675  138672
      67  138684  138681      66  138687  138681      66  138687  138684      67
  138696  138693      66  138699  138693      66  138699  138696      67  138708
  138705      66  138711  138705      66  138711  138708      67  138720  138717
      66  138723  138717      66  138723  138720      67  138732  138729      66
  138735  138729      66  138735  138732      67  138744  138741      66  138747
  138741      66  138747  138744      67  138756  138753      66  138759  138753
      66  138759  138756      67  138768  138765      66  138771  138765      66
  138771  138768      67  138780  138777      66  138783  138777      66  138783
  138780      67  138792  138789      66  138795  138789      66  138795  138792
      67  138804  138801      66  138807  138801      66  138807  138804      67
  138816  138813      66  138819  138813      66  138819  138816      67  138828
  138825      66  138831  138825      66  138831  138828      67  138840  138837
      66  138843  138837      66  138843  138840      67  138852  138849      66
  138855  138849      66  138855  138852      67  138864  138861      66  138867
  138861      66  138867  138864      67  138876  138873      66  138879  138873
      66  138879  138876      67  138888  138885      66  138891  138885      66
  138891  138888      67  138900  138897      66  138903  138897      66  138903
  138900      67  138912  138909      66  138915  138909      66  138915  138912
      67  138924  138921      66  138927  138921      66  138927  138924      67
  138936  138933      66  138939  138933      66  138939  138936      67  138948
  138945      66  138951  138945      66  138951  138948      67  138960  138957
      66  138963  138957      66  138963  138960      67  138972  138969      66
  138975  138969      66  138975  138972      67  138984  138981      66  138987
  138981      66  138987  138984      67  138996  138993      66  138999  138993
      66  138999  138996      67  139008  139005      66  139011  139005      66
  139011  139008      67  139020  139017      66  139023  139017      66  139023
  139020      67  139032  139029      66  139035  139029      66  139035  139032
      67  139044  139041      66  139047  139041      66  139047  139044      67
  139056  139053      66  139059  139053      66  139059  139056      67  139068
  139065      66  139071  139065      66  139071  139068      67  139080  139077
      66  139083  139077      66  139083  139080      67  139092  139089      66
  139095  139089      66  139095  139092      67  139104  139101      66  139107
  139101      66  139107  139104      67  139116  139113      66  139119  139113
      66  139119  139116      67  139128  139125      66  139131  139125      66
  139131  139128      67  139140  139137      66  139143  139137      66  139143
  139140      67  139152  139149      66  139155  139149      66  139155  139152
      67  139164  139161      66  139167  139161      66  139167  139164      67
  139176  139173      66  139179  139173      66  139179  139176      67  139188
  139185      66  139191  139185      66  139191  139188      67  139200  139197
      66  139203  139197      66  139203  139200      67  139212  139209      66
  139215  139209      66  139215  139212      67  139224  139221      66  139227
  139221      66  139227  139224      67  139236  139233      66  139239  139233
      66  139239  139236      67  139248  139245      66  139251  139245      66
  139251  139248      67  139260  139257      66  139263  139257      66  139263
  139260      67  139272  139269      66  139275  139269      66  139275  139272
      67  139284  139281      66  139287  139281      66  139287  139284      67
  139296  139293      66  139299  139293      66  139299  139296      67  139308
  139305      66  139311  139305      66  139311  139308      67  139320  139317
      66  139323  139317      66  139323  139320      67  139332  139329      66
  139335  139329      66  139335  139332      67  139344  139341      66  139347
  139341      66  139347  139344      67  139356  139353      66  139359  139353
      66  139359  139356      67  139368  139365      66  139371  139365      66
  139371  139368      67  139380  139377      66  139383  139377      66  139383
  139380      67  139392  139389      66  139395  139389      66  139395  139392
      67  139404  139401      66  139407  139401      66  139407  139404      67
  139416  139413      66  139419  139413      66  139419  139416      67  139428
  139425      66  139431  139425      66  139431  139428      67  139440  139437
      66  139443  139437      66  139443  139440      67  139452  139449      66
  139455  139449      66  139455  139452      67  139464  139461      66  139467
  139461      66  139467  139464      67  139476  139473      66  139479  139473
      66  139479  139476      67  139488  139485      66  139491  139485      66
  139491  139488      67  139500  139497      66  139503  139497      66  139503
  139500      67  139512  139509      66  139515  139509      66  139515  139512
      67  139524  139521      66  139527  139521      66  139527  139524      67
  139536  139533      66  139539  139533      66  139539  139536      67  139548
  139545      66  139551  139545      66  139551  139548      67  139560  139557
      66  139563  139557      66  139563  139560      67  139572  139569      66
  139575  139569      66  139575  139572      67  139584  139581      66  139587
  139581      66  139587  139584      67  139596  139593      66  139599  139593
      66  139599  139596      67  139608  139605      66  139611  139605      66
  139611  139608      67  139620  139617      66  139623  139617      66  139623
  139620      67  139632  139629      66  139635  139629      66  139635  139632
      67  139644  139641      66  139647  139641      66  139647  139644      67
  139656  139653      66  139659  139653      66  139659  139656      67  139668
  139665      66  139671  139665      66  139671  139668      67  139680  139677
      66  139683  139677      66  139683  139680      67  139692  139689      66
  139695  139689      66  139695  139692      67  139704  139701      66  139707
  139701      66  139707  139704      67  139716  139713      66  139719  139713
      66  139719  139716      67  139728  139725      66  139731  139725      66
  139731  139728      67  139740  139737      66  139743  139737      66  139743
  139740      67  139752  139749      66  139755  139749      66  139755  139752
      67  139764  139761      66  139767  139761      66  139767  139764      67
  139776  139773      66  139779  139773      66  139779  139776      67  139788
  139785      66  139791  139785      66  139791  139788      67  139800  139797
      66  139803  139797      66  139803  139800      67  139812  139809      66
  139815  139809      66  139815  139812      67  139824  139821      66  139827
  139821      66  139827  139824      67  139836  139833      66  139839  139833
      66  139839  139836      67  139848  139845      66  139851  139845      66
  139851  139848      67  139860  139857      66  139863  139857      66  139863
  139860      67  139872  139869      66  139875  139869      66  139875  139872
      67  139884  139881      66  139887  139881      66  139887  139884      67
  139896  139893      66  139899  139893      66  139899  139896      67  139908
  139905      66  139911  139905      66  139911  139908      67  139920  139917
      66  139923  139917      66  139923  139920      67  139932  139929      66
  139935  139929      66  139935  139932      67  139944  139941      66  139947
  139941      66  139947  139944      67  139956  139953      66  139959  139953
      66  139959  139956      67  139968  139965      66  139971  139965      66
  139971  139968      67  139980  139977      66  139983  139977      66  139983
  139980      67  139992  139989      66  139995  139989      66  139995  139992
      67  140004  140001      66  140007  140001      66  140007  140004      67
  140016  140013      66  140019  140013      66  140019  140016      67  140028
  140025      66  140031  140025      66  140031  140028      67  140040  140037
      66  140043  140037      66  140043  140040      67  140052  140049      66
  140055  140049      66  140055  140052      67  140064  140061      66  140067
  140061      66  140067  140064      67  140076  140073      66  140079  140073
      66  140079  140076      67  140088  140085      66  140091  140085      66
  140091  140088      67  140100  140097      66  140103  140097      66  140103
  140100      67  140112  140109      66  140115  140109      66  140115  140112
      67  140124  140121      66  140127  140121      66  140127  140124      67
  140136  140133      66  140139  140133      66  140139  140136      67  140148
  140145      66  140151  140145      66  140151  140148      67  140160  140157
      66  140163  140157      66  140163  140160      67  140172  140169      66
  140175  140169      66  140175  140172      67  140184  140181      66  140187
  140181      66  140187  140184      67  140196  140193      66  140199  140193
      66  140199  140196      67  140208  140205      66  140211  140205      66
  140211  140208      67  140220  140217      66  140223  140217      66  140223
  140220      67  140232  140229      66  140235  140229      66  140235  140232
      67  140244  140241      66  140247  140241      66  140247  140244      67
  140256  140253      66  140259  140253      66  140259  140256      67  140268
  140265      66  140271  140265      66  140271  140268      67  140280  140277
      66  140283  140277      66  140283  140280      67  140292  140289      66
  140295  140289      66  140295  140292      67  140304  140301      66  140307
  140301      66  140307  140304      67  140316  140313      66  140319  140313
      66  140319  140316      67  140328  140325      66  140331  140325      66
  140331  140328      67  140340  140337      66  140343  140337      66  140343
  140340      67  140352  140349      66  140355  140349      66  140355  140352
      67  140364  140361      66  140367  140361      66  140367  140364      67
  140376  140373      66  140379  140373      66  140379  140376      67  140388
  140385      66  140391  140385      66  140391  140388      67  140400  140397
      66  140403  140397      66  140403  140400      67  140412  140409      66
  140415  140409      66  140415  140412      67  140424  140421      66  140427
  140421      66  140427  140424      67  140436  140433      66  140439  140433
      66  140439  140436      67  140448  140445      66  140451  140445      66
  140451  140448      67  140460  140457      66  140463  140457      66  140463
  140460      67  140472  140469      66  140475  140469      66  140475  140472
      67  140484  140481      66  140487  140481      66  140487  140484      67
  140496  140493      66  140499  140493      66  140499  140496      67  140508
  140505      66  140511  140505      66  140511  140508      67  140520  140517
      66  140523  140517      66  140523  140520      67  140532  140529      66
  140535  140529      66  140535  140532      67  140544  140541      66  140547
  140541      66  140547  140544      67  140556  140553      66  140559  140553
      66  140559  140556      67  140568  140565      66  140571  140565      66
  140571  140568      67  140580  140577      66  140583  140577      66  140583
  140580      67  140592  140589      66  140595  140589      66  140595  140592
      67  140604  140601      66  140607  140601      66  140607  140604      67
  140616  140613      66  140619  140613      66  140619  140616      67  140628
  140625      66  140631  140625      66  140631  140628      67  140640  140637
      66  140643  140637      66  140643  140640      67  140652  140649      66
  140655  140649      66  140655  140652      67  140664  140661      66  140667
  140661      66  140667  140664      67  140676  140673      66  140679  140673
      66  140679  140676      67  140688  140685      66  140691  140685      66
  140691  140688      67  140700  140697      66  140703  140697      66  140703
  140700      67  140712  140709      66  140715  140709      66  140715  140712
      67  140724  140721      66  140727  140721      66  140727  140724      67
  140736  140733      66  140739  140733      66  140739  140736      67  140748
  140745      66  140751  140745      66  140751  140748      67  140760  140757
      66  140763  140757      66  140763  140760      67  140772  140769      66
  140775  140769      66  140775  140772      67  140784  140781      66  140787
  140781      66  140787  140784      67  140796  140793      66  140799  140793
      66  140799  140796      67  140808  140805      66  140811  140805      66
  140811  140808      67  140820  140817      66  140823  140817      66  140823
  140820      67  140832  140829      66  140835  140829      66  140835  140832
      67  140844  140841      66  140847  140841      66  140847  140844      67
  140856  140853      66  140859  140853      66  140859  140856      67  140868
  140865      66  140871  140865      66  140871  140868      67  140880  140877
      66  140883  140877      66  140883  140880      67  140892  140889      66
  140895  140889      66  140895  140892      67  140904  140901      66  140907
  140901      66  140907  140904      67  140916  140913      66  140919  140913
      66  140919  140916      67  140928  140925      66  140931  140925      66
  140931  140928      67  140940  140937      66  140943  140937      66  140943
  140940      67  140952  140949      66  140955  140949      66  140955  140952
      67  140964  140961      66  140967  140961      66  140967  140964      67
  140976  140973      66  140979  140973      66  140979  140976      67  140988
  140985      66  140991  140985      66  140991  140988      67  141000  140997
      66  141003  140997      66  141003  141000      67  141012  141009      66
  141015  141009      66  141015  141012      67  141024  141021      66  141027
  141021      66  141027  141024      67  141036  141033      66  141039  141033
      66  141039  141036      67  141048  141045      66  141051  141045      66
  141051  141048      67  141060  141057      66  141063  141057      66  141063
  141060      67  141072  141069      66  141075  141069      66  141075  141072
      67  141084  141081      66  141087  141081      66  141087  141084      67
  141096  141093      66  141099  141093      66  141099  141096      67  141108
  141105      66  141111  141105      66  141111  141108      67  141120  141117
      66  141123  141117      66  141123  141120      67  141132  141129      66
  141135  141129      66  141135  141132      67  141144  141141      66  141147
  141141      66  141147  141144      67  141156  141153      66  141159  141153
      66  141159  141156      67  141168  141165      66  141171  141165      66
  141171  141168      67  141180  141177      66  141183  141177      66  141183
  141180      67  141192  141189      66  141195  141189      66  141195  141192
      67  141204  141201      66  141207  141201      66  141207  141204      67
  141216  141213      66  141219  141213      66  141219  141216      67  141228
  141225      66  141231  141225      66  141231  141228      67  141240  141237
      66  141243  141237      66  141243  141240      67  141252  141249      66
  141255  141249      66  141255  141252      67  141264  141261      66  141267
  141261      66  141267  141264      67  141276  141273      66  141279  141273
      66  141279  141276      67  141288  141285      66  141291  141285      66
  141291  141288      67  141300  141297      66  141303  141297      66  141303
  141300      67  141312  141309      66  141315  141309      66  141315  141312
      67  141324  141321      66  141327  141321      66  141327  141324      67
  141336  141333      66  141339  141333      66  141339  141336      67  141348
  141345      66  141351  141345      66  141351  141348      67  141360  141357
      66  141363  141357      66  141363  141360      67  141372  141369      66
  141375  141369      66  141375  141372      67  141384  141381      66  141387
  141381      66  141387  141384      67  141396  141393      66  141399  141393
      66  141399  141396      67  141408  141405      66  141411  141405      66
  141411  141408      67  141420  141417      66  141423  141417      66  141423
  141420      67  141432  141429      66  141435  141429      66  141435  141432
      67  141444  141441      66  141447  141441      66  141447  141444      67
  141456  141453      66  141459  141453      66  141459  141456      67  141468
  141465      66  141471  141465      66  141471  141468      67  141480  141477
      66  141483  141477      66  141483  141480      67  141492  141489      66
  141495  141489      66  141495  141492      67  141504  141501      66  141507
  141501      66  141507  141504      67  141516  141513      66  141519  141513
      66  141519  141516      67  141528  141525      66  141531  141525      66
  141531  141528      67  141540  141537      66  141543  141537      66  141543
  141540      67  141552  141549      66  141555  141549      66  141555  141552
      67  141564  141561      66  141567  141561      66  141567  141564      67
  141576  141573      66  141579  141573      66  141579  141576      67  141588
  141585      66  141591  141585      66  141591  141588      67  141600  141597
      66  141603  141597      66  141603  141600      67  141612  141609      66
  141615  141609      66  141615  141612      67  141624  141621      66  141627
  141621      66  141627  141624      67  141636  141633      66  141639  141633
      66  141639  141636      67  141648  141645      66  141651  141645      66
  141651  141648      67  141660  141657      66  141663  141657      66  141663
  141660      67  141672  141669      66  141675  141669      66  141675  141672
      67  141684  141681      66  141687  141681      66  141687  141684      67
  141696  141693      66  141699  141693      66  141699  141696      67  141708
  141705      66  141711  141705      66  141711  141708      67  141720  141717
      66  141723  141717      66  141723  141720      67  141732  141729      66
  141735  141729      66  141735  141732      67  141744  141741      66  141747
  141741      66  141747  141744      67  141756  141753      66  141759  141753
      66  141759  141756      67  141768  141765      66  141771  141765      66
  141771  141768      67  141780  141777      66  141783  141777      66  141783
  141780      67  141792  141789      66  141795  141789      66  141795  141792
      67  141804  141801      66  141807  141801      66  141807  141804      67
  141816  141813      66  141819  141813      66  141819  141816      67  141828
  141825      66  141831  141825      66  141831  141828      67  141840  141837
      66  141843  141837      66  141843  141840      67  141852  141849      66
  141855  141849      66  141855  141852      67  141864  141861      66  141867
  141861      66  141867  141864      67  141876  141873      66  141879  141873
      66  141879  141876      67  141888  141885      66  141891  141885      66
  141891  141888      67  141900  141897      66  141903  141897      66  141903
  141900      67  141912  141909      66  141915  141909      66  141915  141912
      67  141924  141921      66  141927  141921      66  141927  141924      67
  141936  141933      66  141939  141933      66  141939  141936      67  141948
  141945      66  141951  141945      66  141951  141948      67  141960  141957
      66  141963  141957      66  141963  141960      67  141972  141969      66
  141975  141969      66  141975  141972      67  141984  141981      66  141987
  141981      66  141987  141984      67  141996  141993      66  141999  141993
      66  141999  141996      67  142008  142005      66  142011  142005      66
  142011  142008      67  142020  142017      66  142023  142017      66  142023
  142020      67  142032  142029      66  142035  142029      66  142035  142032
      67  142044  142041      66  142047  142041      66  142047  142044      67
  142056  142053      66  142059  142053      66  142059  142056      67  142068
  142065      66  142071  142065      66  142071  142068      67  142080  142077
      66  142083  142077      66  142083  142080      67  142092  142089      66
  142095  142089      66  142095  142092      67  142104  142101      66  142107
  142101      66  142107  142104      67  142116  142113      66  142119  142113
      66  142119  142116      67  142128  142125      66  142131  142125      66
  142131  142128      67  142140  142137      66  142143  142137      66  142143
  142140      67  142152  142149      66  142155  142149      66  142155  142152
      67  142164  142161      66  142167  142161      66  142167  142164      67
  142176  142173      66  142179  142173      66  142179  142176      67  142188
  142185      66  142191  142185      66  142191  142188      67  142200  142197
      66  142203  142197      66  142203  142200      67  142212  142209      66
  142215  142209      66  142215  142212      67  142224  142221      66  142227
  142221      66  142227  142224      67  142236  142233      66  142239  142233
      66  142239  142236      67  142248  142245      66  142251  142245      66
  142251  142248      67  142260  142257      66  142263  142257      66  142263
  142260      67  142272  142269      66  142275  142269      66  142275  142272
      67  142284  142281      66  142287  142281      66  142287  142284      67
  142296  142293      66  142299  142293      66  142299  142296      67  142308
  142305      66  142311  142305      66  142311  142308      67  142320  142317
      66  142323  142317      66  142323  142320      67  142332  142329      66
  142335  142329      66  142335  142332      67  142344  142341      66  142347
  142341      66  142347  142344      67  142356  142353      66  142359  142353
      66  142359  142356      67  142368  142365      66  142371  142365      66
  142371  142368      67  142380  142377      66  142383  142377      66  142383
  142380      67  142392  142389      66  142395  142389      66  142395  142392
      67  142404  142401      66  142407  142401      66  142407  142404      67
  142416  142413      66  142419  142413      66  142419  142416      67  142428
  142425      66  142431  142425      66  142431  142428      67  142440  142437
      66  142443  142437      66  142443  142440      67  142452  142449      66
  142455  142449      66  142455  142452      67  142464  142461      66  142467
  142461      66  142467  142464      67  142476  142473      66  142479  142473
      66  142479  142476      67  142488  142485      66  142491  142485      66
  142491  142488      67  142500  142497      66  142503  142497      66  142503
  142500      67  142512  142509      66  142515  142509      66  142515  142512
      67  142524  142521      66  142527  142521      66  142527  142524      67
  142536  142533      66  142539  142533      66  142539  142536      67  142548
  142545      66  142551  142545      66  142551  142548      67  142560  142557
      66  142563  142557      66  142563  142560      67  142572  142569      66
  142575  142569      66  142575  142572      67  142584  142581      66  142587
  142581      66  142587  142584      67  142596  142593      66  142599  142593
      66  142599  142596      67  142608  142605      66  142611  142605      66
  142611  142608      67  142620  142617      66  142623  142617      66  142623
  142620      67  142632  142629      66  142635  142629      66  142635  142632
      67  142644  142641      66  142647  142641      66  142647  142644      67
  142656  142653      66  142659  142653      66  142659  142656      67  142668
  142665      66  142671  142665      66  142671  142668      67  142680  142677
      66  142683  142677      66  142683  142680      67  142692  142689      66
  142695  142689      66  142695  142692      67  142704  142701      66  142707
  142701      66  142707  142704      67  142716  142713      66  142719  142713
      66  142719  142716      67  142728  142725      66  142731  142725      66
  142731  142728      67  142740  142737      66  142743  142737      66  142743
  142740      67  142752  142749      66  142755  142749      66  142755  142752
      67  142764  142761      66  142767  142761      66  142767  142764      67
  142776  142773      66  142779  142773      66  142779  142776      67  142788
  142785      66  142791  142785      66  142791  142788      67  142800  142797
      66  142803  142797      66  142803  142800      67  142812  142809      66
  142815  142809      66  142815  142812      67  142824  142821      66  142827
  142821      66  142827  142824      67  142836  142833      66  142839  142833
      66  142839  142836      67  142848  142845      66  142851  142845      66
  142851  142848      67  142860  142857      66  142863  142857      66  142863
  142860      67  142872  142869      66  142875  142869      66  142875  142872
      67  142884  142881      66  142887  142881      66  142887  142884      67
  142896  142893      66  142899  142893      66  142899  142896      67  142908
  142905      66  142911  142905      66  142911  142908      67  142920  142917
      66  142923  142917      66  142923  142920      67  142932  142929      66
  142935  142929      66  142935  142932      67  142944  142941      66  142947
  142941      66  142947  142944      67  142956  142953      66  142959  142953
      66  142959  142956      67  142968  142965      66  142971  142965      66
  142971  142968      67  142980  142977      66  142983  142977      66  142983
  142980      67  142992  142989      66  142995  142989      66  142995  142992
      67  143004  143001      66  143007  143001      66  143007  143004      67
  143016  143013      66  143019  143013      66  143019  143016      67  143028
  143025      66  143031  143025      66  143031  143028      67  143040  143037
      66  143043  143037      66  143043  143040      67  143052  143049      66
  143055  143049      66  143055  143052      67  143064  143061      66  143067
  143061      66  143067  143064      67  143076  143073      66  143079  143073
      66  143079  143076      67  143088  143085      66  143091  143085      66
  143091  143088      67  143100  143097      66  143103  143097      66  143103
  143100      67  143112  143109      66  143115  143109      66  143115  143112
      67  143124  143121      66  143127  143121      66  143127  143124      67
  143136  143133      66  143139  143133      66  143139  143136      67  143148
  143145      66  143151  143145      66  143151  143148      67  143160  143157
      66  143163  143157      66  143163  143160      67  143172  143169      66
  143175  143169      66  143175  143172      67  143184  143181      66  143187
  143181      66  143187  143184      67  143196  143193      66  143199  143193
      66  143199  143196      67  143208  143205      66  143211  143205      66
  143211  143208      67  143220  143217      66  143223  143217      66  143223
  143220      67  143232  143229      66  143235  143229      66  143235  143232
      67  143244  143241      66  143247  143241      66  143247  143244      67
  143256  143253      66  143259  143253      66  143259  143256      67  143268
  143265      66  143271  143265      66  143271  143268      67  143280  143277
      66  143283  143277      66  143283  143280      67  143292  143289      66
  143295  143289      66  143295  143292      67  143304  143301      66  143307
  143301      66  143307  143304      67  143316  143313      66  143319  143313
      66  143319  143316      67  143328  143325      66  143331  143325      66
  143331  143328      67  143340  143337      66  143343  143337      66  143343
  143340      67  143352  143349      66  143355  143349      66  143355  143352
      67  143364  143361      66  143367  143361      66  143367  143364      67
  143376  143373      66  143379  143373      66  143379  143376      67  143388
  143385      66  143391  143385      66  143391  143388      67  143400  143397
      66  143403  143397      66  143403  143400      67  143412  143409      66
  143415  143409      66  143415  143412      67  143424  143421      66  143427
  143421      66  143427  143424      67  143436  143433      66  143439  143433
      66  143439  143436      67  143448  143445      66  143451  143445      66
  143451  143448      67  143460  143457      66  143463  143457      66  143463
  143460      67  143472  143469      66  143475  143469      66  143475  143472
      67  143484  143481      66  143487  143481      66  143487  143484      67
  143496  143493      66  143499  143493      66  143499  143496      67  143508
  143505      66  143511  143505      66  143511  143508      67  143520  143517
      66  143523  143517      66  143523  143520      67  143532  143529      66
  143535  143529      66  143535  143532      67  143544  143541      66  143547
  143541      66  143547  143544      67  143556  143553      66  143559  143553
      66  143559  143556      67  143568  143565      66  143571  143565      66
  143571  143568      67  143580  143577      66  143583  143577      66  143583
  143580      67  143592  143589      66  143595  143589      66  143595  143592
      67  143604  143601      66  143607  143601      66  143607  143604      67
  143616  143613      66  143619  143613      66  143619  143616      67  143628
  143625      66  143631  143625      66  143631  143628      67  143640  143637
      66  143643  143637      66  143643  143640      67  143652  143649      66
  143655  143649      66  143655  143652      67  143664  143661      66  143667
  143661      66  143667  143664      67  143676  143673      66  143679  143673
      66  143679  143676      67  143688  143685      66  143691  143685      66
  143691  143688      67  143700  143697      66  143703  143697      66  143703
  143700      67  143712  143709      66  143715  143709      66  143715  143712
      67  143724  143721      66  143727  143721      66  143727  143724      67
  143736  143733      66  143739  143733      66  143739  143736      67  143748
  143745      66  143751  143745      66  143751  143748      67  143760  143757
      66  143763  143757      66  143763  143760      67  143772  143769      66
  143775  143769      66  143775  143772      67  143784  143781      66  143787
  143781      66  143787  143784      67  143796  143793      66  143799  143793
      66  143799  143796      67  143808  143805      66  143811  143805      66
  143811  143808      67  143820  143817      66  143823  143817      66  143823
  143820      67  143832  143829      66  143835  143829      66  143835  143832
      67  143844  143841      66  143847  143841      66  143847  143844      67
  143856  143853      66  143859  143853      66  143859  143856      67  143868
  143865      66  143871  143865      66  143871  143868      67  143880  143877
      66  143883  143877      66  143883  143880      67  143892  143889      66
  143895  143889      66  143895  143892      67  143904  143901      66  143907
  143901      66  143907  143904      67  143916  143913      66  143919  143913
      66  143919  143916      67  143928  143925      66  143931  143925      66
  143931  143928      67  143940  143937      66  143943  143937      66  143943
  143940      67  143952  143949      66  143955  143949      66  143955  143952
      67  143964  143961      66  143967  143961      66  143967  143964      67
  143976  143973      66  143979  143973      66  143979  143976      67  143988
  143985      66  143991  143985      66  143991  143988      67  144000  143997
      66  144003  143997      66  144003  144000      67  144012  144009      66
  144015  144009      66  144015  144012      67  144024  144021      66  144027
  144021      66  144027  144024      67  144036  144033      66  144039  144033
      66  144039  144036      67  144048  144045      66  144051  144045      66
  144051  144048      67  144060  144057      66  144063  144057      66  144063
  144060      67  144072  144069      66  144075  144069      66  144075  144072
      67  144084  144081      66  144087  144081      66  144087  144084      67
  144096  144093      66  144099  144093      66  144099  144096      67  144108
  144105      66  144111  144105      66  144111  144108      67  144120  144117
      66  144123  144117      66  144123  144120      67  144132  144129      66
  144135  144129      66  144135  144132      67  144144  144141      66  144147
  144141      66  144147  144144      67  144156  144153      66  144159  144153
      66  144159  144156      67  144168  144165      66  144171  144165      66
  144171  144168      67  144180  144177      66  144183  144177      66  144183
  144180      67  144192  144189      66  144195  144189      66  144195  144192
      67  144204  144201      66  144207  144201      66  144207  144204      67
  144216  144213      66  144219  144213      66  144219  144216      67  144228
  144225      66  144231  144225      66  144231  144228      67  144240  144237
      66  144243  144237      66  144243  144240      67  144252  144249      66
  144255  144249      66  144255  144252      67  144264  144261      66  144267
  144261      66  144267  144264      67  144276  144273      66  144279  144273
      66  144279  144276      67  144288  144285      66  144291  144285      66
  144291  144288      67  144300  144297      66  144303  144297      66  144303
  144300      67  144312  144309      66  144315  144309      66  144315  144312
      67  144324  144321      66  144327  144321      66  144327  144324      67
  144336  144333      66  144339  144333      66  144339  144336      67  144348
  144345      66  144351  144345      66  144351  144348      67  144360  144357
      66  144363  144357      66  144363  144360      67  144372  144369      66
  144375  144369      66  144375  144372      67  144384  144381      66  144387
  144381      66  144387  144384      67  144396  144393      66  144399  144393
      66  144399  144396      67  144408  144405      66  144411  144405      66
  144411  144408      67  144420  144417      66  144423  144417      66  144423
  144420      67  144432  144429      66  144435  144429      66  144435  144432
      67  144444  144441      66  144447  144441      66  144447  144444      67
  144456  144453      66  144459  144453      66  144459  144456      67  144468
  144465      66  144471  144465      66  144471  144468      67  144480  144477
      66  144483  144477      66  144483  144480      67  144492  144489      66
  144495  144489      66  144495  144492      67  144504  144501      66  144507
  144501      66  144507  144504      67  144516  144513      66  144519  144513
      66  144519  144516      67  144528  144525      66  144531  144525      66
  144531  144528      67  144540  144537      66  144543  144537      66  144543
  144540      67  144552  144549      66  144555  144549      66  144555  144552
      67  144564  144561      66  144567  144561      66  144567  144564      67
  144576  144573      66  144579  144573      66  144579  144576      67  144588
  144585      66  144591  144585      66  144591  144588      67  144600  144597
      66  144603  144597      66  144603  144600      67  144612  144609      66
  144615  144609      66  144615  144612      67  144624  144621      66  144627
  144621      66  144627  144624      67  144636  144633      66  144639  144633
      66  144639  144636      67  144648  144645      66  144651  144645      66
  144651  144648      67  144660  144657      66  144663  144657      66  144663
  144660      67  144672  144669      66  144675  144669      66  144675  144672
      67  144684  144681      66  144687  144681      66  144687  144684      67
  144696  144693      66  144699  144693      66  144699  144696      67  144708
  144705      66  144711  144705      66  144711  144708      67  144720  144717
      66  144723  144717      66  144723  144720      67  144732  144729      66
  144735  144729      66  144735  144732      67  144744  144741      66  144747
  144741      66  144747  144744      67  144756  144753      66  144759  144753
      66  144759  144756      67  144768  144765      66  144771  144765      66
  144771  144768      67  144780  144777      66  144783  144777      66  144783
  144780      67  144792  144789      66  144795  144789      66  144795  144792
      67  144804  144801      66  144807  144801      66  144807  144804      67
  144816  144813      66  144819  144813      66  144819  144816      67  144828
  144825      66  144831  144825      66  144831  144828      67  144840  144837
      66  144843  144837      66  144843  144840      67  144852  144849      66
  144855  144849      66  144855  144852      67  144864  144861      66  144867
  144861      66  144867  144864      67  144876  144873      66  144879  144873
      66  144879  144876      67  144888  144885      66  144891  144885      66
  144891  144888      67  144900  144897      66  144903  144897      66  144903
  144900      67  144912  144909      66  144915  144909      66  144915  144912
      67  144924  144921      66  144927  144921      66  144927  144924      67
  144936  144933      66  144939  144933      66  144939  144936      67  144948
  144945      66  144951  144945      66  144951  144948      67  144960  144957
      66  144963  144957      66  144963  144960      67  144972  144969      66
  144975  144969      66  144975  144972      67  144984  144981      66  144987
  144981      66  144987  144984      67  144996  144993      66  144999  144993
      66  144999  144996      67  145008  145005      66  145011  145005      66
  145011  145008      67  145020  145017      66  145023  145017      66  145023
  145020      67  145032  145029      66  145035  145029      66  145035  145032
      67  145044  145041      66  145047  145041      66  145047  145044      67
  145056  145053      66  145059  145053      66  145059  145056      67  145068
  145065      66  145071  145065      66  145071  145068      67  145080  145077
      66  145083  145077      66  145083  145080      67  145092  145089      66
  145095  145089      66  145095  145092      67  145104  145101      66  145107
  145101      66  145107  145104      67  145116  145113      66  145119  145113
      66  145119  145116      67  145128  145125      66  145131  145125      66
  145131  145128      67  145140  145137      66  145143  145137      66  145143
  145140      67  145152  145149      66  145155  145149      66  145155  145152
      67  145164  145161      66  145167  145161      66  145167  145164      67
  145176  145173      66  145179  145173      66  145179  145176      67  145188
  145185      66  145191  145185      66  145191  145188      67  145200  145197
      66  145203  145197      66  145203  145200      67  145212  145209      66
  145215  145209      66  145215  145212      67  145224  145221      66  145227
  145221      66  145227  145224      67  145236  145233      66  145239  145233
      66  145239  145236      67  145248  145245      66  145251  145245      66
  145251  145248      67  145260  145257      66  145263  145257      66  145263
  145260      67  145272  145269      66  145275  145269      66  145275  145272
      67  145284  145281      66  145287  145281      66  145287  145284      67
  145296  145293      66  145299  145293      66  145299  145296      67  145308
  145305      66  145311  145305      66  145311  145308      67  145320  145317
      66  145323  145317      66  145323  145320      67  145332  145329      66
  145335  145329      66  145335  145332      67  145344  145341      66  145347
  145341      66  145347  145344      67  145356  145353      66  145359  145353
      66  145359  145356      67  145368  145365      66  145371  145365      66
  145371  145368      67  145380  145377      66  145383  145377      66  145383
  145380      67  145392  145389      66  145395  145389      66  145395  145392
      67  145404  145401      66  145407  145401      66  145407  145404      67
  145416  145413      66  145419  145413      66  145419  145416      67  145428
  145425      66  145431  145425      66  145431  145428      67  145440  145437
      66  145443  145437      66  145443  145440      67  145452  145449      66
  145455  145449      66  145455  145452      67  145464  145461      66  145467
  145461      66  145467  145464      67
%FLAG BONDS_WITHOUT_HYDROGEN                                                    
%FORMAT(10I8)                                                                   
      12      15       1      12      18       2       3      12       4      84
      87       1      84      90       2      75      81       6      69      75
       7      63      69       7      57      63       7      54      57       8
      54      81       9      48      54      11      42      48      13      39
      42      14      39      81      15      30      39      16      24      30
      18      24      84      19      18      24      21     132     135       1
     132     138       2     102     108      23     102     120      23      96
     102      24      96     132      19      90      96      21     174     177
       1     174     180       2     150     156      23     150     168      27
     144     150      24     144     174      19     138     144      21     225
     228       1     225     231       2     216     219      29     210     216
      31     204     210      32     201     204      33     201     219      34
     192     201      35     186     192      18     186     225      19     180
     186      21     297     300       1     297     333       2     276     279
      37     276     288      37     270     276      37     261     270      39
     252     261      41     243     252      41     237     243      42     237
     297      19     231     237      21     330     501      44     327     330
      45     324     327      47     321     324      45     318     321      44
     315     318      44     309     312      48     309     315      48     309
     333      49     303     306       1     303     309      50     303     378
       2     402     405       1     402     408       2     384     390      18
     384     402      19     378     384      21     423     426       1     423
     429       2     414     423      19     408     414      21     480     483
       1     480     504       2     450     456      23     450     468      23
     441     450      52     435     441      53     435     480      19     429
     435      21     498     501      44     492     495      48     492     498
      48     492     504      49     486     489       1     486     492      50
     486     531       2     558     561       1     558     564       2     543
     552      55     537     543      53     537     558      19     531     537
      21     630     633       1     630     636       2     609     612      37
     609     621      37     603     609      37     594     603      39     585
     594      41     576     585      41     570     576      42     570     630
      19     564     570      21     663     666       1     663     669       2
     648     657      55     642     648      53     642     663      19     636
     642      21     684     687       1     684     690       2     675     684
      19     669     675      21     705     708       1     705     711       2
     696     705      19     690     696      21     753     756       1     753
     759       2     723     729      23     723     741      23     717     723
      24     717     753      19     711     717      21     801     804       1
     801     807       2     771     777      23     771     789      23     765
     771      24     765     801      19     759     765      21     867     870
       1     867     873       2     846     855      58     837     846      41
     828     837      41     819     828      41     813     819      42     813
     867      19     807     813      21     909     912       1     909     915
       2     894     897       1     894     900       2     885     894      59
     879     885      53     879     909      19     873     879      21     951
     954       1     951     957       2     936     939       1     936     942
       2     927     936      59     921     927      53     921     951      19
     915     921      21    1011    1014       1    1011    1017       2     999
    1005       7     993     999       7     987     993       7     981     987
       7     978     981       7     978    1005       7     969     978      60
     963     969      18     963    1011      19     957     963      21    1059
    1062       1    1059    1065       2    1029    1035      23    1029    1047
      23    1023    1029      24    1023    1059      19    1017    1023      21
    1101    1104       1    1101    1107       2    1095    1101      19    1086
    1095      18    1077    1086      61    1068    1077      61    1065    1068
      63    1065    1095      21    1143    1146       1    1143    1149       2
    1119    1125      23    1119    1137      27    1113    1119      24    1113
    1143      19    1107    1113      21    1179    1182       1    1179    1185
       2    1170    1173      64    1170    1176      64    1161    1170      65
    1155    1161      53    1155    1179      19    1149    1155      21    1227
    1230       1    1227    1233       2    1197    1203      23    1197    1215
      23    1191    1197      24    1191    1227      19    1185    1191      21
    1248    1251       1    1248    1254       2    1239    1248      19    1233
    1239      21    1290    1293       1    1290    1296       2    1284    1290
      19    1275    1284      18    1266    1275      61    1257    1266      61
    1254    1257      63    1254    1284      21    1350    1353       1    1350
    1356       2    1338    1344       7    1332    1338       7    1326    1332
       7    1320    1326       7    1317    1320       7    1317    1344       7
    1308    1317      60    1302    1308      18    1302    1350      19    1296
    1302      21    1380    1383       1    1380    1386       2    1362    1368
      18    1362    1380      19    1356    1362      21    1440    1443       1
    1440    1446       2    1428    1434       7    1422    1428       7    1416
    1422       7    1410    1416       7    1407    1410       7    1407    1434
       7    1398    1407      60    1392    1398      18    1392    1440      19
    1386    1392      21    1590    1581      68    1602    1593      68    1614
    1605      68    1626    1617      68    1638    1629      68    1650    1641
      68    1662    1653      68    1674    1665      68    1686    1677      68
    1698    1689      68    1710    1701      68    1722    1713      68    1734
    1725      68    1746    1737      68    1758    1749      68    1770    1761
      68    1782    1773      68    1794    1785      68    1806    1797      68
    1818    1809      68    1830    1821      68    1842    1833      68    1854
    1845      68    1866    1857      68    1878    1869      68    1890    1881
      68    1902    1893      68    1914    1905      68    1926    1917      68
    1938    1929      68    1950    1941      68    1962    1953      68    1974
    1965      68    1986    1977      68    1998    1989      68    2010    2001
      68    2022    2013      68    2034    2025      68    2046    2037      68
    2058    2049      68    2070    2061      68    2082    2073      68    2094
    2085      68    2106    2097      68    2118    2109      68    2130    2121
      68    2142    2133      68    2154    2145      68    2166    2157      68
    2178    2169      68    2190    2181      68    2202    2193      68    2214
    2205      68    2226    2217      68    2238    2229      68    2250    2241
      68    2262    2253      68    2274    2265      68    2286    2277      68
    2298    2289      68    2310    2301      68    2322    2313      68    2334
    2325      68    2346    2337      68    2358    2349      68    2370    2361
      68    2382    2373      68    2394    2385      68    2406    2397      68
    2418    2409      68    2430    2421      68    2442    2433      68    2454
    2445      68    2466    2457      68    2478    2469      68    2490    2481
      68    2502    2493      68    2514    2505      68    2526    2517      68
    2538    2529      68    2550    2541      68    2562    2553      68    2574
    2565      68    2586    2577      68    2598    2589      68    2610    2601
      68    2622    2613      68    2634    2625      68    2646    2637      68
    2658    2649      68    2670    2661      68    2682    2673      68    2694
    2685      68    2706    2697      68    2718    2709      68    2730    2721
      68    2742    2733      68    2754    2745      68    2766    2757      68
    2778    2769      68    2790    2781      68    2802    2793      68    2814
    2805      68    2826    2817      68    2838    2829      68    2850    2841
      68    2862    2853      68    2874    2865      68    2886    2877      68
    2898    2889      68    2910    2901      68    2922    2913      68    2934
    2925      68    2946    2937      68    2958    2949      68    2970    2961
      68    2982    2973      68    2994    2985      68    3006    2997      68
    3018    3009      68    3030    3021      68    3042    3033      68    3054
    3045      68    3066    3057      68    3078    3069      68    3090    3081
      68    3102    3093      68    3114    3105      68    3126    3117      68
    3138    3129      68    3150    3141      68    3162    3153      68    3174
    3165      68    3186    3177      68    3198    3189      68    3210    3201
      68    3222    3213      68    3234    3225      68    3246    3237      68
    3258    3249      68    3270    3261      68    3282    3273      68    3294
    3285      68    3306    3297      68    3318    3309      68    3330    3321
      68    3342    3333      68    3354    3345      68    3366    3357      68
    3378    3369      68    3390    3381      68    3402    3393      68    3414
    3405      68    3426    3417      68    3438    3429      68    3450    3441
      68    3462    3453      68    3474    3465      68    3486    3477      68
    3498    3489      68    3510    3501      68    3522    3513      68    3534
    3525      68    3546    3537      68    3558    3549      68    3570    3561
      68    3582    3573      68    3594    3585      68    3606    3597      68
    3618    3609      68    3630    3621      68    3642    3633      68    3654
    3645      68    3666    3657      68    3678    3669      68    3690    3681
      68    3702    3693      68    3714    3705      68    3726    3717      68
    3738    3729      68    3750    3741      68    3762    3753      68    3774
    3765      68    3786    3777      68    3798    3789      68    3810    3801
      68    3822    3813      68    3834    3825      68    3846    3837      68
    3858    3849      68    3870    3861      68    3882    3873      68    3894
    3885      68    3906    3897      68    3918    3909      68    3930    3921
      68    3942    3933      68    3954    3945      68    3966    3957      68
    3978    3969      68    3990    3981      68    4002    3993      68    4014
    4005      68    4026    4017      68    4038    4029      68    4050    4041
      68    4062    4053      68    4074    4065      68    4086    4077      68
    4098    4089      68    4110    4101      68    4122    4113      68    4134
    4125      68    4146    4137      68    4158    4149      68    4170    4161
      68    4182    4173      68    4194    4185      68    4206    4197      68
    4218    4209      68    4230    4221      68    4242    4233      68    4254
    4245      68    4266    4257      68    4278    4269      68    4290    4281
      68    4302    4293      68    4314    4305      68    4326    4317      68
    4338    4329      68    4350    4341      68    4362    4353      68    4374
    4365      68    4386    4377      68    4398    4389      68    4410    4401
      68    4422    4413      68    4434    4425      68    4446    4437      68
    4458    4449      68    4470    4461      68    4482    4473      68    4494
    4485      68    4506    4497      68    4518    4509      68    4530    4521
      68    4542    4533      68    4554    4545      68    4566    4557      68
    4578    4569      68    4590    4581      68    4602    4593      68    4614
    4605      68    4626    4617      68    4638    4629      68    4650    4641
      68    4662    4653      68    4674    4665      68    4686    4677      68
    4698    4689      68    4710    4701      68    4722    4713      68    4734
    4725      68    4746    4737      68    4758    4749      68    4770    4761
      68    4782    4773      68    4794    4785      68    4806    4797      68
    4818    4809      68    4830    4821      68    4842    4833      68    4854
    4845      68    4866    4857      68    4878    4869      68    4890    4881
      68    4902    4893      68    4914    4905      68    4926    4917      68
    4938    4929      68    4950    4941      68    4962    4953      68    4974
    4965      68    4986    4977      68    4998    4989      68    5010    5001
      68    5022    5013      68    5034    5025      68    5046    5037      68
    5058    5049      68    5070    5061      68    5082    5073      68    5094
    5085      68    5106    5097      68    5118    5109      68    5130    5121
      68    5142    5133      68    5154    5145      68    5166    5157      68
    5178    5169      68    5190    5181      68    5202    5193      68    5214
    5205      68    5226    5217      68    5238    5229      68    5250    5241
      68    5262    5253      68    5274    5265      68    5286    5277      68
    5298    5289      68    5310    5301      68    5322    5313      68    5334
    5325      68    5346    5337      68    5358    5349      68    5370    5361
      68    5382    5373      68    5394    5385      68    5406    5397      68
    5418    5409      68    5430    5421      68    5442    5433      68    5454
    5445      68    5466    5457      68    5478    5469      68    5490    5481
      68    5502    5493      68    5514    5505      68    5526    5517      68
    5538    5529      68    5550    5541      68    5562    5553      68    5574
    5565      68    5586    5577      68    5598    5589      68    5610    5601
      68    5622    5613      68    5634    5625      68    5646    5637      68
    5658    5649      68    5670    5661      68    5682    5673      68    5694
    5685      68    5706    5697      68    5718    5709      68    5730    5721
      68    5742    5733      68    5754    5745      68    5766    5757      68
    5778    5769      68    5790    5781      68    5802    5793      68    5814
    5805      68    5826    5817      68    5838    5829      68    5850    5841
      68    5862    5853      68    5874    5865      68    5886    5877      68
    5898    5889      68    5910    5901      68    5922    5913      68    5934
    5925      68    5946    5937      68    5958    5949      68    5970    5961
      68    5982    5973      68    5994    5985      68    6006    5997      68
    6018    6009      68    6030    6021      68    6042    6033      68    6054
    6045      68    6066    6057      68    6078    6069      68    6090    6081
      68    6102    6093      68    6114    6105      68    6126    6117      68
    6138    6129      68    6150    6141      68    6162    6153      68    6174
    6165      68    6186    6177      68    6198    6189      68    6210    6201
      68    6222    6213      68    6234    6225      68    6246    6237      68
    6258    6249      68    6270    6261      68    6282    6273      68    6294
    6285      68    6306    6297      68    6318    6309      68    6330    6321
      68    6342    6333      68    6354    6345      68    6366    6357      68
    6378    6369      68    6390    6381      68    6402    6393      68    6414
    6405      68    6426    6417      68    6438    6429      68    6450    6441
      68    6462    6453      68    6474    6465      68    6486    6477      68
    6498    6489      68    6510    6501      68    6522    6513      68    6534
    6525      68    6546    6537      68    6558    6549      68    6570    6561
      68    6582    6573      68    6594    6585      68    6606    6597      68
    6618    6609      68    6630    6621      68    6642    6633      68    6654
    6645      68    6666    6657      68    6678    6669      68    6690    6681
      68    6702    6693      68    6714    6705      68    6726    6717      68
    6738    6729      68    6750    6741      68    6762    6753      68    6774
    6765      68    6786    6777      68    6798    6789      68    6810    6801
      68    6822    6813      68    6834    6825      68    6846    6837      68
    6858    6849      68    6870    6861      68    6882    6873      68    6894
    6885      68    6906    6897      68    6918    6909      68    6930    6921
      68    6942    6933      68    6954    6945      68    6966    6957      68
    6978    6969      68    6990    6981      68    7002    6993      68    7014
    7005      68    7026    7017      68    7038    7029      68    7050    7041
      68    7062    7053      68    7074    7065      68    7086    7077      68
    7098    7089      68    7110    7101      68    7122    7113      68    7134
    7125      68    7146    7137      68    7158    7149      68    7170    7161
      68    7182    7173      68    7194    7185      68    7206    7197      68
    7218    7209      68    7230    7221      68    7242    7233      68    7254
    7245      68    7266    7257      68    7278    7269      68    7290    7281
      68    7302    7293      68    7314    7305      68    7326    7317      68
    7338    7329      68    7350    7341      68    7362    7353      68    7374
    7365      68    7386    7377      68    7398    7389      68    7410    7401
      68    7422    7413      68    7434    7425      68    7446    7437      68
    7458    7449      68    7470    7461      68    7482    7473      68    7494
    7485      68    7506    7497      68    7518    7509      68    7530    7521
      68    7542    7533      68    7554    7545      68    7566    7557      68
    7578    7569      68    7590    7581      68    7602    7593      68    7614
    7605      68    7626    7617      68    7638    7629      68    7650    7641
      68    7662    7653      68    7674    7665      68    7686    7677      68
    7698    7689      68    7710    7701      68    7722    7713      68    7734
    7725      68    7746    7737      68    7758    7749      68    7770    7761
      68    7782    7773      68    7794    7785      68    7806    7797      68
    7818    7809      68    7830    7821      68    7842    7833      68    7854
    7845      68    7866    7857      68    7878    7869      68    7890    7881
      68    7902    7893      68    7914    7905      68    7926    7917      68
    7938    7929      68    7950    7941      68    7962    7953      68    7974
    7965      68    7986    7977      68    7998    7989      68    8010    8001
      68    8022    8013      68    8034    8025      68    8046    8037      68
    8058    8049      68    8070    8061      68    8082    8073      68    8094
    8085      68    8106    8097      68    8118    8109      68    8130    8121
      68    8142    8133      68    8154    8145      68    8166    8157      68
    8178    8169      68    8190    8181      68    8202    8193      68    8214
    8205      68    8226    8217      68    8238    8229      68    8250    8241
      68    8262    8253      68    8274    8265      68    8286    8277      68
    8298    8289      68    8310    8301      68    8322    8313      68    8334
    8325      68    8346    8337      68    8358    8349      68    8370    8361
      68    8382    8373      68    8394    8385      68    8406    8397      68
    8418    8409      68    8430    8421      68    8442    8433      68    8454
    8445      68    8466    8457      68    8478    8469      68    8490    8481
      68    8502    8493      68    8514    8505      68    8526    8517      68
    8538    8529      68    8550    8541      68    8562    8553      68    8574
    8565      68    8586    8577      68    8598    8589      68    8610    8601
      68    8622    8613      68    8634    8625      68    8646    8637      68
    8658    8649      68    8670    8661      68    8682    8673      68    8694
    8685      68    8706    8697      68    8718    8709      68    8730    8721
      68    8742    8733      68    8754    8745      68    8766    8757      68
    8778    8769      68    8790    8781      68    8802    8793      68    8814
    8805      68    8826    8817      68    8838    8829      68    8850    8841
      68    8862    8853      68    8874    8865      68    8886    8877      68
    8898    8889      68    8910    8901      68    8922    8913      68    8934
    8925      68    8946    8937      68    8958    8949      68    8970    8961
      68    8982    8973      68    8994    8985      68    9006    8997      68
    9018    9009      68    9030    9021      68    9042    9033      68    9054
    9045      68    9066    9057      68    9078    9069      68    9090    9081
      68    9102    9093      68    9114    9105      68    9126    9117      68
    9138    9129      68    9150    9141      68    9162    9153      68    9174
    9165      68    9186    9177      68    9198    9189      68    9210    9201
      68    9222    9213      68    9234    9225      68    9246    9237      68
    9258    9249      68    9270    9261      68    9282    9273      68    9294
    9285      68    9306    9297      68    9318    9309      68    9330    9321
      68    9342    9333      68    9354    9345      68    9366    9357      68
    9378    9369      68    9390    9381      68    9402    9393      68    9414
    9405      68    9426    9417      68    9438    9429      68    9450    9441
      68    9462    9453      68    9474    9465      68    9486    9477      68
    9498    9489      68    9510    9501      68    9522    9513      68    9534
    9525      68    9546    9537      68    9558    9549      68    9570    9561
      68    9582    9573      68    9594    9585      68    9606    9597      68
    9618    9609      68    9630    9621      68    9642    9633      68    9654
    9645      68    9666    9657      68    9678    9669      68    9690    9681
      68    9702    9693      68    9714    9705      68    9726    9717      68
    9738    9729      68    9750    9741      68    9762    9753      68    9774
    9765      68    9786    9777      68    9798    9789      68    9810    9801
      68    9822    9813      68    9834    9825      68    9846    9837      68
    9858    9849      68    9870    9861      68    9882    9873      68    9894
    9885      68    9906    9897      68    9918    9909      68    9930    9921
      68    9942    9933      68    9954    9945      68    9966    9957      68
    9978    9969      68    9990    9981      68   10002    9993      68   10014
   10005      68   10026   10017      68   10038   10029      68   10050   10041
      68   10062   10053      68   10074   10065      68   10086   10077      68
   10098   10089      68   10110   10101      68   10122   10113      68   10134
   10125      68   10146   10137      68   10158   10149      68   10170   10161
      68   10182   10173      68   10194   10185      68   10206   10197      68
   10218   10209      68   10230   10221      68   10242   10233      68   10254
   10245      68   10266   10257      68   10278   10269      68   10290   10281
      68   10302   10293      68   10314   10305      68   10326   10317      68
   10338   10329      68   10350   10341      68   10362   10353      68   10374
   10365      68   10386   10377      68   10398   10389      68   10410   10401
      68   10422   10413      68   10434   10425      68   10446   10437      68
   10458   10449      68   10470   10461      68   10482   10473      68   10494
   10485      68   10506   10497      68   10518   10509      68   10530   10521
      68   10542   10533      68   10554   10545      68   10566   10557      68
   10578   10569      68   10590   10581      68   10602   10593      68   10614
   10605      68   10626   10617      68   10638   10629      68   10650   10641
      68   10662   10653      68   10674   10665      68   10686   10677      68
   10698   10689      68   10710   10701      68   10722   10713      68   10734
   10725      68   10746   10737      68   10758   10749      68   10770   10761
      68   10782   10773      68   10794   10785      68   10806   10797      68
   10818   10809      68   10830   10821      68   10842   10833      68   10854
   10845      68   10866   10857      68   10878   10869      68   10890   10881
      68   10902   10893      68   10914   10905      68   10926   10917      68
   10938   10929      68   10950   10941      68   10962   10953      68   10974
   10965      68   10986   10977      68   10998   10989      68   11010   11001
      68   11022   11013      68   11034   11025      68   11046   11037      68
   11058   11049      68   11070   11061      68   11082   11073      68   11094
   11085      68   11106   11097      68   11118   11109      68   11130   11121
      68   11142   11133      68   11154   11145      68   11166   11157      68
   11178   11169      68   11190   11181      68   11202   11193      68   11214
   11205      68   11226   11217      68   11238   11229      68   11250   11241
      68   11262   11253      68   11274   11265      68   11286   11277      68
   11298   11289      68   11310   11301      68   11322   11313      68   11334
   11325      68   11346   11337      68   11358   11349      68   11370   11361
      68   11382   11373      68   11394   11385      68   11406   11397      68
   11418   11409      68   11430   11421      68   11442   11433      68   11454
   11445      68   11466   11457      68   11478   11469      68   11490   11481
      68   11502   11493      68   11514   11505      68   11526   11517      68
   11538   11529      68   11550   11541      68   11562   11553      68   11574
   11565      68   11586   11577      68   11598   11589      68   11610   11601
      68   11622   11613      68   11634   11625      68   11646   11637      68
   11658   11649      68   11670   11661      68   11682   11673      68   11694
   11685      68   11706   11697      68   11718   11709      68   11730   11721
      68   11742   11733      68   11754   11745      68   11766   11757      68
   11778   11769      68   11790   11781      68   11802   11793      68   11814
   11805      68   11826   11817      68   11838   11829      68   11850   11841
      68   11862   11853      68   11874   11865      68   11886   11877      68
   11898   11889      68   11910   11901      68   11922   11913      68   11934
   11925      68   11946   11937      68   11958   11949      68   11970   11961
      68   11982   11973      68   11994   11985      68   12006   11997      68
   12018   12009      68   12030   12021      68   12042   12033      68   12054
   12045      68   12066   12057      68   12078   12069      68   12090   12081
      68   12102   12093      68   12114   12105      68   12126   12117      68
   12138   12129      68   12150   12141      68   12162   12153      68   12174
   12165      68   12186   12177      68   12198   12189      68   12210   12201
      68   12222   12213      68   12234   12225      68   12246   12237      68
   12258   12249      68   12270   12261      68   12282   12273      68   12294
   12285      68   12306   12297      68   12318   12309      68   12330   12321
      68   12342   12333      68   12354   12345      68   12366   12357      68
   12378   12369      68   12390   12381      68   12402   12393      68   12414
   12405      68   12426   12417      68   12438   12429      68   12450   12441
      68   12462   12453      68   12474   12465      68   12486   12477      68
   12498   12489      68   12510   12501      68   12522   12513      68   12534
   12525      68   12546   12537      68   12558   12549      68   12570   12561
      68   12582   12573      68   12594   12585      68   12606   12597      68
   12618   12609      68   12630   12621      68   12642   12633      68   12654
   12645      68   12666   12657      68   12678   12669      68   12690   12681
      68   12702   12693      68   12714   12705      68   12726   12717      68
   12738   12729      68   12750   12741      68   12762   12753      68   12774
   12765      68   12786   12777      68   12798   12789      68   12810   12801
      68   12822   12813      68   12834   12825      68   12846   12837      68
   12858   12849      68   12870   12861      68   12882   12873      68   12894
   12885      68   12906   12897      68   12918   12909      68   12930   12921
      68   12942   12933      68   12954   12945      68   12966   12957      68
   12978   12969      68   12990   12981      68   13002   12993      68   13014
   13005      68   13026   13017      68   13038   13029      68   13050   13041
      68   13062   13053      68   13074   13065      68   13086   13077      68
   13098   13089      68   13110   13101      68   13122   13113      68   13134
   13125      68   13146   13137      68   13158   13149      68   13170   13161
      68   13182   13173      68   13194   13185      68   13206   13197      68
   13218   13209      68   13230   13221      68   13242   13233      68   13254
   13245      68   13266   13257      68   13278   13269      68   13290   13281
      68   13302   13293      68   13314   13305      68   13326   13317      68
   13338   13329      68   13350   13341      68   13362   13353      68   13374
   13365      68   13386   13377      68   13398   13389      68   13410   13401
      68   13422   13413      68   13434   13425      68   13446   13437      68
   13458   13449      68   13470   13461      68   13482   13473      68   13494
   13485      68   13506   13497      68   13518   13509      68   13530   13521
      68   13542   13533      68   13554   13545      68   13566   13557      68
   13578   13569      68   13590   13581      68   13602   13593      68   13614
   13605      68   13626   13617      68   13638   13629      68   13650   13641
      68   13662   13653      68   13674   13665      68   13686   13677      68
   13698   13689      68   13710   13701      68   13722   13713      68   13734
   13725      68   13746   13737      68   13758   13749      68   13770   13761
      68   13782   13773      68   13794   13785      68   13806   13797      68
   13818   13809      68   13830   13821      68   13842   13833      68   13854
   13845      68   13866   13857      68   13878   13869      68   13890   13881
      68   13902   13893      68   13914   13905      68   13926   13917      68
   13938   13929      68   13950   13941      68   13962   13953      68   13974
   13965      68   13986   13977      68   13998   13989      68   14010   14001
      68   14022   14013      68   14034   14025      68   14046   14037      68
   14058   14049      68   14070   14061      68   14082   14073      68   14094
   14085      68   14106   14097      68   14118   14109      68   14130   14121
      68   14142   14133      68   14154   14145      68   14166   14157      68
   14178   14169      68   14190   14181      68   14202   14193      68   14214
   14205      68   14226   14217      68   14238   14229      68   14250   14241
      68   14262   14253      68   14274   14265      68   14286   14277      68
   14298   14289      68   14310   14301      68   14322   14313      68   14334
   14325      68   14346   14337      68   14358   14349      68   14370   14361
      68   14382   14373      68   14394   14385      68   14406   14397      68
   14418   14409      68   14430   14421      68   14442   14433      68   14454
   14445      68   14466   14457      68   14478   14469      68   14490   14481
      68   14502   14493      68   14514   14505      68   14526   14517      68
   14538   14529      68   14550   14541      68   14562   14553      68   14574
   14565      68   14586   14577      68   14598   14589      68   14610   14601
      68   14622   14613      68   14634   14625      68   14646   14637      68
   14658   14649      68   14670   14661      68   14682   14673      68   14694
   14685      68   14706   14697      68   14718   14709      68   14730   14721
      68   14742   14733      68   14754   14745      68   14766   14757      68
   14778   14769      68   14790   14781      68   14802   14793      68   14814
   14805      68   14826   14817      68   14838   14829      68   14850   14841
      68   14862   14853      68   14874   14865      68   14886   14877      68
   14898   14889      68   14910   14901      68   14922   14913      68   14934
   14925      68   14946   14937      68   14958   14949      68   14970   14961
      68   14982   14973      68   14994   14985      68   15006   14997      68
   15018   15009      68   15030   15021      68   15042   15033      68   15054
   15045      68   15066   15057      68   15078   15069      68   15090   15081
      68   15102   15093      68   15114   15105      68   15126   15117      68
   15138   15129      68   15150   15141      68   15162   15153      68   15174
   15165      68   15186   15177      68   15198   15189      68   15210   15201
      68   15222   15213      68   15234   15225      68   15246   15237      68
   15258   15249      68   15270   15261      68   15282   15273      68   15294
   15285      68   15306   15297      68   15318   15309      68   15330   15321
      68   15342   15333      68   15354   15345      68   15366   15357      68
   15378   15369      68   15390   15381      68   15402   15393      68   15414
   15405      68   15426   15417      68   15438   15429      68   15450   15441
      68   15462   15453      68   15474   15465      68   15486   15477      68
   15498   15489      68   15510   15501      68   15522   15513      68   15534
   15525      68   15546   15537      68   15558   15549      68   15570   15561
      68   15582   15573      68   15594   15585      68   15606   15597      68
   15618   15609      68   15630   15621      68   15642   15633      68   15654
   15645      68   15666   15657      68   15678   15669      68   15690   15681
      68   15702   15693      68   15714   15705      68   15726   15717      68
   15738   15729      68   15750   15741      68   15762   15753      68   15774
   15765      68   15786   15777      68   15798   15789      68   15810   15801
      68   15822   15813      68   15834   15825      68   15846   15837      68
   15858   15849      68   15870   15861      68   15882   15873      68   15894
   15885      68   15906   15897      68   15918   15909      68   15930   15921
      68   15942   15933      68   15954   15945      68   15966   15957      68
   15978   15969      68   15990   15981      68   16002   15993      68   16014
   16005      68   16026   16017      68   16038   16029      68   16050   16041
      68   16062   16053      68   16074   16065      68   16086   16077      68
   16098   16089      68   16110   16101      68   16122   16113      68   16134
   16125      68   16146   16137      68   16158   16149      68   16170   16161
      68   16182   16173      68   16194   16185      68   16206   16197      68
   16218   16209      68   16230   16221      68   16242   16233      68   16254
   16245      68   16266   16257      68   16278   16269      68   16290   16281
      68   16302   16293      68   16314   16305      68   16326   16317      68
   16338   16329      68   16350   16341      68   16362   16353      68   16374
   16365      68   16386   16377      68   16398   16389      68   16410   16401
      68   16422   16413      68   16434   16425      68   16446   16437      68
   16458   16449      68   16470   16461      68   16482   16473      68   16494
   16485      68   16506   16497      68   16518   16509      68   16530   16521
      68   16542   16533      68   16554   16545      68   16566   16557      68
   16578   16569      68   16590   16581      68   16602   16593      68   16614
   16605      68   16626   16617      68   16638   16629      68   16650   16641
      68   16662   16653      68   16674   16665      68   16686   16677      68
   16698   16689      68   16710   16701      68   16722   16713      68   16734
   16725      68   16746   16737      68   16758   16749      68   16770   16761
      68   16782   16773      68   16794   16785      68   16806   16797      68
   16818   16809      68   16830   16821      68   16842   16833      68   16854
   16845      68   16866   16857      68   16878   16869      68   16890   16881
      68   16902   16893      68   16914   16905      68   16926   16917      68
   16938   16929      68   16950   16941      68   16962   16953      68   16974
   16965      68   16986   16977      68   16998   16989      68   17010   17001
      68   17022   17013      68   17034   17025      68   17046   17037      68
   17058   17049      68   17070   17061      68   17082   17073      68   17094
   17085      68   17106   17097      68   17118   17109      68   17130   17121
      68   17142   17133      68   17154   17145      68   17166   17157      68
   17178   17169      68   17190   17181      68   17202   17193      68   17214
   17205      68   17226   17217      68   17238   17229      68   17250   17241
      68   17262   17253      68   17274   17265      68   17286   17277      68
   17298   17289      68   17310   17301      68   17322   17313      68   17334
   17325      68   17346   17337      68   17358   17349      68   17370   17361
      68   17382   17373      68   17394   17385      68   17406   17397      68
   17418   17409      68   17430   17421      68   17442   17433      68   17454
   17445      68   17466   17457      68   17478   17469      68   17490   17481
      68   17502   17493      68   17514   17505      68   17526   17517      68
   17538   17529      68   17550   17541      68   17562   17553      68   17574
   17565      68   17586   17577      68   17598   17589      68   17610   17601
      68   17622   17613      68   17634   17625      68   17646   17637      68
   17658   17649      68   17670   17661      68   17682   17673      68   17694
   17685      68   17706   17697      68   17718   17709      68   17730   17721
      68   17742   17733      68   17754   17745      68   17766   17757      68
   17778   17769      68   17790   17781      68   17802   17793      68   17814
   17805      68   17826   17817      68   17838   17829      68   17850   17841
      68   17862   17853      68   17874   17865      68   17886   17877      68
   17898   17889      68   17910   17901      68   17922   17913      68   17934
   17925      68   17946   17937      68   17958   17949      68   17970   17961
      68   17982   17973      68   17994   17985      68   18006   17997      68
   18018   18009      68   18030   18021      68   18042   18033      68   18054
   18045      68   18066   18057      68   18078   18069      68   18090   18081
      68   18102   18093      68   18114   18105      68   18126   18117      68
   18138   18129      68   18150   18141      68   18162   18153      68   18174
   18165      68   18186   18177      68   18198   18189      68   18210   18201
      68   18222   18213      68   18234   18225      68   18246   18237      68
   18258   18249      68   18270   18261      68   18282   18273      68   18294
   18285      68   18306   18297      68   18318   18309      68   18330   18321
      68   18342   18333      68   18354   18345      68   18366   18357      68
   18378   18369      68   18390   18381      68   18402   18393      68   18414
   18405      68   18426   18417      68   18438   18429      68   18450   18441
      68   18462   18453      68   18474   18465      68   18486   18477      68
   18498   18489      68   18510   18501      68   18522   18513      68   18534
   18525      68   18546   18537      68   18558   18549      68   18570   18561
      68   18582   18573      68   18594   18585      68   18606   18597      68
   18618   18609      68   18630   18621      68   18642   18633      68   18654
   18645      68   18666   18657      68   18678   18669      68   18690   18681
      68   18702   18693      68   18714   18705      68   18726   18717      68
   18738   18729      68   18750   18741      68   18762   18753      68   18774
   18765      68   18786   18777      68   18798   18789      68   18810   18801
      68   18822   18813      68   18834   18825      68   18846   18837      68
   18858   18849      68   18870   18861      68   18882   18873      68   18894
   18885      68   18906   18897      68   18918   18909      68   18930   18921
      68   18942   18933      68   18954   18945      68   18966   18957      68
   18978   18969      68   18990   18981      68   19002   18993      68   19014
   19005      68   19026   19017      68   19038   19029      68   19050   19041
      68   19062   19053      68   19074   19065      68   19086   19077      68
   19098   19089      68   19110   19101      68   19122   19113      68   19134
   19125      68   19146   19137      68   19158   19149      68   19170   19161
      68   19182   19173      68   19194   19185      68   19206   19197      68
   19218   19209      68   19230   19221      68   19242   19233      68   19254
   19245      68   19266   19257      68   19278   19269      68   19290   19281
      68   19302   19293      68   19314   19305      68   19326   19317      68
   19338   19329      68   19350   19341      68   19362   19353      68   19374
   19365      68   19386   19377      68   19398   19389      68   19410   19401
      68   19422   19413      68   19434   19425      68   19446   19437      68
   19458   19449      68   19470   19461      68   19482   19473      68   19494
   19485      68   19506   19497      68   19518   19509      68   19530   19521
      68   19542   19533      68   19554   19545      68   19566   19557      68
   19578   19569      68   19590   19581      68   19602   19593      68   19614
   19605      68   19626   19617      68   19638   19629      68   19650   19641
      68   19662   19653      68   19674   19665      68   19686   19677      68
   19698   19689      68   19710   19701      68   19722   19713      68   19734
   19725      68   19746   19737      68   19758   19749      68   19770   19761
      68   19782   19773      68   19794   19785      68   19806   19797      68
   19818   19809      68   19830   19821      68   19842   19833      68   19854
   19845      68   19866   19857      68   19878   19869      68   19890   19881
      68   19902   19893      68   19914   19905      68   19926   19917      68
   19938   19929      68   19950   19941      68   19962   19953      68   19974
   19965      68   19986   19977      68   19998   19989      68   20010   20001
      68   20022   20013      68   20034   20025      68   20046   20037      68
   20058   20049      68   20070   20061      68   20082   20073      68   20094
   20085      68   20106   20097      68   20118   20109      68   20130   20121
      68   20142   20133      68   20154   20145      68   20166   20157      68
   20178   20169      68   20190   20181      68   20202   20193      68   20214
   20205      68   20226   20217      68   20238   20229      68   20250   20241
      68   20262   20253      68   20274   20265      68   20286   20277      68
   20298   20289      68   20310   20301      68   20322   20313      68   20334
   20325      68   20346   20337      68   20358   20349      68   20370   20361
      68   20382   20373      68   20394   20385      68   20406   20397      68
   20418   20409      68   20430   20421      68   20442   20433      68   20454
   20445      68   20466   20457      68   20478   20469      68   20490   20481
      68   20502   20493      68   20514   20505      68   20526   20517      68
   20538   20529      68   20550   20541      68   20562   20553      68   20574
   20565      68   20586   20577      68   20598   20589      68   20610   20601
      68   20622   20613      68   20634   20625      68   20646   20637      68
   20658   20649      68   20670   20661      68   20682   20673      68   20694
   20685      68   20706   20697      68   20718   20709      68   20730   20721
      68   20742   20733      68   20754   20745      68   20766   20757      68
   20778   20769      68   20790   20781      68   20802   20793      68   20814
   20805      68   20826   20817      68   20838   20829      68   20850   20841
      68   20862   20853      68   20874   20865      68   20886   20877      68
   20898   20889      68   20910   20901      68   20922   20913      68   20934
   20925      68   20946   20937      68   20958   20949      68   20970   20961
      68   20982   20973      68   20994   20985      68   21006   20997      68
   21018   21009      68   21030   21021      68   21042   21033      68   21054
   21045      68   21066   21057      68   21078   21069      68   21090   21081
      68   21102   21093      68   21114   21105      68   21126   21117      68
   21138   21129      68   21150   21141      68   21162   21153      68   21174
   21165      68   21186   21177      68   21198   21189      68   21210   21201
      68   21222   21213      68   21234   21225      68   21246   21237      68
   21258   21249      68   21270   21261      68   21282   21273      68   21294
   21285      68   21306   21297      68   21318   21309      68   21330   21321
      68   21342   21333      68   21354   21345      68   21366   21357      68
   21378   21369      68   21390   21381      68   21402   21393      68   21414
   21405      68   21426   21417      68   21438   21429      68   21450   21441
      68   21462   21453      68   21474   21465      68   21486   21477      68
   21498   21489      68   21510   21501      68   21522   21513      68   21534
   21525      68   21546   21537      68   21558   21549      68   21570   21561
      68   21582   21573      68   21594   21585      68   21606   21597      68
   21618   21609      68   21630   21621      68   21642   21633      68   21654
   21645      68   21666   21657      68   21678   21669      68   21690   21681
      68   21702   21693      68   21714   21705      68   21726   21717      68
   21738   21729      68   21750   21741      68   21762   21753      68   21774
   21765      68   21786   21777      68   21798   21789      68   21810   21801
      68   21822   21813      68   21834   21825      68   21846   21837      68
   21858   21849      68   21870   21861      68   21882   21873      68   21894
   21885      68   21906   21897      68   21918   21909      68   21930   21921
      68   21942   21933      68   21954   21945      68   21966   21957      68
   21978   21969      68   21990   21981      68   22002   21993      68   22014
   22005      68   22026   22017      68   22038   22029      68   22050   22041
      68   22062   22053      68   22074   22065      68   22086   22077      68
   22098   22089      68   22110   22101      68   22122   22113      68   22134
   22125      68   22146   22137      68   22158   22149      68   22170   22161
      68   22182   22173      68   22194   22185      68   22206   22197      68
   22218   22209      68   22230   22221      68   22242   22233      68   22254
   22245      68   22266   22257      68   22278   22269      68   22290   22281
      68   22302   22293      68   22314   22305      68   22326   22317      68
   22338   22329      68   22350   22341      68   22362   22353      68   22374
   22365      68   22386   22377      68   22398   22389      68   22410   22401
      68   22422   22413      68   22434   22425      68   22446   22437      68
   22458   22449      68   22470   22461      68   22482   22473      68   22494
   22485      68   22506   22497      68   22518   22509      68   22530   22521
      68   22542   22533      68   22554   22545      68   22566   22557      68
   22578   22569      68   22590   22581      68   22602   22593      68   22614
   22605      68   22626   22617      68   22638   22629      68   22650   22641
      68   22662   22653      68   22674   22665      68   22686   22677      68
   22698   22689      68   22710   22701      68   22722   22713      68   22734
   22725      68   22746   22737      68   22758   22749      68   22770   22761
      68   22782   22773      68   22794   22785      68   22806   22797      68
   22818   22809      68   22830   22821      68   22842   22833      68   22854
   22845      68   22866   22857      68   22878   22869      68   22890   22881
      68   22902   22893      68   22914   22905      68   22926   22917      68
   22938   22929      68   22950   22941      68   22962   22953      68   22974
   22965      68   22986   22977      68   22998   22989      68   23010   23001
      68   23022   23013      68   23034   23025      68   23046   23037      68
   23058   23049      68   23070   23061      68   23082   23073      68   23094
   23085      68   23106   23097      68   23118   23109      68   23130   23121
      68   23142   23133      68   23154   23145      68   23166   23157      68
   23178   23169      68   23190   23181      68   23202   23193      68   23214
   23205      68   23226   23217      68   23238   23229      68   23250   23241
      68   23262   23253      68   23274   23265      68   23286   23277      68
   23298   23289      68   23310   23301      68   23322   23313      68   23334
   23325      68   23346   23337      68   23358   23349      68   23370   23361
      68   23382   23373      68   23394   23385      68   23406   23397      68
   23418   23409      68   23430   23421      68   23442   23433      68   23454
   23445      68   23466   23457      68   23478   23469      68   23490   23481
      68   23502   23493      68   23514   23505      68   23526   23517      68
   23538   23529      68   23550   23541      68   23562   23553      68   23574
   23565      68   23586   23577      68   23598   23589      68   23610   23601
      68   23622   23613      68   23634   23625      68   23646   23637      68
   23658   23649      68   23670   23661      68   23682   23673      68   23694
   23685      68   23706   23697      68   23718   23709      68   23730   23721
      68   23742   23733      68   23754   23745      68   23766   23757      68
   23778   23769      68   23790   23781      68   23802   23793      68   23814
   23805      68   23826   23817      68   23838   23829      68   23850   23841
      68   23862   23853      68   23874   23865      68   23886   23877      68
   23898   23889      68   23910   23901      68   23922   23913      68   23934
   23925      68   23946   23937      68   23958   23949      68   23970   23961
      68   23982   23973      68   23994   23985      68   24006   23997      68
   24018   24009      68   24030   24021      68   24042   24033      68   24054
   24045      68   24066   24057      68   24078   24069      68   24090   24081
      68   24102   24093      68   24114   24105      68   24126   24117      68
   24138   24129      68   24150   24141      68   24162   24153      68   24174
   24165      68   24186   24177      68   24198   24189      68   24210   24201
      68   24222   24213      68   24234   24225      68   24246   24237      68
   24258   24249      68   24270   24261      68   24282   24273      68   24294
   24285      68   24306   24297      68   24318   24309      68   24330   24321
      68   24342   24333      68   24354   24345      68   24366   24357      68
   24378   24369      68   24390   24381      68   24402   24393      68   24414
   24405      68   24426   24417      68   24438   24429      68   24450   24441
      68   24462   24453      68   24474   24465      68   24486   24477      68
   24498   24489      68   24510   24501      68   24522   24513      68   24534
   24525      68   24546   24537      68   24558   24549      68   24570   24561
      68   24582   24573      68   24594   24585      68   24606   24597      68
   24618   24609      68   24630   24621      68   24642   24633      68   24654
   24645      68   24666   24657      68   24678   24669      68   24690   24681
      68   24702   24693      68   24714   24705      68   24726   24717      68
   24738   24729      68   24750   24741      68   24762   24753      68   24774
   24765      68   24786   24777      68   24798   24789      68   24810   24801
      68   24822   24813      68   24834   24825      68   24846   24837      68
   24858   24849      68   24870   24861      68   24882   24873      68   24894
   24885      68   24906   24897      68   24918   24909      68   24930   24921
      68   24942   24933      68   24954   24945      68   24966   24957      68
   24978   24969      68   24990   24981      68   25002   24993      68   25014
   25005      68   25026   25017      68   25038   25029      68   25050   25041
      68   25062   25053      68   25074   25065      68   25086   25077      68
   25098   25089      68   25110   25101      68   25122   25113      68   25134
   25125      68   25146   25137      68   25158   25149      68   25170   25161
      68   25182   25173      68   25194   25185      68   25206   25197      68
   25218   25209      68   25230   25221      68   25242   25233      68   25254
   25245      68   25266   25257      68   25278   25269      68   25290   25281
      68   25302   25293      68   25314   25305      68   25326   25317      68
   25338   25329      68   25350   25341      68   25362   25353      68   25374
   25365      68   25386   25377      68   25398   25389      68   25410   25401
      68   25422   25413      68   25434   25425      68   25446   25437      68
   25458   25449      68   25470   25461      68   25482   25473      68   25494
   25485      68   25506   25497      68   25518   25509      68   25530   25521
      68   25542   25533      68   25554   25545      68   25566   25557      68
   25578   25569      68   25590   25581      68   25602   25593      68   25614
   25605      68   25626   25617      68   25638   25629      68   25650   25641
      68   25662   25653      68   25674   25665      68   25686   25677      68
   25698   25689      68   25710   25701      68   25722   25713      68   25734
   25725      68   25746   25737      68   25758   25749      68   25770   25761
      68   25782   25773      68   25794   25785      68   25806   25797      68
   25818   25809      68   25830   25821      68   25842   25833      68   25854
   25845      68   25866   25857      68   25878   25869      68   25890   25881
      68   25902   25893      68   25914   25905      68   25926   25917      68
   25938   25929      68   25950   25941      68   25962   25953      68   25974
   25965      68   25986   25977      68   25998   25989      68   26010   26001
      68   26022   26013      68   26034   26025      68   26046   26037      68
   26058   26049      68   26070   26061      68   26082   26073      68   26094
   26085      68   26106   26097      68   26118   26109      68   26130   26121
      68   26142   26133      68   26154   26145      68   26166   26157      68
   26178   26169      68   26190   26181      68   26202   26193      68   26214
   26205      68   26226   26217      68   26238   26229      68   26250   26241
      68   26262   26253      68   26274   26265      68   26286   26277      68
   26298   26289      68   26310   26301      68   26322   26313      68   26334
   26325      68   26346   26337      68   26358   26349      68   26370   26361
      68   26382   26373      68   26394   26385      68   26406   26397      68
   26418   26409      68   26430   26421      68   26442   26433      68   26454
   26445      68   26466   26457      68   26478   26469      68   26490   26481
      68   26502   26493      68   26514   26505      68   26526   26517      68
   26538   26529      68   26550   26541      68   26562   26553      68   26574
   26565      68   26586   26577      68   26598   26589      68   26610   26601
      68   26622   26613      68   26634   26625      68   26646   26637      68
   26658   26649      68   26670   26661      68   26682   26673      68   26694
   26685      68   26706   26697      68   26718   26709      68   26730   26721
      68   26742   26733      68   26754   26745      68   26766   26757      68
   26778   26769      68   26790   26781      68   26802   26793      68   26814
   26805      68   26826   26817      68   26838   26829      68   26850   26841
      68   26862   26853      68   26874   26865      68   26886   26877      68
   26898   26889      68   26910   26901      68   26922   26913      68   26934
   26925      68   26946   26937      68   26958   26949      68   26970   26961
      68   26982   26973      68   26994   26985      68   27006   26997      68
   27018   27009      68   27030   27021      68   27042   27033      68   27054
   27045      68   27066   27057      68   27078   27069      68   27090   27081
      68   27102   27093      68   27114   27105      68   27126   27117      68
   27138   27129      68   27150   27141      68   27162   27153      68   27174
   27165      68   27186   27177      68   27198   27189      68   27210   27201
      68   27222   27213      68   27234   27225      68   27246   27237      68
   27258   27249      68   27270   27261      68   27282   27273      68   27294
   27285      68   27306   27297      68   27318   27309      68   27330   27321
      68   27342   27333      68   27354   27345      68   27366   27357      68
   27378   27369      68   27390   27381      68   27402   27393      68   27414
   27405      68   27426   27417      68   27438   27429      68   27450   27441
      68   27462   27453      68   27474   27465      68   27486   27477      68
   27498   27489      68   27510   27501      68   27522   27513      68   27534
   27525      68   27546   27537      68   27558   27549      68   27570   27561
      68   27582   27573      68   27594   27585      68   27606   27597      68
   27618   27609      68   27630   27621      68   27642   27633      68   27654
   27645      68   27666   27657      68   27678   27669      68   27690   27681
      68   27702   27693      68   27714   27705      68   27726   27717      68
   27738   27729      68   27750   27741      68   27762   27753      68   27774
   27765      68   27786   27777      68   27798   27789      68   27810   27801
      68   27822   27813      68   27834   27825      68   27846   27837      68
   27858   27849      68   27870   27861      68   27882   27873      68   27894
   27885      68   27906   27897      68   27918   27909      68   27930   27921
      68   27942   27933      68   27954   27945      68   27966   27957      68
   27978   27969      68   27990   27981      68   28002   27993      68   28014
   28005      68   28026   28017      68   28038   28029      68   28050   28041
      68   28062   28053      68   28074   28065      68   28086   28077      68
   28098   28089      68   28110   28101      68   28122   28113      68   28134
   28125      68   28146   28137      68   28158   28149      68   28170   28161
      68   28182   28173      68   28194   28185      68   28206   28197      68
   28218   28209      68   28230   28221      68   28242   28233      68   28254
   28245      68   28266   28257      68   28278   28269      68   28290   28281
      68   28302   28293      68   28314   28305      68   28326   28317      68
   28338   28329      68   28350   28341      68   28362   28353      68   28374
   28365      68   28386   28377      68   28398   28389      68   28410   28401
      68   28422   28413      68   28434   28425      68   28446   28437      68
   28458   28449      68   28470   28461      68   28482   28473      68   28494
   28485      68   28506   28497      68   28518   28509      68   28530   28521
      68   28542   28533      68   28554   28545      68   28566   28557      68
   28578   28569      68   28590   28581      68   28602   28593      68   28614
   28605      68   28626   28617      68   28638   28629      68   28650   28641
      68   28662   28653      68   28674   28665      68   28686   28677      68
   28698   28689      68   28710   28701      68   28722   28713      68   28734
   28725      68   28746   28737      68   28758   28749      68   28770   28761
      68   28782   28773      68   28794   28785      68   28806   28797      68
   28818   28809      68   28830   28821      68   28842   28833      68   28854
   28845      68   28866   28857      68   28878   28869      68   28890   28881
      68   28902   28893      68   28914   28905      68   28926   28917      68
   28938   28929      68   28950   28941      68   28962   28953      68   28974
   28965      68   28986   28977      68   28998   28989      68   29010   29001
      68   29022   29013      68   29034   29025      68   29046   29037      68
   29058   29049      68   29070   29061      68   29082   29073      68   29094
   29085      68   29106   29097      68   29118   29109      68   29130   29121
      68   29142   29133      68   29154   29145      68   29166   29157      68
   29178   29169      68   29190   29181      68   29202   29193      68   29214
   29205      68   29226   29217      68   29238   29229      68   29250   29241
      68   29262   29253      68   29274   29265      68   29286   29277      68
   29298   29289      68   29310   29301      68   29322   29313      68   29334
   29325      68   29346   29337      68   29358   29349      68   29370   29361
      68   29382   29373      68   29394   29385      68   29406   29397      68
   29418   29409      68   29430   29421      68   29442   29433      68   29454
   29445      68   29466   29457      68   29478   29469      68   29490   29481
      68   29502   29493      68   29514   29505      68   29526   29517      68
   29538   29529      68   29550   29541      68   29562   29553      68   29574
   29565      68   29586   29577      68   29598   29589      68   29610   29601
      68   29622   29613      68   29634   29625      68   29646   29637      68
   29658   29649      68   29670   29661      68   29682   29673      68   29694
   29685      68   29706   29697      68   29718   29709      68   29730   29721
      68   29742   29733      68   29754   29745      68   29766   29757      68
   29778   29769      68   29790   29781      68   29802   29793      68   29814
   29805      68   29826   29817      68   29838   29829      68   29850   29841
      68   29862   29853      68   29874   29865      68   29886   29877      68
   29898   29889      68   29910   29901      68   29922   29913      68   29934
   29925      68   29946   29937      68   29958   29949      68   29970   29961
      68   29982   29973      68   29994   29985      68   30006   29997      68
   30018   30009      68   30030   30021      68   30042   30033      68   30054
   30045      68   30066   30057      68   30078   30069      68   30090   30081
      68   30102   30093      68   30114   30105      68   30126   30117      68
   30138   30129      68   30150   30141      68   30162   30153      68   30174
   30165      68   30186   30177      68   30198   30189      68   30210   30201
      68   30222   30213      68   30234   30225      68   30246   30237      68
   30258   30249      68   30270   30261      68   30282   30273      68   30294
   30285      68   30306   30297      68   30318   30309      68   30330   30321
      68   30342   30333      68   30354   30345      68   30366   30357      68
   30378   30369      68   30390   30381      68   30402   30393      68   30414
   30405      68   30426   30417      68   30438   30429      68   30450   30441
      68   30462   30453      68   30474   30465      68   30486   30477      68
   30498   30489      68   30510   30501      68   30522   30513      68   30534
   30525      68   30546   30537      68   30558   30549      68   30570   30561
      68   30582   30573      68   30594   30585      68   30606   30597      68
   30618   30609      68   30630   30621      68   30642   30633      68   30654
   30645      68   30666   30657      68   30678   30669      68   30690   30681
      68   30702   30693      68   30714   30705      68   30726   30717      68
   30738   30729      68   30750   30741      68   30762   30753      68   30774
   30765      68   30786   30777      68   30798   30789      68   30810   30801
      68   30822   30813      68   30834   30825      68   30846   30837      68
   30858   30849      68   30870   30861      68   30882   30873      68   30894
   30885      68   30906   30897      68   30918   30909      68   30930   30921
      68   30942   30933      68   30954   30945      68   30966   30957      68
   30978   30969      68   30990   30981      68   31002   30993      68   31014
   31005      68   31026   31017      68   31038   31029      68   31050   31041
      68   31062   31053      68   31074   31065      68   31086   31077      68
   31098   31089      68   31110   31101      68   31122   31113      68   31134
   31125      68   31146   31137      68   31158   31149      68   31170   31161
      68   31182   31173      68   31194   31185      68   31206   31197      68
   31218   31209      68   31230   31221      68   31242   31233      68   31254
   31245      68   31266   31257      68   31278   31269      68   31290   31281
      68   31302   31293      68   31314   31305      68   31326   31317      68
   31338   31329      68   31350   31341      68   31362   31353      68   31374
   31365      68   31386   31377      68   31398   31389      68   31410   31401
      68   31422   31413      68   31434   31425      68   31446   31437      68
   31458   31449      68   31470   31461      68   31482   31473      68   31494
   31485      68   31506   31497      68   31518   31509      68   31530   31521
      68   31542   31533      68   31554   31545      68   31566   31557      68
   31578   31569      68   31590   31581      68   31602   31593      68   31614
   31605      68   31626   31617      68   31638   31629      68   31650   31641
      68   31662   31653      68   31674   31665      68   31686   31677      68
   31698   31689      68   31710   31701      68   31722   31713      68   31734
   31725      68   31746   31737      68   31758   31749      68   31770   31761
      68   31782   31773      68   31794   31785      68   31806   31797      68
   31818   31809      68   31830   31821      68   31842   31833      68   31854
   31845      68   31866   31857      68   31878   31869      68   31890   31881
      68   31902   31893      68   31914   31905      68   31926   31917      68
   31938   31929      68   31950   31941      68   31962   31953      68   31974
   31965      68   31986   31977      68   31998   31989      68   32010   32001
      68   32022   32013      68   32034   32025      68   32046   32037      68
   32058   32049      68   32070   32061      68   32082   32073      68   32094
   32085      68   32106   32097      68   32118   32109      68   32130   32121
      68   32142   32133      68   32154   32145      68   32166   32157      68
   32178   32169      68   32190   32181      68   32202   32193      68   32214
   32205      68   32226   32217      68   32238   32229      68   32250   32241
      68   32262   32253      68   32274   32265      68   32286   32277      68
   32298   32289      68   32310   32301      68   32322   32313      68   32334
   32325      68   32346   32337      68   32358   32349      68   32370   32361
      68   32382   32373      68   32394   32385      68   32406   32397      68
   32418   32409      68   32430   32421      68   32442   32433      68   32454
   32445      68   32466   32457      68   32478   32469      68   32490   32481
      68   32502   32493      68   32514   32505      68   32526   32517      68
   32538   32529      68   32550   32541      68   32562   32553      68   32574
   32565      68   32586   32577      68   32598   32589      68   32610   32601
      68   32622   32613      68   32634   32625      68   32646   32637      68
   32658   32649      68   32670   32661      68   32682   32673      68   32694
   32685      68   32706   32697      68   32718   32709      68   32730   32721
      68   32742   32733      68   32754   32745      68   32766   32757      68
   32778   32769      68   32790   32781      68   32802   32793      68   32814
   32805      68   32826   32817      68   32838   32829      68   32850   32841
      68   32862   32853      68   32874   32865      68   32886   32877      68
   32898   32889      68   32910   32901      68   32922   32913      68   32934
   32925      68   32946   32937      68   32958   32949      68   32970   32961
      68   32982   32973      68   32994   32985      68   33006   32997      68
   33018   33009      68   33030   33021      68   33042   33033      68   33054
   33045      68   33066   33057      68   33078   33069      68   33090   33081
      68   33102   33093      68   33114   33105      68   33126   33117      68
   33138   33129      68   33150   33141      68   33162   33153      68   33174
   33165      68   33186   33177      68   33198   33189      68   33210   33201
      68   33222   33213      68   33234   33225      68   33246   33237      68
   33258   33249      68   33270   33261      68   33282   33273      68   33294
   33285      68   33306   33297      68   33318   33309      68   33330   33321
      68   33342   33333      68   33354   33345      68   33366   33357      68
   33378   33369      68   33390   33381      68   33402   33393      68   33414
   33405      68   33426   33417      68   33438   33429      68   33450   33441
      68   33462   33453      68   33474   33465      68   33486   33477      68
   33498   33489      68   33510   33501      68   33522   33513      68   33534
   33525      68   33546   33537      68   33558   33549      68   33570   33561
      68   33582   33573      68   33594   33585      68   33606   33597      68
   33618   33609      68   33630   33621      68   33642   33633      68   33654
   33645      68   33666   33657      68   33678   33669      68   33690   33681
      68   33702   33693      68   33714   33705      68   33726   33717      68
   33738   33729      68   33750   33741      68   33762   33753      68   33774
   33765      68   33786   33777      68   33798   33789      68   33810   33801
      68   33822   33813      68   33834   33825      68   33846   33837      68
   33858   33849      68   33870   33861      68   33882   33873      68   33894
   33885      68   33906   33897      68   33918   33909      68   33930   33921
      68   33942   33933      68   33954   33945      68   33966   33957      68
   33978   33969      68   33990   33981      68   34002   33993      68   34014
   34005      68   34026   34017      68   34038   34029      68   34050   34041
      68   34062   34053      68   34074   34065      68   34086   34077      68
   34098   34089      68   34110   34101      68   34122   34113      68   34134
   34125      68   34146   34137      68   34158   34149      68   34170   34161
      68   34182   34173      68   34194   34185      68   34206   34197      68
   34218   34209      68   34230   34221      68   34242   34233      68   34254
   34245      68   34266   34257      68   34278   34269      68   34290   34281
      68   34302   34293      68   34314   34305      68   34326   34317      68
   34338   34329      68   34350   34341      68   34362   34353      68   34374
   34365      68   34386   34377      68   34398   34389      68   34410   34401
      68   34422   34413      68   34434   34425      68   34446   34437      68
   34458   34449      68   34470   34461      68   34482   34473      68   34494
   34485      68   34506   34497      68   34518   34509      68   34530   34521
      68   34542   34533      68   34554   34545      68   34566   34557      68
   34578   34569      68   34590   34581      68   34602   34593      68   34614
   34605      68   34626   34617      68   34638   34629      68   34650   34641
      68   34662   34653      68   34674   34665      68   34686   34677      68
   34698   34689      68   34710   34701      68   34722   34713      68   34734
   34725      68   34746   34737      68   34758   34749      68   34770   34761
      68   34782   34773      68   34794   34785      68   34806   34797      68
   34818   34809      68   34830   34821      68   34842   34833      68   34854
   34845      68   34866   34857      68   34878   34869      68   34890   34881
      68   34902   34893      68   34914   34905      68   34926   34917      68
   34938   34929      68   34950   34941      68   34962   34953      68   34974
   34965      68   34986   34977      68   34998   34989      68   35010   35001
      68   35022   35013      68   35034   35025      68   35046   35037      68
   35058   35049      68   35070   35061      68   35082   35073      68   35094
   35085      68   35106   35097      68   35118   35109      68   35130   35121
      68   35142   35133      68   35154   35145      68   35166   35157      68
   35178   35169      68   35190   35181      68   35202   35193      68   35214
   35205      68   35226   35217      68   35238   35229      68   35250   35241
      68   35262   35253      68   35274   35265      68   35286   35277      68
   35298   35289      68   35310   35301      68   35322   35313      68   35334
   35325      68   35346   35337      68   35358   35349      68   35370   35361
      68   35382   35373      68   35394   35385      68   35406   35397      68
   35418   35409      68   35430   35421      68   35442   35433      68   35454
   35445      68   35466   35457      68   35478   35469      68   35490   35481
      68   35502   35493      68   35514   35505      68   35526   35517      68
   35538   35529      68   35550   35541      68   35562   35553      68   35574
   35565      68   35586   35577      68   35598   35589      68   35610   35601
      68   35622   35613      68   35634   35625      68   35646   35637      68
   35658   35649      68   35670   35661      68   35682   35673      68   35694
   35685      68   35706   35697      68   35718   35709      68   35730   35721
      68   35742   35733      68   35754   35745      68   35766   35757      68
   35778   35769      68   35790   35781      68   35802   35793      68   35814
   35805      68   35826   35817      68   35838   35829      68   35850   35841
      68   35862   35853      68   35874   35865      68   35886   35877      68
   35898   35889      68   35910   35901      68   35922   35913      68   35934
   35925      68   35946   35937      68   35958   35949      68   35970   35961
      68   35982   35973      68   35994   35985      68   36006   35997      68
   36018   36009      68   36030   36021      68   36042   36033      68   36054
   36045      68   36066   36057      68   36078   36069      68   36090   36081
      68   36102   36093      68   36114   36105      68   36126   36117      68
   36138   36129      68   36150   36141      68   36162   36153      68   36174
   36165      68   36186   36177      68   36198   36189      68   36210   36201
      68   36222   36213      68   36234   36225      68   36246   36237      68
   36258   36249      68   36270   36261      68   36282   36273      68   36294
   36285      68   36306   36297      68   36318   36309      68   36330   36321
      68   36342   36333      68   36354   36345      68   36366   36357      68
   36378   36369      68   36390   36381      68   36402   36393      68   36414
   36405      68   36426   36417      68   36438   36429      68   36450   36441
      68   36462   36453      68   36474   36465      68   36486   36477      68
   36498   36489      68   36510   36501      68   36522   36513      68   36534
   36525      68   36546   36537      68   36558   36549      68   36570   36561
      68   36582   36573      68   36594   36585      68   36606   36597      68
   36618   36609      68   36630   36621      68   36642   36633      68   36654
   36645      68   36666   36657      68   36678   36669      68   36690   36681
      68   36702   36693      68   36714   36705      68   36726   36717      68
   36738   36729      68   36750   36741      68   36762   36753      68   36774
   36765      68   36786   36777      68   36798   36789      68   36810   36801
      68   36822   36813      68   36834   36825      68   36846   36837      68
   36858   36849      68   36870   36861      68   36882   36873      68   36894
   36885      68   36906   36897      68   36918   36909      68   36930   36921
      68   36942   36933      68   36954   36945      68   36966   36957      68
   36978   36969      68   36990   36981      68   37002   36993      68   37014
   37005      68   37026   37017      68   37038   37029      68   37050   37041
      68   37062   37053      68   37074   37065      68   37086   37077      68
   37098   37089      68   37110   37101      68   37122   37113      68   37134
   37125      68   37146   37137      68   37158   37149      68   37170   37161
      68   37182   37173      68   37194   37185      68   37206   37197      68
   37218   37209      68   37230   37221      68   37242   37233      68   37254
   37245      68   37266   37257      68   37278   37269      68   37290   37281
      68   37302   37293      68   37314   37305      68   37326   37317      68
   37338   37329      68   37350   37341      68   37362   37353      68   37374
   37365      68   37386   37377      68   37398   37389      68   37410   37401
      68   37422   37413      68   37434   37425      68   37446   37437      68
   37458   37449      68   37470   37461      68   37482   37473      68   37494
   37485      68   37506   37497      68   37518   37509      68   37530   37521
      68   37542   37533      68   37554   37545      68   37566   37557      68
   37578   37569      68   37590   37581      68   37602   37593      68   37614
   37605      68   37626   37617      68   37638   37629      68   37650   37641
      68   37662   37653      68   37674   37665      68   37686   37677      68
   37698   37689      68   37710   37701      68   37722   37713      68   37734
   37725      68   37746   37737      68   37758   37749      68   37770   37761
      68   37782   37773      68   37794   37785      68   37806   37797      68
   37818   37809      68   37830   37821      68   37842   37833      68   37854
   37845      68   37866   37857      68   37878   37869      68   37890   37881
      68   37902   37893      68   37914   37905      68   37926   37917      68
   37938   37929      68   37950   37941      68   37962   37953      68   37974
   37965      68   37986   37977      68   37998   37989      68   38010   38001
      68   38022   38013      68   38034   38025      68   38046   38037      68
   38058   38049      68   38070   38061      68   38082   38073      68   38094
   38085      68   38106   38097      68   38118   38109      68   38130   38121
      68   38142   38133      68   38154   38145      68   38166   38157      68
   38178   38169      68   38190   38181      68   38202   38193      68   38214
   38205      68   38226   38217      68   38238   38229      68   38250   38241
      68   38262   38253      68   38274   38265      68   38286   38277      68
   38298   38289      68   38310   38301      68   38322   38313      68   38334
   38325      68   38346   38337      68   38358   38349      68   38370   38361
      68   38382   38373      68   38394   38385      68   38406   38397      68
   38418   38409      68   38430   38421      68   38442   38433      68   38454
   38445      68   38466   38457      68   38478   38469      68   38490   38481
      68   38502   38493      68   38514   38505      68   38526   38517      68
   38538   38529      68   38550   38541      68   38562   38553      68   38574
   38565      68   38586   38577      68   38598   38589      68   38610   38601
      68   38622   38613      68   38634   38625      68   38646   38637      68
   38658   38649      68   38670   38661      68   38682   38673      68   38694
   38685      68   38706   38697      68   38718   38709      68   38730   38721
      68   38742   38733      68   38754   38745      68   38766   38757      68
   38778   38769      68   38790   38781      68   38802   38793      68   38814
   38805      68   38826   38817      68   38838   38829      68   38850   38841
      68   38862   38853      68   38874   38865      68   38886   38877      68
   38898   38889      68   38910   38901      68   38922   38913      68   38934
   38925      68   38946   38937      68   38958   38949      68   38970   38961
      68   38982   38973      68   38994   38985      68   39006   38997      68
   39018   39009      68   39030   39021      68   39042   39033      68   39054
   39045      68   39066   39057      68   39078   39069      68   39090   39081
      68   39102   39093      68   39114   39105      68   39126   39117      68
   39138   39129      68   39150   39141      68   39162   39153      68   39174
   39165      68   39186   39177      68   39198   39189      68   39210   39201
      68   39222   39213      68   39234   39225      68   39246   39237      68
   39258   39249      68   39270   39261      68   39282   39273      68   39294
   39285      68   39306   39297      68   39318   39309      68   39330   39321
      68   39342   39333      68   39354   39345      68   39366   39357      68
   39378   39369      68   39390   39381      68   39402   39393      68   39414
   39405      68   39426   39417      68   39438   39429      68   39450   39441
      68   39462   39453      68   39474   39465      68   39486   39477      68
   39498   39489      68   39510   39501      68   39522   39513      68   39534
   39525      68   39546   39537      68   39558   39549      68   39570   39561
      68   39582   39573      68   39594   39585      68   39606   39597      68
   39618   39609      68   39630   39621      68   39642   39633      68   39654
   39645      68   39666   39657      68   39678   39669      68   39690   39681
      68   39702   39693      68   39714   39705      68   39726   39717      68
   39738   39729      68   39750   39741      68   39762   39753      68   39774
   39765      68   39786   39777      68   39798   39789      68   39810   39801
      68   39822   39813      68   39834   39825      68   39846   39837      68
   39858   39849      68   39870   39861      68   39882   39873      68   39894
   39885      68   39906   39897      68   39918   39909      68   39930   39921
      68   39942   39933      68   39954   39945      68   39966   39957      68
   39978   39969      68   39990   39981      68   40002   39993      68   40014
   40005      68   40026   40017      68   40038   40029      68   40050   40041
      68   40062   40053      68   40074   40065      68   40086   40077      68
   40098   40089      68   40110   40101      68   40122   40113      68   40134
   40125      68   40146   40137      68   40158   40149      68   40170   40161
      68   40182   40173      68   40194   40185      68   40206   40197      68
   40218   40209      68   40230   40221      68   40242   40233      68   40254
   40245      68   40266   40257      68   40278   40269      68   40290   40281
      68   40302   40293      68   40314   40305      68   40326   40317      68
   40338   40329      68   40350   40341      68   40362   40353      68   40374
   40365      68   40386   40377      68   40398   40389      68   40410   40401
      68   40422   40413      68   40434   40425      68   40446   40437      68
   40458   40449      68   40470   40461      68   40482   40473      68   40494
   40485      68   40506   40497      68   40518   40509      68   40530   40521
      68   40542   40533      68   40554   40545      68   40566   40557      68
   40578   40569      68   40590   40581      68   40602   40593      68   40614
   40605      68   40626   40617      68   40638   40629      68   40650   40641
      68   40662   40653      68   40674   40665      68   40686   40677      68
   40698   40689      68   40710   40701      68   40722   40713      68   40734
   40725      68   40746   40737      68   40758   40749      68   40770   40761
      68   40782   40773      68   40794   40785      68   40806   40797      68
   40818   40809      68   40830   40821      68   40842   40833      68   40854
   40845      68   40866   40857      68   40878   40869      68   40890   40881
      68   40902   40893      68   40914   40905      68   40926   40917      68
   40938   40929      68   40950   40941      68   40962   40953      68   40974
   40965      68   40986   40977      68   40998   40989      68   41010   41001
      68   41022   41013      68   41034   41025      68   41046   41037      68
   41058   41049      68   41070   41061      68   41082   41073      68   41094
   41085      68   41106   41097      68   41118   41109      68   41130   41121
      68   41142   41133      68   41154   41145      68   41166   41157      68
   41178   41169      68   41190   41181      68   41202   41193      68   41214
   41205      68   41226   41217      68   41238   41229      68   41250   41241
      68   41262   41253      68   41274   41265      68   41286   41277      68
   41298   41289      68   41310   41301      68   41322   41313      68   41334
   41325      68   41346   41337      68   41358   41349      68   41370   41361
      68   41382   41373      68   41394   41385      68   41406   41397      68
   41418   41409      68   41430   41421      68   41442   41433      68   41454
   41445      68   41466   41457      68   41478   41469      68   41490   41481
      68   41502   41493      68   41514   41505      68   41526   41517      68
   41538   41529      68   41550   41541      68   41562   41553      68   41574
   41565      68   41586   41577      68   41598   41589      68   41610   41601
      68   41622   41613      68   41634   41625      68   41646   41637      68
   41658   41649      68   41670   41661      68   41682   41673      68   41694
   41685      68   41706   41697      68   41718   41709      68   41730   41721
      68   41742   41733      68   41754   41745      68   41766   41757      68
   41778   41769      68   41790   41781      68   41802   41793      68   41814
   41805      68   41826   41817      68   41838   41829      68   41850   41841
      68   41862   41853      68   41874   41865      68   41886   41877      68
   41898   41889      68   41910   41901      68   41922   41913      68   41934
   41925      68   41946   41937      68   41958   41949      68   41970   41961
      68   41982   41973      68   41994   41985      68   42006   41997      68
   42018   42009      68   42030   42021      68   42042   42033      68   42054
   42045      68   42066   42057      68   42078   42069      68   42090   42081
      68   42102   42093      68   42114   42105      68   42126   42117      68
   42138   42129      68   42150   42141      68   42162   42153      68   42174
   42165      68   42186   42177      68   42198   42189      68   42210   42201
      68   42222   42213      68   42234   42225      68   42246   42237      68
   42258   42249      68   42270   42261      68   42282   42273      68   42294
   42285      68   42306   42297      68   42318   42309      68   42330   42321
      68   42342   42333      68   42354   42345      68   42366   42357      68
   42378   42369      68   42390   42381      68   42402   42393      68   42414
   42405      68   42426   42417      68   42438   42429      68   42450   42441
      68   42462   42453      68   42474   42465      68   42486   42477      68
   42498   42489      68   42510   42501      68   42522   42513      68   42534
   42525      68   42546   42537      68   42558   42549      68   42570   42561
      68   42582   42573      68   42594   42585      68   42606   42597      68
   42618   42609      68   42630   42621      68   42642   42633      68   42654
   42645      68   42666   42657      68   42678   42669      68   42690   42681
      68   42702   42693      68   42714   42705      68   42726   42717      68
   42738   42729      68   42750   42741      68   42762   42753      68   42774
   42765      68   42786   42777      68   42798   42789      68   42810   42801
      68   42822   42813      68   42834   42825      68   42846   42837      68
   42858   42849      68   42870   42861      68   42882   42873      68   42894
   42885      68   42906   42897      68   42918   42909      68   42930   42921
      68   42942   42933      68   42954   42945      68   42966   42957      68
   42978   42969      68   42990   42981      68   43002   42993      68   43014
   43005      68   43026   43017      68   43038   43029      68   43050   43041
      68   43062   43053      68   43074   43065      68   43086   43077      68
   43098   43089      68   43110   43101      68   43122   43113      68   43134
   43125      68   43146   43137      68   43158   43149      68   43170   43161
      68   43182   43173      68   43194   43185      68   43206   43197      68
   43218   43209      68   43230   43221      68   43242   43233      68   43254
   43245      68   43266   43257      68   43278   43269      68   43290   43281
      68   43302   43293      68   43314   43305      68   43326   43317      68
   43338   43329      68   43350   43341      68   43362   43353      68   43374
   43365      68   43386   43377      68   43398   43389      68   43410   43401
      68   43422   43413      68   43434   43425      68   43446   43437      68
   43458   43449      68   43470   43461      68   43482   43473      68   43494
   43485      68   43506   43497      68   43518   43509      68   43530   43521
      68   43542   43533      68   43554   43545      68   43566   43557      68
   43578   43569      68   43590   43581      68   43602   43593      68   43614
   43605      68   43626   43617      68   43638   43629      68   43650   43641
      68   43662   43653      68   43674   43665      68   43686   43677      68
   43698   43689      68   43710   43701      68   43722   43713      68   43734
   43725      68   43746   43737      68   43758   43749      68   43770   43761
      68   43782   43773      68   43794   43785      68   43806   43797      68
   43818   43809      68   43830   43821      68   43842   43833      68   43854
   43845      68   43866   43857      68   43878   43869      68   43890   43881
      68   43902   43893      68   43914   43905      68   43926   43917      68
   43938   43929      68   43950   43941      68   43962   43953      68   43974
   43965      68   43986   43977      68   43998   43989      68   44010   44001
      68   44022   44013      68   44034   44025      68   44046   44037      68
   44058   44049      68   44070   44061      68   44082   44073      68   44094
   44085      68   44106   44097      68   44118   44109      68   44130   44121
      68   44142   44133      68   44154   44145      68   44166   44157      68
   44178   44169      68   44190   44181      68   44202   44193      68   44214
   44205      68   44226   44217      68   44238   44229      68   44250   44241
      68   44262   44253      68   44274   44265      68   44286   44277      68
   44298   44289      68   44310   44301      68   44322   44313      68   44334
   44325      68   44346   44337      68   44358   44349      68   44370   44361
      68   44382   44373      68   44394   44385      68   44406   44397      68
   44418   44409      68   44430   44421      68   44442   44433      68   44454
   44445      68   44466   44457      68   44478   44469      68   44490   44481
      68   44502   44493      68   44514   44505      68   44526   44517      68
   44538   44529      68   44550   44541      68   44562   44553      68   44574
   44565      68   44586   44577      68   44598   44589      68   44610   44601
      68   44622   44613      68   44634   44625      68   44646   44637      68
   44658   44649      68   44670   44661      68   44682   44673      68   44694
   44685      68   44706   44697      68   44718   44709      68   44730   44721
      68   44742   44733      68   44754   44745      68   44766   44757      68
   44778   44769      68   44790   44781      68   44802   44793      68   44814
   44805      68   44826   44817      68   44838   44829      68   44850   44841
      68   44862   44853      68   44874   44865      68   44886   44877      68
   44898   44889      68   44910   44901      68   44922   44913      68   44934
   44925      68   44946   44937      68   44958   44949      68   44970   44961
      68   44982   44973      68   44994   44985      68   45006   44997      68
   45018   45009      68   45030   45021      68   45042   45033      68   45054
   45045      68   45066   45057      68   45078   45069      68   45090   45081
      68   45102   45093      68   45114   45105      68   45126   45117      68
   45138   45129      68   45150   45141      68   45162   45153      68   45174
   45165      68   45186   45177      68   45198   45189      68   45210   45201
      68   45222   45213      68   45234   45225      68   45246   45237      68
   45258   45249      68   45270   45261      68   45282   45273      68   45294
   45285      68   45306   45297      68   45318   45309      68   45330   45321
      68   45342   45333      68   45354   45345      68   45366   45357      68
   45378   45369      68   45390   45381      68   45402   45393      68   45414
   45405      68   45426   45417      68   45438   45429      68   45450   45441
      68   45462   45453      68   45474   45465      68   45486   45477      68
   45498   45489      68   45510   45501      68   45522   45513      68   45534
   45525      68   45546   45537      68   45558   45549      68   45570   45561
      68   45582   45573      68   45594   45585      68   45606   45597      68
   45618   45609      68   45630   45621      68   45642   45633      68   45654
   45645      68   45666   45657      68   45678   45669      68   45690   45681
      68   45702   45693      68   45714   45705      68   45726   45717      68
   45738   45729      68   45750   45741      68   45762   45753      68   45774
   45765      68   45786   45777      68   45798   45789      68   45810   45801
      68   45822   45813      68   45834   45825      68   45846   45837      68
   45858   45849      68   45870   45861      68   45882   45873      68   45894
   45885      68   45906   45897      68   45918   45909      68   45930   45921
      68   45942   45933      68   45954   45945      68   45966   45957      68
   45978   45969      68   45990   45981      68   46002   45993      68   46014
   46005      68   46026   46017      68   46038   46029      68   46050   46041
      68   46062   46053      68   46074   46065      68   46086   46077      68
   46098   46089      68   46110   46101      68   46122   46113      68   46134
   46125      68   46146   46137      68   46158   46149      68   46170   46161
      68   46182   46173      68   46194   46185      68   46206   46197      68
   46218   46209      68   46230   46221      68   46242   46233      68   46254
   46245      68   46266   46257      68   46278   46269      68   46290   46281
      68   46302   46293      68   46314   46305      68   46326   46317      68
   46338   46329      68   46350   46341      68   46362   46353      68   46374
   46365      68   46386   46377      68   46398   46389      68   46410   46401
      68   46422   46413      68   46434   46425      68   46446   46437      68
   46458   46449      68   46470   46461      68   46482   46473      68   46494
   46485      68   46506   46497      68   46518   46509      68   46530   46521
      68   46542   46533      68   46554   46545      68   46566   46557      68
   46578   46569      68   46590   46581      68   46602   46593      68   46614
   46605      68   46626   46617      68   46638   46629      68   46650   46641
      68   46662   46653      68   46674   46665      68   46686   46677      68
   46698   46689      68   46710   46701      68   46722   46713      68   46734
   46725      68   46746   46737      68   46758   46749      68   46770   46761
      68   46782   46773      68   46794   46785      68   46806   46797      68
   46818   46809      68   46830   46821      68   46842   46833      68   46854
   46845      68   46866   46857      68   46878   46869      68   46890   46881
      68   46902   46893      68   46914   46905      68   46926   46917      68
   46938   46929      68   46950   46941      68   46962   46953      68   46974
   46965      68   46986   46977      68   46998   46989      68   47010   47001
      68   47022   47013      68   47034   47025      68   47046   47037      68
   47058   47049      68   47070   47061      68   47082   47073      68   47094
   47085      68   47106   47097      68   47118   47109      68   47130   47121
      68   47142   47133      68   47154   47145      68   47166   47157      68
   47178   47169      68   47190   47181      68   47202   47193      68   47214
   47205      68   47226   47217      68   47238   47229      68   47250   47241
      68   47262   47253      68   47274   47265      68   47286   47277      68
   47298   47289      68   47310   47301      68   47322   47313      68   47334
   47325      68   47346   47337      68   47358   47349      68   47370   47361
      68   47382   47373      68   47394   47385      68   47406   47397      68
   47418   47409      68   47430   47421      68   47442   47433      68   47454
   47445      68   47466   47457      68   47478   47469      68   47490   47481
      68   47502   47493      68   47514   47505      68   47526   47517      68
   47538   47529      68   47550   47541      68   47562   47553      68   47574
   47565      68   47586   47577      68   47598   47589      68   47610   47601
      68   47622   47613      68   47634   47625      68   47646   47637      68
   47658   47649      68   47670   47661      68   47682   47673      68   47694
   47685      68   47706   47697      68   47718   47709      68   47730   47721
      68   47742   47733      68   47754   47745      68   47766   47757      68
   47778   47769      68   47790   47781      68   47802   47793      68   47814
   47805      68   47826   47817      68   47838   47829      68   47850   47841
      68   47862   47853      68   47874   47865      68   47886   47877      68
   47898   47889      68   47910   47901      68   47922   47913      68   47934
   47925      68   47946   47937      68   47958   47949      68   47970   47961
      68   47982   47973      68   47994   47985      68   48006   47997      68
   48018   48009      68   48030   48021      68   48042   48033      68   48054
   48045      68   48066   48057      68   48078   48069      68   48090   48081
      68   48102   48093      68   48114   48105      68   48126   48117      68
   48138   48129      68   48150   48141      68   48162   48153      68   48174
   48165      68   48186   48177      68   48198   48189      68   48210   48201
      68   48222   48213      68   48234   48225      68   48246   48237      68
   48258   48249      68   48270   48261      68   48282   48273      68   48294
   48285      68   48306   48297      68   48318   48309      68   48330   48321
      68   48342   48333      68   48354   48345      68   48366   48357      68
   48378   48369      68   48390   48381      68   48402   48393      68   48414
   48405      68   48426   48417      68   48438   48429      68   48450   48441
      68   48462   48453      68   48474   48465      68   48486   48477      68
   48498   48489      68   48510   48501      68   48522   48513      68   48534
   48525      68   48546   48537      68   48558   48549      68   48570   48561
      68   48582   48573      68   48594   48585      68   48606   48597      68
   48618   48609      68   48630   48621      68   48642   48633      68   48654
   48645      68   48666   48657      68   48678   48669      68   48690   48681
      68   48702   48693      68   48714   48705      68   48726   48717      68
   48738   48729      68   48750   48741      68   48762   48753      68   48774
   48765      68   48786   48777      68   48798   48789      68   48810   48801
      68   48822   48813      68   48834   48825      68   48846   48837      68
   48858   48849      68   48870   48861      68   48882   48873      68   48894
   48885      68   48906   48897      68   48918   48909      68   48930   48921
      68   48942   48933      68   48954   48945      68   48966   48957      68
   48978   48969      68   48990   48981      68   49002   48993      68   49014
   49005      68   49026   49017      68   49038   49029      68   49050   49041
      68   49062   49053      68   49074   49065      68   49086   49077      68
   49098   49089      68   49110   49101      68   49122   49113      68   49134
   49125      68   49146   49137      68   49158   49149      68   49170   49161
      68   49182   49173      68   49194   49185      68   49206   49197      68
   49218   49209      68   49230   49221      68   49242   49233      68   49254
   49245      68   49266   49257      68   49278   49269      68   49290   49281
      68   49302   49293      68   49314   49305      68   49326   49317      68
   49338   49329      68   49350   49341      68   49362   49353      68   49374
   49365      68   49386   49377      68   49398   49389      68   49410   49401
      68   49422   49413      68   49434   49425      68   49446   49437      68
   49458   49449      68   49470   49461      68   49482   49473      68   49494
   49485      68   49506   49497      68   49518   49509      68   49530   49521
      68   49542   49533      68   49554   49545      68   49566   49557      68
   49578   49569      68   49590   49581      68   49602   49593      68   49614
   49605      68   49626   49617      68   49638   49629      68   49650   49641
      68   49662   49653      68   49674   49665      68   49686   49677      68
   49698   49689      68   49710   49701      68   49722   49713      68   49734
   49725      68   49746   49737      68   49758   49749      68   49770   49761
      68   49782   49773      68   49794   49785      68   49806   49797      68
   49818   49809      68   49830   49821      68   49842   49833      68   49854
   49845      68   49866   49857      68   49878   49869      68   49890   49881
      68   49902   49893      68   49914   49905      68   49926   49917      68
   49938   49929      68   49950   49941      68   49962   49953      68   49974
   49965      68   49986   49977      68   49998   49989      68   50010   50001
      68   50022   50013      68   50034   50025      68   50046   50037      68
   50058   50049      68   50070   50061      68   50082   50073      68   50094
   50085      68   50106   50097      68   50118   50109      68   50130   50121
      68   50142   50133      68   50154   50145      68   50166   50157      68
   50178   50169      68   50190   50181      68   50202   50193      68   50214
   50205      68   50226   50217      68   50238   50229      68   50250   50241
      68   50262   50253      68   50274   50265      68   50286   50277      68
   50298   50289      68   50310   50301      68   50322   50313      68   50334
   50325      68   50346   50337      68   50358   50349      68   50370   50361
      68   50382   50373      68   50394   50385      68   50406   50397      68
   50418   50409      68   50430   50421      68   50442   50433      68   50454
   50445      68   50466   50457      68   50478   50469      68   50490   50481
      68   50502   50493      68   50514   50505      68   50526   50517      68
   50538   50529      68   50550   50541      68   50562   50553      68   50574
   50565      68   50586   50577      68   50598   50589      68   50610   50601
      68   50622   50613      68   50634   50625      68   50646   50637      68
   50658   50649      68   50670   50661      68   50682   50673      68   50694
   50685      68   50706   50697      68   50718   50709      68   50730   50721
      68   50742   50733      68   50754   50745      68   50766   50757      68
   50778   50769      68   50790   50781      68   50802   50793      68   50814
   50805      68   50826   50817      68   50838   50829      68   50850   50841
      68   50862   50853      68   50874   50865      68   50886   50877      68
   50898   50889      68   50910   50901      68   50922   50913      68   50934
   50925      68   50946   50937      68   50958   50949      68   50970   50961
      68   50982   50973      68   50994   50985      68   51006   50997      68
   51018   51009      68   51030   51021      68   51042   51033      68   51054
   51045      68   51066   51057      68   51078   51069      68   51090   51081
      68   51102   51093      68   51114   51105      68   51126   51117      68
   51138   51129      68   51150   51141      68   51162   51153      68   51174
   51165      68   51186   51177      68   51198   51189      68   51210   51201
      68   51222   51213      68   51234   51225      68   51246   51237      68
   51258   51249      68   51270   51261      68   51282   51273      68   51294
   51285      68   51306   51297      68   51318   51309      68   51330   51321
      68   51342   51333      68   51354   51345      68   51366   51357      68
   51378   51369      68   51390   51381      68   51402   51393      68   51414
   51405      68   51426   51417      68   51438   51429      68   51450   51441
      68   51462   51453      68   51474   51465      68   51486   51477      68
   51498   51489      68   51510   51501      68   51522   51513      68   51534
   51525      68   51546   51537      68   51558   51549      68   51570   51561
      68   51582   51573      68   51594   51585      68   51606   51597      68
   51618   51609      68   51630   51621      68   51642   51633      68   51654
   51645      68   51666   51657      68   51678   51669      68   51690   51681
      68   51702   51693      68   51714   51705      68   51726   51717      68
   51738   51729      68   51750   51741      68   51762   51753      68   51774
   51765      68   51786   51777      68   51798   51789      68   51810   51801
      68   51822   51813      68   51834   51825      68   51846   51837      68
   51858   51849      68   51870   51861      68   51882   51873      68   51894
   51885      68   51906   51897      68   51918   51909      68   51930   51921
      68   51942   51933      68   51954   51945      68   51966   51957      68
   51978   51969      68   51990   51981      68   52002   51993      68   52014
   52005      68   52026   52017      68   52038   52029      68   52050   52041
      68   52062   52053      68   52074   52065      68   52086   52077      68
   52098   52089      68   52110   52101      68   52122   52113      68   52134
   52125      68   52146   52137      68   52158   52149      68   52170   52161
      68   52182   52173      68   52194   52185      68   52206   52197      68
   52218   52209      68   52230   52221      68   52242   52233      68   52254
   52245      68   52266   52257      68   52278   52269      68   52290   52281
      68   52302   52293      68   52314   52305      68   52326   52317      68
   52338   52329      68   52350   52341      68   52362   52353      68   52374
   52365      68   52386   52377      68   52398   52389      68   52410   52401
      68   52422   52413      68   52434   52425      68   52446   52437      68
   52458   52449      68   52470   52461      68   52482   52473      68   52494
   52485      68   52506   52497      68   52518   52509      68   52530   52521
      68   52542   52533      68   52554   52545      68   52566   52557      68
   52578   52569      68   52590   52581      68   52602   52593      68   52614
   52605      68   52626   52617      68   52638   52629      68   52650   52641
      68   52662   52653      68   52674   52665      68   52686   52677      68
   52698   52689      68   52710   52701      68   52722   52713      68   52734
   52725      68   52746   52737      68   52758   52749      68   52770   52761
      68   52782   52773      68   52794   52785      68   52806   52797      68
   52818   52809      68   52830   52821      68   52842   52833      68   52854
   52845      68   52866   52857      68   52878   52869      68   52890   52881
      68   52902   52893      68   52914   52905      68   52926   52917      68
   52938   52929      68   52950   52941      68   52962   52953      68   52974
   52965      68   52986   52977      68   52998   52989      68   53010   53001
      68   53022   53013      68   53034   53025      68   53046   53037      68
   53058   53049      68   53070   53061      68   53082   53073      68   53094
   53085      68   53106   53097      68   53118   53109      68   53130   53121
      68   53142   53133      68   53154   53145      68   53166   53157      68
   53178   53169      68   53190   53181      68   53202   53193      68   53214
   53205      68   53226   53217      68   53238   53229      68   53250   53241
      68   53262   53253      68   53274   53265      68   53286   53277      68
   53298   53289      68   53310   53301      68   53322   53313      68   53334
   53325      68   53346   53337      68   53358   53349      68   53370   53361
      68   53382   53373      68   53394   53385      68   53406   53397      68
   53418   53409      68   53430   53421      68   53442   53433      68   53454
   53445      68   53466   53457      68   53478   53469      68   53490   53481
      68   53502   53493      68   53514   53505      68   53526   53517      68
   53538   53529      68   53550   53541      68   53562   53553      68   53574
   53565      68   53586   53577      68   53598   53589      68   53610   53601
      68   53622   53613      68   53634   53625      68   53646   53637      68
   53658   53649      68   53670   53661      68   53682   53673      68   53694
   53685      68   53706   53697      68   53718   53709      68   53730   53721
      68   53742   53733      68   53754   53745      68   53766   53757      68
   53778   53769      68   53790   53781      68   53802   53793      68   53814
   53805      68   53826   53817      68   53838   53829      68   53850   53841
      68   53862   53853      68   53874   53865      68   53886   53877      68
   53898   53889      68   53910   53901      68   53922   53913      68   53934
   53925      68   53946   53937      68   53958   53949      68   53970   53961
      68   53982   53973      68   53994   53985      68   54006   53997      68
   54018   54009      68   54030   54021      68   54042   54033      68   54054
   54045      68   54066   54057      68   54078   54069      68   54090   54081
      68   54102   54093      68   54114   54105      68   54126   54117      68
   54138   54129      68   54150   54141      68   54162   54153      68   54174
   54165      68   54186   54177      68   54198   54189      68   54210   54201
      68   54222   54213      68   54234   54225      68   54246   54237      68
   54258   54249      68   54270   54261      68   54282   54273      68   54294
   54285      68   54306   54297      68   54318   54309      68   54330   54321
      68   54342   54333      68   54354   54345      68   54366   54357      68
   54378   54369      68   54390   54381      68   54402   54393      68   54414
   54405      68   54426   54417      68   54438   54429      68   54450   54441
      68   54462   54453      68   54474   54465      68   54486   54477      68
   54498   54489      68   54510   54501      68   54522   54513      68   54534
   54525      68   54546   54537      68   54558   54549      68   54570   54561
      68   54582   54573      68   54594   54585      68   54606   54597      68
   54618   54609      68   54630   54621      68   54642   54633      68   54654
   54645      68   54666   54657      68   54678   54669      68   54690   54681
      68   54702   54693      68   54714   54705      68   54726   54717      68
   54738   54729      68   54750   54741      68   54762   54753      68   54774
   54765      68   54786   54777      68   54798   54789      68   54810   54801
      68   54822   54813      68   54834   54825      68   54846   54837      68
   54858   54849      68   54870   54861      68   54882   54873      68   54894
   54885      68   54906   54897      68   54918   54909      68   54930   54921
      68   54942   54933      68   54954   54945      68   54966   54957      68
   54978   54969      68   54990   54981      68   55002   54993      68   55014
   55005      68   55026   55017      68   55038   55029      68   55050   55041
      68   55062   55053      68   55074   55065      68   55086   55077      68
   55098   55089      68   55110   55101      68   55122   55113      68   55134
   55125      68   55146   55137      68   55158   55149      68   55170   55161
      68   55182   55173      68   55194   55185      68   55206   55197      68
   55218   55209      68   55230   55221      68   55242   55233      68   55254
   55245      68   55266   55257      68   55278   55269      68   55290   55281
      68   55302   55293      68   55314   55305      68   55326   55317      68
   55338   55329      68   55350   55341      68   55362   55353      68   55374
   55365      68   55386   55377      68   55398   55389      68   55410   55401
      68   55422   55413      68   55434   55425      68   55446   55437      68
   55458   55449      68   55470   55461      68   55482   55473      68   55494
   55485      68   55506   55497      68   55518   55509      68   55530   55521
      68   55542   55533      68   55554   55545      68   55566   55557      68
   55578   55569      68   55590   55581      68   55602   55593      68   55614
   55605      68   55626   55617      68   55638   55629      68   55650   55641
      68   55662   55653      68   55674   55665      68   55686   55677      68
   55698   55689      68   55710   55701      68   55722   55713      68   55734
   55725      68   55746   55737      68   55758   55749      68   55770   55761
      68   55782   55773      68   55794   55785      68   55806   55797      68
   55818   55809      68   55830   55821      68   55842   55833      68   55854
   55845      68   55866   55857      68   55878   55869      68   55890   55881
      68   55902   55893      68   55914   55905      68   55926   55917      68
   55938   55929      68   55950   55941      68   55962   55953      68   55974
   55965      68   55986   55977      68   55998   55989      68   56010   56001
      68   56022   56013      68   56034   56025      68   56046   56037      68
   56058   56049      68   56070   56061      68   56082   56073      68   56094
   56085      68   56106   56097      68   56118   56109      68   56130   56121
      68   56142   56133      68   56154   56145      68   56166   56157      68
   56178   56169      68   56190   56181      68   56202   56193      68   56214
   56205      68   56226   56217      68   56238   56229      68   56250   56241
      68   56262   56253      68   56274   56265      68   56286   56277      68
   56298   56289      68   56310   56301      68   56322   56313      68   56334
   56325      68   56346   56337      68   56358   56349      68   56370   56361
      68   56382   56373      68   56394   56385      68   56406   56397      68
   56418   56409      68   56430   56421      68   56442   56433      68   56454
   56445      68   56466   56457      68   56478   56469      68   56490   56481
      68   56502   56493      68   56514   56505      68   56526   56517      68
   56538   56529      68   56550   56541      68   56562   56553      68   56574
   56565      68   56586   56577      68   56598   56589      68   56610   56601
      68   56622   56613      68   56634   56625      68   56646   56637      68
   56658   56649      68   56670   56661      68   56682   56673      68   56694
   56685      68   56706   56697      68   56718   56709      68   56730   56721
      68   56742   56733      68   56754   56745      68   56766   56757      68
   56778   56769      68   56790   56781      68   56802   56793      68   56814
   56805      68   56826   56817      68   56838   56829      68   56850   56841
      68   56862   56853      68   56874   56865      68   56886   56877      68
   56898   56889      68   56910   56901      68   56922   56913      68   56934
   56925      68   56946   56937      68   56958   56949      68   56970   56961
      68   56982   56973      68   56994   56985      68   57006   56997      68
   57018   57009      68   57030   57021      68   57042   57033      68   57054
   57045      68   57066   57057      68   57078   57069      68   57090   57081
      68   57102   57093      68   57114   57105      68   57126   57117      68
   57138   57129      68   57150   57141      68   57162   57153      68   57174
   57165      68   57186   57177      68   57198   57189      68   57210   57201
      68   57222   57213      68   57234   57225      68   57246   57237      68
   57258   57249      68   57270   57261      68   57282   57273      68   57294
   57285      68   57306   57297      68   57318   57309      68   57330   57321
      68   57342   57333      68   57354   57345      68   57366   57357      68
   57378   57369      68   57390   57381      68   57402   57393      68   57414
   57405      68   57426   57417      68   57438   57429      68   57450   57441
      68   57462   57453      68   57474   57465      68   57486   57477      68
   57498   57489      68   57510   57501      68   57522   57513      68   57534
   57525      68   57546   57537      68   57558   57549      68   57570   57561
      68   57582   57573      68   57594   57585      68   57606   57597      68
   57618   57609      68   57630   57621      68   57642   57633      68   57654
   57645      68   57666   57657      68   57678   57669      68   57690   57681
      68   57702   57693      68   57714   57705      68   57726   57717      68
   57738   57729      68   57750   57741      68   57762   57753      68   57774
   57765      68   57786   57777      68   57798   57789      68   57810   57801
      68   57822   57813      68   57834   57825      68   57846   57837      68
   57858   57849      68   57870   57861      68   57882   57873      68   57894
   57885      68   57906   57897      68   57918   57909      68   57930   57921
      68   57942   57933      68   57954   57945      68   57966   57957      68
   57978   57969      68   57990   57981      68   58002   57993      68   58014
   58005      68   58026   58017      68   58038   58029      68   58050   58041
      68   58062   58053      68   58074   58065      68   58086   58077      68
   58098   58089      68   58110   58101      68   58122   58113      68   58134
   58125      68   58146   58137      68   58158   58149      68   58170   58161
      68   58182   58173      68   58194   58185      68   58206   58197      68
   58218   58209      68   58230   58221      68   58242   58233      68   58254
   58245      68   58266   58257      68   58278   58269      68   58290   58281
      68   58302   58293      68   58314   58305      68   58326   58317      68
   58338   58329      68   58350   58341      68   58362   58353      68   58374
   58365      68   58386   58377      68   58398   58389      68   58410   58401
      68   58422   58413      68   58434   58425      68   58446   58437      68
   58458   58449      68   58470   58461      68   58482   58473      68   58494
   58485      68   58506   58497      68   58518   58509      68   58530   58521
      68   58542   58533      68   58554   58545      68   58566   58557      68
   58578   58569      68   58590   58581      68   58602   58593      68   58614
   58605      68   58626   58617      68   58638   58629      68   58650   58641
      68   58662   58653      68   58674   58665      68   58686   58677      68
   58698   58689      68   58710   58701      68   58722   58713      68   58734
   58725      68   58746   58737      68   58758   58749      68   58770   58761
      68   58782   58773      68   58794   58785      68   58806   58797      68
   58818   58809      68   58830   58821      68   58842   58833      68   58854
   58845      68   58866   58857      68   58878   58869      68   58890   58881
      68   58902   58893      68   58914   58905      68   58926   58917      68
   58938   58929      68   58950   58941      68   58962   58953      68   58974
   58965      68   58986   58977      68   58998   58989      68   59010   59001
      68   59022   59013      68   59034   59025      68   59046   59037      68
   59058   59049      68   59070   59061      68   59082   59073      68   59094
   59085      68   59106   59097      68   59118   59109      68   59130   59121
      68   59142   59133      68   59154   59145      68   59166   59157      68
   59178   59169      68   59190   59181      68   59202   59193      68   59214
   59205      68   59226   59217      68   59238   59229      68   59250   59241
      68   59262   59253      68   59274   59265      68   59286   59277      68
   59298   59289      68   59310   59301      68   59322   59313      68   59334
   59325      68   59346   59337      68   59358   59349      68   59370   59361
      68   59382   59373      68   59394   59385      68   59406   59397      68
   59418   59409      68   59430   59421      68   59442   59433      68   59454
   59445      68   59466   59457      68   59478   59469      68   59490   59481
      68   59502   59493      68   59514   59505      68   59526   59517      68
   59538   59529      68   59550   59541      68   59562   59553      68   59574
   59565      68   59586   59577      68   59598   59589      68   59610   59601
      68   59622   59613      68   59634   59625      68   59646   59637      68
   59658   59649      68   59670   59661      68   59682   59673      68   59694
   59685      68   59706   59697      68   59718   59709      68   59730   59721
      68   59742   59733      68   59754   59745      68   59766   59757      68
   59778   59769      68   59790   59781      68   59802   59793      68   59814
   59805      68   59826   59817      68   59838   59829      68   59850   59841
      68   59862   59853      68   59874   59865      68   59886   59877      68
   59898   59889      68   59910   59901      68   59922   59913      68   59934
   59925      68   59946   59937      68   59958   59949      68   59970   59961
      68   59982   59973      68   59994   59985      68   60006   59997      68
   60018   60009      68   60030   60021      68   60042   60033      68   60054
   60045      68   60066   60057      68   60078   60069      68   60090   60081
      68   60102   60093      68   60114   60105      68   60126   60117      68
   60138   60129      68   60150   60141      68   60162   60153      68   60174
   60165      68   60186   60177      68   60198   60189      68   60210   60201
      68   60222   60213      68   60234   60225      68   60246   60237      68
   60258   60249      68   60270   60261      68   60282   60273      68   60294
   60285      68   60306   60297      68   60318   60309      68   60330   60321
      68   60342   60333      68   60354   60345      68   60366   60357      68
   60378   60369      68   60390   60381      68   60402   60393      68   60414
   60405      68   60426   60417      68   60438   60429      68   60450   60441
      68   60462   60453      68   60474   60465      68   60486   60477      68
   60498   60489      68   60510   60501      68   60522   60513      68   60534
   60525      68   60546   60537      68   60558   60549      68   60570   60561
      68   60582   60573      68   60594   60585      68   60606   60597      68
   60618   60609      68   60630   60621      68   60642   60633      68   60654
   60645      68   60666   60657      68   60678   60669      68   60690   60681
      68   60702   60693      68   60714   60705      68   60726   60717      68
   60738   60729      68   60750   60741      68   60762   60753      68   60774
   60765      68   60786   60777      68   60798   60789      68   60810   60801
      68   60822   60813      68   60834   60825      68   60846   60837      68
   60858   60849      68   60870   60861      68   60882   60873      68   60894
   60885      68   60906   60897      68   60918   60909      68   60930   60921
      68   60942   60933      68   60954   60945      68   60966   60957      68
   60978   60969      68   60990   60981      68   61002   60993      68   61014
   61005      68   61026   61017      68   61038   61029      68   61050   61041
      68   61062   61053      68   61074   61065      68   61086   61077      68
   61098   61089      68   61110   61101      68   61122   61113      68   61134
   61125      68   61146   61137      68   61158   61149      68   61170   61161
      68   61182   61173      68   61194   61185      68   61206   61197      68
   61218   61209      68   61230   61221      68   61242   61233      68   61254
   61245      68   61266   61257      68   61278   61269      68   61290   61281
      68   61302   61293      68   61314   61305      68   61326   61317      68
   61338   61329      68   61350   61341      68   61362   61353      68   61374
   61365      68   61386   61377      68   61398   61389      68   61410   61401
      68   61422   61413      68   61434   61425      68   61446   61437      68
   61458   61449      68   61470   61461      68   61482   61473      68   61494
   61485      68   61506   61497      68   61518   61509      68   61530   61521
      68   61542   61533      68   61554   61545      68   61566   61557      68
   61578   61569      68   61590   61581      68   61602   61593      68   61614
   61605      68   61626   61617      68   61638   61629      68   61650   61641
      68   61662   61653      68   61674   61665      68   61686   61677      68
   61698   61689      68   61710   61701      68   61722   61713      68   61734
   61725      68   61746   61737      68   61758   61749      68   61770   61761
      68   61782   61773      68   61794   61785      68   61806   61797      68
   61818   61809      68   61830   61821      68   61842   61833      68   61854
   61845      68   61866   61857      68   61878   61869      68   61890   61881
      68   61902   61893      68   61914   61905      68   61926   61917      68
   61938   61929      68   61950   61941      68   61962   61953      68   61974
   61965      68   61986   61977      68   61998   61989      68   62010   62001
      68   62022   62013      68   62034   62025      68   62046   62037      68
   62058   62049      68   62070   62061      68   62082   62073      68   62094
   62085      68   62106   62097      68   62118   62109      68   62130   62121
      68   62142   62133      68   62154   62145      68   62166   62157      68
   62178   62169      68   62190   62181      68   62202   62193      68   62214
   62205      68   62226   62217      68   62238   62229      68   62250   62241
      68   62262   62253      68   62274   62265      68   62286   62277      68
   62298   62289      68   62310   62301      68   62322   62313      68   62334
   62325      68   62346   62337      68   62358   62349      68   62370   62361
      68   62382   62373      68   62394   62385      68   62406   62397      68
   62418   62409      68   62430   62421      68   62442   62433      68   62454
   62445      68   62466   62457      68   62478   62469      68   62490   62481
      68   62502   62493      68   62514   62505      68   62526   62517      68
   62538   62529      68   62550   62541      68   62562   62553      68   62574
   62565      68   62586   62577      68   62598   62589      68   62610   62601
      68   62622   62613      68   62634   62625      68   62646   62637      68
   62658   62649      68   62670   62661      68   62682   62673      68   62694
   62685      68   62706   62697      68   62718   62709      68   62730   62721
      68   62742   62733      68   62754   62745      68   62766   62757      68
   62778   62769      68   62790   62781      68   62802   62793      68   62814
   62805      68   62826   62817      68   62838   62829      68   62850   62841
      68   62862   62853      68   62874   62865      68   62886   62877      68
   62898   62889      68   62910   62901      68   62922   62913      68   62934
   62925      68   62946   62937      68   62958   62949      68   62970   62961
      68   62982   62973      68   62994   62985      68   63006   62997      68
   63018   63009      68   63030   63021      68   63042   63033      68   63054
   63045      68   63066   63057      68   63078   63069      68   63090   63081
      68   63102   63093      68   63114   63105      68   63126   63117      68
   63138   63129      68   63150   63141      68   63162   63153      68   63174
   63165      68   63186   63177      68   63198   63189      68   63210   63201
      68   63222   63213      68   63234   63225      68   63246   63237      68
   63258   63249      68   63270   63261      68   63282   63273      68   63294
   63285      68   63306   63297      68   63318   63309      68   63330   63321
      68   63342   63333      68   63354   63345      68   63366   63357      68
   63378   63369      68   63390   63381      68   63402   63393      68   63414
   63405      68   63426   63417      68   63438   63429      68   63450   63441
      68   63462   63453      68   63474   63465      68   63486   63477      68
   63498   63489      68   63510   63501      68   63522   63513      68   63534
   63525      68   63546   63537      68   63558   63549      68   63570   63561
      68   63582   63573      68   63594   63585      68   63606   63597      68
   63618   63609      68   63630   63621      68   63642   63633      68   63654
   63645      68   63666   63657      68   63678   63669      68   63690   63681
      68   63702   63693      68   63714   63705      68   63726   63717      68
   63738   63729      68   63750   63741      68   63762   63753      68   63774
   63765      68   63786   63777      68   63798   63789      68   63810   63801
      68   63822   63813      68   63834   63825      68   63846   63837      68
   63858   63849      68   63870   63861      68   63882   63873      68   63894
   63885      68   63906   63897      68   63918   63909      68   63930   63921
      68   63942   63933      68   63954   63945      68   63966   63957      68
   63978   63969      68   63990   63981      68   64002   63993      68   64014
   64005      68   64026   64017      68   64038   64029      68   64050   64041
      68   64062   64053      68   64074   64065      68   64086   64077      68
   64098   64089      68   64110   64101      68   64122   64113      68   64134
   64125      68   64146   64137      68   64158   64149      68   64170   64161
      68   64182   64173      68   64194   64185      68   64206   64197      68
   64218   64209      68   64230   64221      68   64242   64233      68   64254
   64245      68   64266   64257      68   64278   64269      68   64290   64281
      68   64302   64293      68   64314   64305      68   64326   64317      68
   64338   64329      68   64350   64341      68   64362   64353      68   64374
   64365      68   64386   64377      68   64398   64389      68   64410   64401
      68   64422   64413      68   64434   64425      68   64446   64437      68
   64458   64449      68   64470   64461      68   64482   64473      68   64494
   64485      68   64506   64497      68   64518   64509      68   64530   64521
      68   64542   64533      68   64554   64545      68   64566   64557      68
   64578   64569      68   64590   64581      68   64602   64593      68   64614
   64605      68   64626   64617      68   64638   64629      68   64650   64641
      68   64662   64653      68   64674   64665      68   64686   64677      68
   64698   64689      68   64710   64701      68   64722   64713      68   64734
   64725      68   64746   64737      68   64758   64749      68   64770   64761
      68   64782   64773      68   64794   64785      68   64806   64797      68
   64818   64809      68   64830   64821      68   64842   64833      68   64854
   64845      68   64866   64857      68   64878   64869      68   64890   64881
      68   64902   64893      68   64914   64905      68   64926   64917      68
   64938   64929      68   64950   64941      68   64962   64953      68   64974
   64965      68   64986   64977      68   64998   64989      68   65010   65001
      68   65022   65013      68   65034   65025      68   65046   65037      68
   65058   65049      68   65070   65061      68   65082   65073      68   65094
   65085      68   65106   65097      68   65118   65109      68   65130   65121
      68   65142   65133      68   65154   65145      68   65166   65157      68
   65178   65169      68   65190   65181      68   65202   65193      68   65214
   65205      68   65226   65217      68   65238   65229      68   65250   65241
      68   65262   65253      68   65274   65265      68   65286   65277      68
   65298   65289      68   65310   65301      68   65322   65313      68   65334
   65325      68   65346   65337      68   65358   65349      68   65370   65361
      68   65382   65373      68   65394   65385      68   65406   65397      68
   65418   65409      68   65430   65421      68   65442   65433      68   65454
   65445      68   65466   65457      68   65478   65469      68   65490   65481
      68   65502   65493      68   65514   65505      68   65526   65517      68
   65538   65529      68   65550   65541      68   65562   65553      68   65574
   65565      68   65586   65577      68   65598   65589      68   65610   65601
      68   65622   65613      68   65634   65625      68   65646   65637      68
   65658   65649      68   65670   65661      68   65682   65673      68   65694
   65685      68   65706   65697      68   65718   65709      68   65730   65721
      68   65742   65733      68   65754   65745      68   65766   65757      68
   65778   65769      68   65790   65781      68   65802   65793      68   65814
   65805      68   65826   65817      68   65838   65829      68   65850   65841
      68   65862   65853      68   65874   65865      68   65886   65877      68
   65898   65889      68   65910   65901      68   65922   65913      68   65934
   65925      68   65946   65937      68   65958   65949      68   65970   65961
      68   65982   65973      68   65994   65985      68   66006   65997      68
   66018   66009      68   66030   66021      68   66042   66033      68   66054
   66045      68   66066   66057      68   66078   66069      68   66090   66081
      68   66102   66093      68   66114   66105      68   66126   66117      68
   66138   66129      68   66150   66141      68   66162   66153      68   66174
   66165      68   66186   66177      68   66198   66189      68   66210   66201
      68   66222   66213      68   66234   66225      68   66246   66237      68
   66258   66249      68   66270   66261      68   66282   66273      68   66294
   66285      68   66306   66297      68   66318   66309      68   66330   66321
      68   66342   66333      68   66354   66345      68   66366   66357      68
   66378   66369      68   66390   66381      68   66402   66393      68   66414
   66405      68   66426   66417      68   66438   66429      68   66450   66441
      68   66462   66453      68   66474   66465      68   66486   66477      68
   66498   66489      68   66510   66501      68   66522   66513      68   66534
   66525      68   66546   66537      68   66558   66549      68   66570   66561
      68   66582   66573      68   66594   66585      68   66606   66597      68
   66618   66609      68   66630   66621      68   66642   66633      68   66654
   66645      68   66666   66657      68   66678   66669      68   66690   66681
      68   66702   66693      68   66714   66705      68   66726   66717      68
   66738   66729      68   66750   66741      68   66762   66753      68   66774
   66765      68   66786   66777      68   66798   66789      68   66810   66801
      68   66822   66813      68   66834   66825      68   66846   66837      68
   66858   66849      68   66870   66861      68   66882   66873      68   66894
   66885      68   66906   66897      68   66918   66909      68   66930   66921
      68   66942   66933      68   66954   66945      68   66966   66957      68
   66978   66969      68   66990   66981      68   67002   66993      68   67014
   67005      68   67026   67017      68   67038   67029      68   67050   67041
      68   67062   67053      68   67074   67065      68   67086   67077      68
   67098   67089      68   67110   67101      68   67122   67113      68   67134
   67125      68   67146   67137      68   67158   67149      68   67170   67161
      68   67182   67173      68   67194   67185      68   67206   67197      68
   67218   67209      68   67230   67221      68   67242   67233      68   67254
   67245      68   67266   67257      68   67278   67269      68   67290   67281
      68   67302   67293      68   67314   67305      68   67326   67317      68
   67338   67329      68   67350   67341      68   67362   67353      68   67374
   67365      68   67386   67377      68   67398   67389      68   67410   67401
      68   67422   67413      68   67434   67425      68   67446   67437      68
   67458   67449      68   67470   67461      68   67482   67473      68   67494
   67485      68   67506   67497      68   67518   67509      68   67530   67521
      68   67542   67533      68   67554   67545      68   67566   67557      68
   67578   67569      68   67590   67581      68   67602   67593      68   67614
   67605      68   67626   67617      68   67638   67629      68   67650   67641
      68   67662   67653      68   67674   67665      68   67686   67677      68
   67698   67689      68   67710   67701      68   67722   67713      68   67734
   67725      68   67746   67737      68   67758   67749      68   67770   67761
      68   67782   67773      68   67794   67785      68   67806   67797      68
   67818   67809      68   67830   67821      68   67842   67833      68   67854
   67845      68   67866   67857      68   67878   67869      68   67890   67881
      68   67902   67893      68   67914   67905      68   67926   67917      68
   67938   67929      68   67950   67941      68   67962   67953      68   67974
   67965      68   67986   67977      68   67998   67989      68   68010   68001
      68   68022   68013      68   68034   68025      68   68046   68037      68
   68058   68049      68   68070   68061      68   68082   68073      68   68094
   68085      68   68106   68097      68   68118   68109      68   68130   68121
      68   68142   68133      68   68154   68145      68   68166   68157      68
   68178   68169      68   68190   68181      68   68202   68193      68   68214
   68205      68   68226   68217      68   68238   68229      68   68250   68241
      68   68262   68253      68   68274   68265      68   68286   68277      68
   68298   68289      68   68310   68301      68   68322   68313      68   68334
   68325      68   68346   68337      68   68358   68349      68   68370   68361
      68   68382   68373      68   68394   68385      68   68406   68397      68
   68418   68409      68   68430   68421      68   68442   68433      68   68454
   68445      68   68466   68457      68   68478   68469      68   68490   68481
      68   68502   68493      68   68514   68505      68   68526   68517      68
   68538   68529      68   68550   68541      68   68562   68553      68   68574
   68565      68   68586   68577      68   68598   68589      68   68610   68601
      68   68622   68613      68   68634   68625      68   68646   68637      68
   68658   68649      68   68670   68661      68   68682   68673      68   68694
   68685      68   68706   68697      68   68718   68709      68   68730   68721
      68   68742   68733      68   68754   68745      68   68766   68757      68
   68778   68769      68   68790   68781      68   68802   68793      68   68814
   68805      68   68826   68817      68   68838   68829      68   68850   68841
      68   68862   68853      68   68874   68865      68   68886   68877      68
   68898   68889      68   68910   68901      68   68922   68913      68   68934
   68925      68   68946   68937      68   68958   68949      68   68970   68961
      68   68982   68973      68   68994   68985      68   69006   68997      68
   69018   69009      68   69030   69021      68   69042   69033      68   69054
   69045      68   69066   69057      68   69078   69069      68   69090   69081
      68   69102   69093      68   69114   69105      68   69126   69117      68
   69138   69129      68   69150   69141      68   69162   69153      68   69174
   69165      68   69186   69177      68   69198   69189      68   69210   69201
      68   69222   69213      68   69234   69225      68   69246   69237      68
   69258   69249      68   69270   69261      68   69282   69273      68   69294
   69285      68   69306   69297      68   69318   69309      68   69330   69321
      68   69342   69333      68   69354   69345      68   69366   69357      68
   69378   69369      68   69390   69381      68   69402   69393      68   69414
   69405      68   69426   69417      68   69438   69429      68   69450   69441
      68   69462   69453      68   69474   69465      68   69486   69477      68
   69498   69489      68   69510   69501      68   69522   69513      68   69534
   69525      68   69546   69537      68   69558   69549      68   69570   69561
      68   69582   69573      68   69594   69585      68   69606   69597      68
   69618   69609      68   69630   69621      68   69642   69633      68   69654
   69645      68   69666   69657      68   69678   69669      68   69690   69681
      68   69702   69693      68   69714   69705      68   69726   69717      68
   69738   69729      68   69750   69741      68   69762   69753      68   69774
   69765      68   69786   69777      68   69798   69789      68   69810   69801
      68   69822   69813      68   69834   69825      68   69846   69837      68
   69858   69849      68   69870   69861      68   69882   69873      68   69894
   69885      68   69906   69897      68   69918   69909      68   69930   69921
      68   69942   69933      68   69954   69945      68   69966   69957      68
   69978   69969      68   69990   69981      68   70002   69993      68   70014
   70005      68   70026   70017      68   70038   70029      68   70050   70041
      68   70062   70053      68   70074   70065      68   70086   70077      68
   70098   70089      68   70110   70101      68   70122   70113      68   70134
   70125      68   70146   70137      68   70158   70149      68   70170   70161
      68   70182   70173      68   70194   70185      68   70206   70197      68
   70218   70209      68   70230   70221      68   70242   70233      68   70254
   70245      68   70266   70257      68   70278   70269      68   70290   70281
      68   70302   70293      68   70314   70305      68   70326   70317      68
   70338   70329      68   70350   70341      68   70362   70353      68   70374
   70365      68   70386   70377      68   70398   70389      68   70410   70401
      68   70422   70413      68   70434   70425      68   70446   70437      68
   70458   70449      68   70470   70461      68   70482   70473      68   70494
   70485      68   70506   70497      68   70518   70509      68   70530   70521
      68   70542   70533      68   70554   70545      68   70566   70557      68
   70578   70569      68   70590   70581      68   70602   70593      68   70614
   70605      68   70626   70617      68   70638   70629      68   70650   70641
      68   70662   70653      68   70674   70665      68   70686   70677      68
   70698   70689      68   70710   70701      68   70722   70713      68   70734
   70725      68   70746   70737      68   70758   70749      68   70770   70761
      68   70782   70773      68   70794   70785      68   70806   70797      68
   70818   70809      68   70830   70821      68   70842   70833      68   70854
   70845      68   70866   70857      68   70878   70869      68   70890   70881
      68   70902   70893      68   70914   70905      68   70926   70917      68
   70938   70929      68   70950   70941      68   70962   70953      68   70974
   70965      68   70986   70977      68   70998   70989      68   71010   71001
      68   71022   71013      68   71034   71025      68   71046   71037      68
   71058   71049      68   71070   71061      68   71082   71073      68   71094
   71085      68   71106   71097      68   71118   71109      68   71130   71121
      68   71142   71133      68   71154   71145      68   71166   71157      68
   71178   71169      68   71190   71181      68   71202   71193      68   71214
   71205      68   71226   71217      68   71238   71229      68   71250   71241
      68   71262   71253      68   71274   71265      68   71286   71277      68
   71298   71289      68   71310   71301      68   71322   71313      68   71334
   71325      68   71346   71337      68   71358   71349      68   71370   71361
      68   71382   71373      68   71394   71385      68   71406   71397      68
   71418   71409      68   71430   71421      68   71442   71433      68   71454
   71445      68   71466   71457      68   71478   71469      68   71490   71481
      68   71502   71493      68   71514   71505      68   71526   71517      68
   71538   71529      68   71550   71541      68   71562   71553      68   71574
   71565      68   71586   71577      68   71598   71589      68   71610   71601
      68   71622   71613      68   71634   71625      68   71646   71637      68
   71658   71649      68   71670   71661      68   71682   71673      68   71694
   71685      68   71706   71697      68   71718   71709      68   71730   71721
      68   71742   71733      68   71754   71745      68   71766   71757      68
   71778   71769      68   71790   71781      68   71802   71793      68   71814
   71805      68   71826   71817      68   71838   71829      68   71850   71841
      68   71862   71853      68   71874   71865      68   71886   71877      68
   71898   71889      68   71910   71901      68   71922   71913      68   71934
   71925      68   71946   71937      68   71958   71949      68   71970   71961
      68   71982   71973      68   71994   71985      68   72006   71997      68
   72018   72009      68   72030   72021      68   72042   72033      68   72054
   72045      68   72066   72057      68   72078   72069      68   72090   72081
      68   72102   72093      68   72114   72105      68   72126   72117      68
   72138   72129      68   72150   72141      68   72162   72153      68   72174
   72165      68   72186   72177      68   72198   72189      68   72210   72201
      68   72222   72213      68   72234   72225      68   72246   72237      68
   72258   72249      68   72270   72261      68   72282   72273      68   72294
   72285      68   72306   72297      68   72318   72309      68   72330   72321
      68   72342   72333      68   72354   72345      68   72366   72357      68
   72378   72369      68   72390   72381      68   72402   72393      68   72414
   72405      68   72426   72417      68   72438   72429      68   72450   72441
      68   72462   72453      68   72474   72465      68   72486   72477      68
   72498   72489      68   72510   72501      68   72522   72513      68   72534
   72525      68   72546   72537      68   72558   72549      68   72570   72561
      68   72582   72573      68   72594   72585      68   72606   72597      68
   72618   72609      68   72630   72621      68   72642   72633      68   72654
   72645      68   72666   72657      68   72678   72669      68   72690   72681
      68   72702   72693      68   72714   72705      68   72726   72717      68
   72738   72729      68   72750   72741      68   72762   72753      68   72774
   72765      68   72786   72777      68   72798   72789      68   72810   72801
      68   72822   72813      68   72834   72825      68   72846   72837      68
   72858   72849      68   72870   72861      68   72882   72873      68   72894
   72885      68   72906   72897      68   72918   72909      68   72930   72921
      68   72942   72933      68   72954   72945      68   72966   72957      68
   72978   72969      68   72990   72981      68   73002   72993      68   73014
   73005      68   73026   73017      68   73038   73029      68   73050   73041
      68   73062   73053      68   73074   73065      68   73086   73077      68
   73098   73089      68   73110   73101      68   73122   73113      68   73134
   73125      68   73146   73137      68   73158   73149      68   73170   73161
      68   73182   73173      68   73194   73185      68   73206   73197      68
   73218   73209      68   73230   73221      68   73242   73233      68   73254
   73245      68   73266   73257      68   73278   73269      68   73290   73281
      68   73302   73293      68   73314   73305      68   73326   73317      68
   73338   73329      68   73350   73341      68   73362   73353      68   73374
   73365      68   73386   73377      68   73398   73389      68   73410   73401
      68   73422   73413      68   73434   73425      68   73446   73437      68
   73458   73449      68   73470   73461      68   73482   73473      68   73494
   73485      68   73506   73497      68   73518   73509      68   73530   73521
      68   73542   73533      68   73554   73545      68   73566   73557      68
   73578   73569      68   73590   73581      68   73602   73593      68   73614
   73605      68   73626   73617      68   73638   73629      68   73650   73641
      68   73662   73653      68   73674   73665      68   73686   73677      68
   73698   73689      68   73710   73701      68   73722   73713      68   73734
   73725      68   73746   73737      68   73758   73749      68   73770   73761
      68   73782   73773      68   73794   73785      68   73806   73797      68
   73818   73809      68   73830   73821      68   73842   73833      68   73854
   73845      68   73866   73857      68   73878   73869      68   73890   73881
      68   73902   73893      68   73914   73905      68   73926   73917      68
   73938   73929      68   73950   73941      68   73962   73953      68   73974
   73965      68   73986   73977      68   73998   73989      68   74010   74001
      68   74022   74013      68   74034   74025      68   74046   74037      68
   74058   74049      68   74070   74061      68   74082   74073      68   74094
   74085      68   74106   74097      68   74118   74109      68   74130   74121
      68   74142   74133      68   74154   74145      68   74166   74157      68
   74178   74169      68   74190   74181      68   74202   74193      68   74214
   74205      68   74226   74217      68   74238   74229      68   74250   74241
      68   74262   74253      68   74274   74265      68   74286   74277      68
   74298   74289      68   74310   74301      68   74322   74313      68   74334
   74325      68   74346   74337      68   74358   74349      68   74370   74361
      68   74382   74373      68   74394   74385      68   74406   74397      68
   74418   74409      68   74430   74421      68   74442   74433      68   74454
   74445      68   74466   74457      68   74478   74469      68   74490   74481
      68   74502   74493      68   74514   74505      68   74526   74517      68
   74538   74529      68   74550   74541      68   74562   74553      68   74574
   74565      68   74586   74577      68   74598   74589      68   74610   74601
      68   74622   74613      68   74634   74625      68   74646   74637      68
   74658   74649      68   74670   74661      68   74682   74673      68   74694
   74685      68   74706   74697      68   74718   74709      68   74730   74721
      68   74742   74733      68   74754   74745      68   74766   74757      68
   74778   74769      68   74790   74781      68   74802   74793      68   74814
   74805      68   74826   74817      68   74838   74829      68   74850   74841
      68   74862   74853      68   74874   74865      68   74886   74877      68
   74898   74889      68   74910   74901      68   74922   74913      68   74934
   74925      68   74946   74937      68   74958   74949      68   74970   74961
      68   74982   74973      68   74994   74985      68   75006   74997      68
   75018   75009      68   75030   75021      68   75042   75033      68   75054
   75045      68   75066   75057      68   75078   75069      68   75090   75081
      68   75102   75093      68   75114   75105      68   75126   75117      68
   75138   75129      68   75150   75141      68   75162   75153      68   75174
   75165      68   75186   75177      68   75198   75189      68   75210   75201
      68   75222   75213      68   75234   75225      68   75246   75237      68
   75258   75249      68   75270   75261      68   75282   75273      68   75294
   75285      68   75306   75297      68   75318   75309      68   75330   75321
      68   75342   75333      68   75354   75345      68   75366   75357      68
   75378   75369      68   75390   75381      68   75402   75393      68   75414
   75405      68   75426   75417      68   75438   75429      68   75450   75441
      68   75462   75453      68   75474   75465      68   75486   75477      68
   75498   75489      68   75510   75501      68   75522   75513      68   75534
   75525      68   75546   75537      68   75558   75549      68   75570   75561
      68   75582   75573      68   75594   75585      68   75606   75597      68
   75618   75609      68   75630   75621      68   75642   75633      68   75654
   75645      68   75666   75657      68   75678   75669      68   75690   75681
      68   75702   75693      68   75714   75705      68   75726   75717      68
   75738   75729      68   75750   75741      68   75762   75753      68   75774
   75765      68   75786   75777      68   75798   75789      68   75810   75801
      68   75822   75813      68   75834   75825      68   75846   75837      68
   75858   75849      68   75870   75861      68   75882   75873      68   75894
   75885      68   75906   75897      68   75918   75909      68   75930   75921
      68   75942   75933      68   75954   75945      68   75966   75957      68
   75978   75969      68   75990   75981      68   76002   75993      68   76014
   76005      68   76026   76017      68   76038   76029      68   76050   76041
      68   76062   76053      68   76074   76065      68   76086   76077      68
   76098   76089      68   76110   76101      68   76122   76113      68   76134
   76125      68   76146   76137      68   76158   76149      68   76170   76161
      68   76182   76173      68   76194   76185      68   76206   76197      68
   76218   76209      68   76230   76221      68   76242   76233      68   76254
   76245      68   76266   76257      68   76278   76269      68   76290   76281
      68   76302   76293      68   76314   76305      68   76326   76317      68
   76338   76329      68   76350   76341      68   76362   76353      68   76374
   76365      68   76386   76377      68   76398   76389      68   76410   76401
      68   76422   76413      68   76434   76425      68   76446   76437      68
   76458   76449      68   76470   76461      68   76482   76473      68   76494
   76485      68   76506   76497      68   76518   76509      68   76530   76521
      68   76542   76533      68   76554   76545      68   76566   76557      68
   76578   76569      68   76590   76581      68   76602   76593      68   76614
   76605      68   76626   76617      68   76638   76629      68   76650   76641
      68   76662   76653      68   76674   76665      68   76686   76677      68
   76698   76689      68   76710   76701      68   76722   76713      68   76734
   76725      68   76746   76737      68   76758   76749      68   76770   76761
      68   76782   76773      68   76794   76785      68   76806   76797      68
   76818   76809      68   76830   76821      68   76842   76833      68   76854
   76845      68   76866   76857      68   76878   76869      68   76890   76881
      68   76902   76893      68   76914   76905      68   76926   76917      68
   76938   76929      68   76950   76941      68   76962   76953      68   76974
   76965      68   76986   76977      68   76998   76989      68   77010   77001
      68   77022   77013      68   77034   77025      68   77046   77037      68
   77058   77049      68   77070   77061      68   77082   77073      68   77094
   77085      68   77106   77097      68   77118   77109      68   77130   77121
      68   77142   77133      68   77154   77145      68   77166   77157      68
   77178   77169      68   77190   77181      68   77202   77193      68   77214
   77205      68   77226   77217      68   77238   77229      68   77250   77241
      68   77262   77253      68   77274   77265      68   77286   77277      68
   77298   77289      68   77310   77301      68   77322   77313      68   77334
   77325      68   77346   77337      68   77358   77349      68   77370   77361
      68   77382   77373      68   77394   77385      68   77406   77397      68
   77418   77409      68   77430   77421      68   77442   77433      68   77454
   77445      68   77466   77457      68   77478   77469      68   77490   77481
      68   77502   77493      68   77514   77505      68   77526   77517      68
   77538   77529      68   77550   77541      68   77562   77553      68   77574
   77565      68   77586   77577      68   77598   77589      68   77610   77601
      68   77622   77613      68   77634   77625      68   77646   77637      68
   77658   77649      68   77670   77661      68   77682   77673      68   77694
   77685      68   77706   77697      68   77718   77709      68   77730   77721
      68   77742   77733      68   77754   77745      68   77766   77757      68
   77778   77769      68   77790   77781      68   77802   77793      68   77814
   77805      68   77826   77817      68   77838   77829      68   77850   77841
      68   77862   77853      68   77874   77865      68   77886   77877      68
   77898   77889      68   77910   77901      68   77922   77913      68   77934
   77925      68   77946   77937      68   77958   77949      68   77970   77961
      68   77982   77973      68   77994   77985      68   78006   77997      68
   78018   78009      68   78030   78021      68   78042   78033      68   78054
   78045      68   78066   78057      68   78078   78069      68   78090   78081
      68   78102   78093      68   78114   78105      68   78126   78117      68
   78138   78129      68   78150   78141      68   78162   78153      68   78174
   78165      68   78186   78177      68   78198   78189      68   78210   78201
      68   78222   78213      68   78234   78225      68   78246   78237      68
   78258   78249      68   78270   78261      68   78282   78273      68   78294
   78285      68   78306   78297      68   78318   78309      68   78330   78321
      68   78342   78333      68   78354   78345      68   78366   78357      68
   78378   78369      68   78390   78381      68   78402   78393      68   78414
   78405      68   78426   78417      68   78438   78429      68   78450   78441
      68   78462   78453      68   78474   78465      68   78486   78477      68
   78498   78489      68   78510   78501      68   78522   78513      68   78534
   78525      68   78546   78537      68   78558   78549      68   78570   78561
      68   78582   78573      68   78594   78585      68   78606   78597      68
   78618   78609      68   78630   78621      68   78642   78633      68   78654
   78645      68   78666   78657      68   78678   78669      68   78690   78681
      68   78702   78693      68   78714   78705      68   78726   78717      68
   78738   78729      68   78750   78741      68   78762   78753      68   78774
   78765      68   78786   78777      68   78798   78789      68   78810   78801
      68   78822   78813      68   78834   78825      68   78846   78837      68
   78858   78849      68   78870   78861      68   78882   78873      68   78894
   78885      68   78906   78897      68   78918   78909      68   78930   78921
      68   78942   78933      68   78954   78945      68   78966   78957      68
   78978   78969      68   78990   78981      68   79002   78993      68   79014
   79005      68   79026   79017      68   79038   79029      68   79050   79041
      68   79062   79053      68   79074   79065      68   79086   79077      68
   79098   79089      68   79110   79101      68   79122   79113      68   79134
   79125      68   79146   79137      68   79158   79149      68   79170   79161
      68   79182   79173      68   79194   79185      68   79206   79197      68
   79218   79209      68   79230   79221      68   79242   79233      68   79254
   79245      68   79266   79257      68   79278   79269      68   79290   79281
      68   79302   79293      68   79314   79305      68   79326   79317      68
   79338   79329      68   79350   79341      68   79362   79353      68   79374
   79365      68   79386   79377      68   79398   79389      68   79410   79401
      68   79422   79413      68   79434   79425      68   79446   79437      68
   79458   79449      68   79470   79461      68   79482   79473      68   79494
   79485      68   79506   79497      68   79518   79509      68   79530   79521
      68   79542   79533      68   79554   79545      68   79566   79557      68
   79578   79569      68   79590   79581      68   79602   79593      68   79614
   79605      68   79626   79617      68   79638   79629      68   79650   79641
      68   79662   79653      68   79674   79665      68   79686   79677      68
   79698   79689      68   79710   79701      68   79722   79713      68   79734
   79725      68   79746   79737      68   79758   79749      68   79770   79761
      68   79782   79773      68   79794   79785      68   79806   79797      68
   79818   79809      68   79830   79821      68   79842   79833      68   79854
   79845      68   79866   79857      68   79878   79869      68   79890   79881
      68   79902   79893      68   79914   79905      68   79926   79917      68
   79938   79929      68   79950   79941      68   79962   79953      68   79974
   79965      68   79986   79977      68   79998   79989      68   80010   80001
      68   80022   80013      68   80034   80025      68   80046   80037      68
   80058   80049      68   80070   80061      68   80082   80073      68   80094
   80085      68   80106   80097      68   80118   80109      68   80130   80121
      68   80142   80133      68   80154   80145      68   80166   80157      68
   80178   80169      68   80190   80181      68   80202   80193      68   80214
   80205      68   80226   80217      68   80238   80229      68   80250   80241
      68   80262   80253      68   80274   80265      68   80286   80277      68
   80298   80289      68   80310   80301      68   80322   80313      68   80334
   80325      68   80346   80337      68   80358   80349      68   80370   80361
      68   80382   80373      68   80394   80385      68   80406   80397      68
   80418   80409      68   80430   80421      68   80442   80433      68   80454
   80445      68   80466   80457      68   80478   80469      68   80490   80481
      68   80502   80493      68   80514   80505      68   80526   80517      68
   80538   80529      68   80550   80541      68   80562   80553      68   80574
   80565      68   80586   80577      68   80598   80589      68   80610   80601
      68   80622   80613      68   80634   80625      68   80646   80637      68
   80658   80649      68   80670   80661      68   80682   80673      68   80694
   80685      68   80706   80697      68   80718   80709      68   80730   80721
      68   80742   80733      68   80754   80745      68   80766   80757      68
   80778   80769      68   80790   80781      68   80802   80793      68   80814
   80805      68   80826   80817      68   80838   80829      68   80850   80841
      68   80862   80853      68   80874   80865      68   80886   80877      68
   80898   80889      68   80910   80901      68   80922   80913      68   80934
   80925      68   80946   80937      68   80958   80949      68   80970   80961
      68   80982   80973      68   80994   80985      68   81006   80997      68
   81018   81009      68   81030   81021      68   81042   81033      68   81054
   81045      68   81066   81057      68   81078   81069      68   81090   81081
      68   81102   81093      68   81114   81105      68   81126   81117      68
   81138   81129      68   81150   81141      68   81162   81153      68   81174
   81165      68   81186   81177      68   81198   81189      68   81210   81201
      68   81222   81213      68   81234   81225      68   81246   81237      68
   81258   81249      68   81270   81261      68   81282   81273      68   81294
   81285      68   81306   81297      68   81318   81309      68   81330   81321
      68   81342   81333      68   81354   81345      68   81366   81357      68
   81378   81369      68   81390   81381      68   81402   81393      68   81414
   81405      68   81426   81417      68   81438   81429      68   81450   81441
      68   81462   81453      68   81474   81465      68   81486   81477      68
   81498   81489      68   81510   81501      68   81522   81513      68   81534
   81525      68   81546   81537      68   81558   81549      68   81570   81561
      68   81582   81573      68   81594   81585      68   81606   81597      68
   81618   81609      68   81630   81621      68   81642   81633      68   81654
   81645      68   81666   81657      68   81678   81669      68   81690   81681
      68   81702   81693      68   81714   81705      68   81726   81717      68
   81738   81729      68   81750   81741      68   81762   81753      68   81774
   81765      68   81786   81777      68   81798   81789      68   81810   81801
      68   81822   81813      68   81834   81825      68   81846   81837      68
   81858   81849      68   81870   81861      68   81882   81873      68   81894
   81885      68   81906   81897      68   81918   81909      68   81930   81921
      68   81942   81933      68   81954   81945      68   81966   81957      68
   81978   81969      68   81990   81981      68   82002   81993      68   82014
   82005      68   82026   82017      68   82038   82029      68   82050   82041
      68   82062   82053      68   82074   82065      68   82086   82077      68
   82098   82089      68   82110   82101      68   82122   82113      68   82134
   82125      68   82146   82137      68   82158   82149      68   82170   82161
      68   82182   82173      68   82194   82185      68   82206   82197      68
   82218   82209      68   82230   82221      68   82242   82233      68   82254
   82245      68   82266   82257      68   82278   82269      68   82290   82281
      68   82302   82293      68   82314   82305      68   82326   82317      68
   82338   82329      68   82350   82341      68   82362   82353      68   82374
   82365      68   82386   82377      68   82398   82389      68   82410   82401
      68   82422   82413      68   82434   82425      68   82446   82437      68
   82458   82449      68   82470   82461      68   82482   82473      68   82494
   82485      68   82506   82497      68   82518   82509      68   82530   82521
      68   82542   82533      68   82554   82545      68   82566   82557      68
   82578   82569      68   82590   82581      68   82602   82593      68   82614
   82605      68   82626   82617      68   82638   82629      68   82650   82641
      68   82662   82653      68   82674   82665      68   82686   82677      68
   82698   82689      68   82710   82701      68   82722   82713      68   82734
   82725      68   82746   82737      68   82758   82749      68   82770   82761
      68   82782   82773      68   82794   82785      68   82806   82797      68
   82818   82809      68   82830   82821      68   82842   82833      68   82854
   82845      68   82866   82857      68   82878   82869      68   82890   82881
      68   82902   82893      68   82914   82905      68   82926   82917      68
   82938   82929      68   82950   82941      68   82962   82953      68   82974
   82965      68   82986   82977      68   82998   82989      68   83010   83001
      68   83022   83013      68   83034   83025      68   83046   83037      68
   83058   83049      68   83070   83061      68   83082   83073      68   83094
   83085      68   83106   83097      68   83118   83109      68   83130   83121
      68   83142   83133      68   83154   83145      68   83166   83157      68
   83178   83169      68   83190   83181      68   83202   83193      68   83214
   83205      68   83226   83217      68   83238   83229      68   83250   83241
      68   83262   83253      68   83274   83265      68   83286   83277      68
   83298   83289      68   83310   83301      68   83322   83313      68   83334
   83325      68   83346   83337      68   83358   83349      68   83370   83361
      68   83382   83373      68   83394   83385      68   83406   83397      68
   83418   83409      68   83430   83421      68   83442   83433      68   83454
   83445      68   83466   83457      68   83478   83469      68   83490   83481
      68   83502   83493      68   83514   83505      68   83526   83517      68
   83538   83529      68   83550   83541      68   83562   83553      68   83574
   83565      68   83586   83577      68   83598   83589      68   83610   83601
      68   83622   83613      68   83634   83625      68   83646   83637      68
   83658   83649      68   83670   83661      68   83682   83673      68   83694
   83685      68   83706   83697      68   83718   83709      68   83730   83721
      68   83742   83733      68   83754   83745      68   83766   83757      68
   83778   83769      68   83790   83781      68   83802   83793      68   83814
   83805      68   83826   83817      68   83838   83829      68   83850   83841
      68   83862   83853      68   83874   83865      68   83886   83877      68
   83898   83889      68   83910   83901      68   83922   83913      68   83934
   83925      68   83946   83937      68   83958   83949      68   83970   83961
      68   83982   83973      68   83994   83985      68   84006   83997      68
   84018   84009      68   84030   84021      68   84042   84033      68   84054
   84045      68   84066   84057      68   84078   84069      68   84090   84081
      68   84102   84093      68   84114   84105      68   84126   84117      68
   84138   84129      68   84150   84141      68   84162   84153      68   84174
   84165      68   84186   84177      68   84198   84189      68   84210   84201
      68   84222   84213      68   84234   84225      68   84246   84237      68
   84258   84249      68   84270   84261      68   84282   84273      68   84294
   84285      68   84306   84297      68   84318   84309      68   84330   84321
      68   84342   84333      68   84354   84345      68   84366   84357      68
   84378   84369      68   84390   84381      68   84402   84393      68   84414
   84405      68   84426   84417      68   84438   84429      68   84450   84441
      68   84462   84453      68   84474   84465      68   84486   84477      68
   84498   84489      68   84510   84501      68   84522   84513      68   84534
   84525      68   84546   84537      68   84558   84549      68   84570   84561
      68   84582   84573      68   84594   84585      68   84606   84597      68
   84618   84609      68   84630   84621      68   84642   84633      68   84654
   84645      68   84666   84657      68   84678   84669      68   84690   84681
      68   84702   84693      68   84714   84705      68   84726   84717      68
   84738   84729      68   84750   84741      68   84762   84753      68   84774
   84765      68   84786   84777      68   84798   84789      68   84810   84801
      68   84822   84813      68   84834   84825      68   84846   84837      68
   84858   84849      68   84870   84861      68   84882   84873      68   84894
   84885      68   84906   84897      68   84918   84909      68   84930   84921
      68   84942   84933      68   84954   84945      68   84966   84957      68
   84978   84969      68   84990   84981      68   85002   84993      68   85014
   85005      68   85026   85017      68   85038   85029      68   85050   85041
      68   85062   85053      68   85074   85065      68   85086   85077      68
   85098   85089      68   85110   85101      68   85122   85113      68   85134
   85125      68   85146   85137      68   85158   85149      68   85170   85161
      68   85182   85173      68   85194   85185      68   85206   85197      68
   85218   85209      68   85230   85221      68   85242   85233      68   85254
   85245      68   85266   85257      68   85278   85269      68   85290   85281
      68   85302   85293      68   85314   85305      68   85326   85317      68
   85338   85329      68   85350   85341      68   85362   85353      68   85374
   85365      68   85386   85377      68   85398   85389      68   85410   85401
      68   85422   85413      68   85434   85425      68   85446   85437      68
   85458   85449      68   85470   85461      68   85482   85473      68   85494
   85485      68   85506   85497      68   85518   85509      68   85530   85521
      68   85542   85533      68   85554   85545      68   85566   85557      68
   85578   85569      68   85590   85581      68   85602   85593      68   85614
   85605      68   85626   85617      68   85638   85629      68   85650   85641
      68   85662   85653      68   85674   85665      68   85686   85677      68
   85698   85689      68   85710   85701      68   85722   85713      68   85734
   85725      68   85746   85737      68   85758   85749      68   85770   85761
      68   85782   85773      68   85794   85785      68   85806   85797      68
   85818   85809      68   85830   85821      68   85842   85833      68   85854
   85845      68   85866   85857      68   85878   85869      68   85890   85881
      68   85902   85893      68   85914   85905      68   85926   85917      68
   85938   85929      68   85950   85941      68   85962   85953      68   85974
   85965      68   85986   85977      68   85998   85989      68   86010   86001
      68   86022   86013      68   86034   86025      68   86046   86037      68
   86058   86049      68   86070   86061      68   86082   86073      68   86094
   86085      68   86106   86097      68   86118   86109      68   86130   86121
      68   86142   86133      68   86154   86145      68   86166   86157      68
   86178   86169      68   86190   86181      68   86202   86193      68   86214
   86205      68   86226   86217      68   86238   86229      68   86250   86241
      68   86262   86253      68   86274   86265      68   86286   86277      68
   86298   86289      68   86310   86301      68   86322   86313      68   86334
   86325      68   86346   86337      68   86358   86349      68   86370   86361
      68   86382   86373      68   86394   86385      68   86406   86397      68
   86418   86409      68   86430   86421      68   86442   86433      68   86454
   86445      68   86466   86457      68   86478   86469      68   86490   86481
      68   86502   86493      68   86514   86505      68   86526   86517      68
   86538   86529      68   86550   86541      68   86562   86553      68   86574
   86565      68   86586   86577      68   86598   86589      68   86610   86601
      68   86622   86613      68   86634   86625      68   86646   86637      68
   86658   86649      68   86670   86661      68   86682   86673      68   86694
   86685      68   86706   86697      68   86718   86709      68   86730   86721
      68   86742   86733      68   86754   86745      68   86766   86757      68
   86778   86769      68   86790   86781      68   86802   86793      68   86814
   86805      68   86826   86817      68   86838   86829      68   86850   86841
      68   86862   86853      68   86874   86865      68   86886   86877      68
   86898   86889      68   86910   86901      68   86922   86913      68   86934
   86925      68   86946   86937      68   86958   86949      68   86970   86961
      68   86982   86973      68   86994   86985      68   87006   86997      68
   87018   87009      68   87030   87021      68   87042   87033      68   87054
   87045      68   87066   87057      68   87078   87069      68   87090   87081
      68   87102   87093      68   87114   87105      68   87126   87117      68
   87138   87129      68   87150   87141      68   87162   87153      68   87174
   87165      68   87186   87177      68   87198   87189      68   87210   87201
      68   87222   87213      68   87234   87225      68   87246   87237      68
   87258   87249      68   87270   87261      68   87282   87273      68   87294
   87285      68   87306   87297      68   87318   87309      68   87330   87321
      68   87342   87333      68   87354   87345      68   87366   87357      68
   87378   87369      68   87390   87381      68   87402   87393      68   87414
   87405      68   87426   87417      68   87438   87429      68   87450   87441
      68   87462   87453      68   87474   87465      68   87486   87477      68
   87498   87489      68   87510   87501      68   87522   87513      68   87534
   87525      68   87546   87537      68   87558   87549      68   87570   87561
      68   87582   87573      68   87594   87585      68   87606   87597      68
   87618   87609      68   87630   87621      68   87642   87633      68   87654
   87645      68   87666   87657      68   87678   87669      68   87690   87681
      68   87702   87693      68   87714   87705      68   87726   87717      68
   87738   87729      68   87750   87741      68   87762   87753      68   87774
   87765      68   87786   87777      68   87798   87789      68   87810   87801
      68   87822   87813      68   87834   87825      68   87846   87837      68
   87858   87849      68   87870   87861      68   87882   87873      68   87894
   87885      68   87906   87897      68   87918   87909      68   87930   87921
      68   87942   87933      68   87954   87945      68   87966   87957      68
   87978   87969      68   87990   87981      68   88002   87993      68   88014
   88005      68   88026   88017      68   88038   88029      68   88050   88041
      68   88062   88053      68   88074   88065      68   88086   88077      68
   88098   88089      68   88110   88101      68   88122   88113      68   88134
   88125      68   88146   88137      68   88158   88149      68   88170   88161
      68   88182   88173      68   88194   88185      68   88206   88197      68
   88218   88209      68   88230   88221      68   88242   88233      68   88254
   88245      68   88266   88257      68   88278   88269      68   88290   88281
      68   88302   88293      68   88314   88305      68   88326   88317      68
   88338   88329      68   88350   88341      68   88362   88353      68   88374
   88365      68   88386   88377      68   88398   88389      68   88410   88401
      68   88422   88413      68   88434   88425      68   88446   88437      68
   88458   88449      68   88470   88461      68   88482   88473      68   88494
   88485      68   88506   88497      68   88518   88509      68   88530   88521
      68   88542   88533      68   88554   88545      68   88566   88557      68
   88578   88569      68   88590   88581      68   88602   88593      68   88614
   88605      68   88626   88617      68   88638   88629      68   88650   88641
      68   88662   88653      68   88674   88665      68   88686   88677      68
   88698   88689      68   88710   88701      68   88722   88713      68   88734
   88725      68   88746   88737      68   88758   88749      68   88770   88761
      68   88782   88773      68   88794   88785      68   88806   88797      68
   88818   88809      68   88830   88821      68   88842   88833      68   88854
   88845      68   88866   88857      68   88878   88869      68   88890   88881
      68   88902   88893      68   88914   88905      68   88926   88917      68
   88938   88929      68   88950   88941      68   88962   88953      68   88974
   88965      68   88986   88977      68   88998   88989      68   89010   89001
      68   89022   89013      68   89034   89025      68   89046   89037      68
   89058   89049      68   89070   89061      68   89082   89073      68   89094
   89085      68   89106   89097      68   89118   89109      68   89130   89121
      68   89142   89133      68   89154   89145      68   89166   89157      68
   89178   89169      68   89190   89181      68   89202   89193      68   89214
   89205      68   89226   89217      68   89238   89229      68   89250   89241
      68   89262   89253      68   89274   89265      68   89286   89277      68
   89298   89289      68   89310   89301      68   89322   89313      68   89334
   89325      68   89346   89337      68   89358   89349      68   89370   89361
      68   89382   89373      68   89394   89385      68   89406   89397      68
   89418   89409      68   89430   89421      68   89442   89433      68   89454
   89445      68   89466   89457      68   89478   89469      68   89490   89481
      68   89502   89493      68   89514   89505      68   89526   89517      68
   89538   89529      68   89550   89541      68   89562   89553      68   89574
   89565      68   89586   89577      68   89598   89589      68   89610   89601
      68   89622   89613      68   89634   89625      68   89646   89637      68
   89658   89649      68   89670   89661      68   89682   89673      68   89694
   89685      68   89706   89697      68   89718   89709      68   89730   89721
      68   89742   89733      68   89754   89745      68   89766   89757      68
   89778   89769      68   89790   89781      68   89802   89793      68   89814
   89805      68   89826   89817      68   89838   89829      68   89850   89841
      68   89862   89853      68   89874   89865      68   89886   89877      68
   89898   89889      68   89910   89901      68   89922   89913      68   89934
   89925      68   89946   89937      68   89958   89949      68   89970   89961
      68   89982   89973      68   89994   89985      68   90006   89997      68
   90018   90009      68   90030   90021      68   90042   90033      68   90054
   90045      68   90066   90057      68   90078   90069      68   90090   90081
      68   90102   90093      68   90114   90105      68   90126   90117      68
   90138   90129      68   90150   90141      68   90162   90153      68   90174
   90165      68   90186   90177      68   90198   90189      68   90210   90201
      68   90222   90213      68   90234   90225      68   90246   90237      68
   90258   90249      68   90270   90261      68   90282   90273      68   90294
   90285      68   90306   90297      68   90318   90309      68   90330   90321
      68   90342   90333      68   90354   90345      68   90366   90357      68
   90378   90369      68   90390   90381      68   90402   90393      68   90414
   90405      68   90426   90417      68   90438   90429      68   90450   90441
      68   90462   90453      68   90474   90465      68   90486   90477      68
   90498   90489      68   90510   90501      68   90522   90513      68   90534
   90525      68   90546   90537      68   90558   90549      68   90570   90561
      68   90582   90573      68   90594   90585      68   90606   90597      68
   90618   90609      68   90630   90621      68   90642   90633      68   90654
   90645      68   90666   90657      68   90678   90669      68   90690   90681
      68   90702   90693      68   90714   90705      68   90726   90717      68
   90738   90729      68   90750   90741      68   90762   90753      68   90774
   90765      68   90786   90777      68   90798   90789      68   90810   90801
      68   90822   90813      68   90834   90825      68   90846   90837      68
   90858   90849      68   90870   90861      68   90882   90873      68   90894
   90885      68   90906   90897      68   90918   90909      68   90930   90921
      68   90942   90933      68   90954   90945      68   90966   90957      68
   90978   90969      68   90990   90981      68   91002   90993      68   91014
   91005      68   91026   91017      68   91038   91029      68   91050   91041
      68   91062   91053      68   91074   91065      68   91086   91077      68
   91098   91089      68   91110   91101      68   91122   91113      68   91134
   91125      68   91146   91137      68   91158   91149      68   91170   91161
      68   91182   91173      68   91194   91185      68   91206   91197      68
   91218   91209      68   91230   91221      68   91242   91233      68   91254
   91245      68   91266   91257      68   91278   91269      68   91290   91281
      68   91302   91293      68   91314   91305      68   91326   91317      68
   91338   91329      68   91350   91341      68   91362   91353      68   91374
   91365      68   91386   91377      68   91398   91389      68   91410   91401
      68   91422   91413      68   91434   91425      68   91446   91437      68
   91458   91449      68   91470   91461      68   91482   91473      68   91494
   91485      68   91506   91497      68   91518   91509      68   91530   91521
      68   91542   91533      68   91554   91545      68   91566   91557      68
   91578   91569      68   91590   91581      68   91602   91593      68   91614
   91605      68   91626   91617      68   91638   91629      68   91650   91641
      68   91662   91653      68   91674   91665      68   91686   91677      68
   91698   91689      68   91710   91701      68   91722   91713      68   91734
   91725      68   91746   91737      68   91758   91749      68   91770   91761
      68   91782   91773      68   91794   91785      68   91806   91797      68
   91818   91809      68   91830   91821      68   91842   91833      68   91854
   91845      68   91866   91857      68   91878   91869      68   91890   91881
      68   91902   91893      68   91914   91905      68   91926   91917      68
   91938   91929      68   91950   91941      68   91962   91953      68   91974
   91965      68   91986   91977      68   91998   91989      68   92010   92001
      68   92022   92013      68   92034   92025      68   92046   92037      68
   92058   92049      68   92070   92061      68   92082   92073      68   92094
   92085      68   92106   92097      68   92118   92109      68   92130   92121
      68   92142   92133      68   92154   92145      68   92166   92157      68
   92178   92169      68   92190   92181      68   92202   92193      68   92214
   92205      68   92226   92217      68   92238   92229      68   92250   92241
      68   92262   92253      68   92274   92265      68   92286   92277      68
   92298   92289      68   92310   92301      68   92322   92313      68   92334
   92325      68   92346   92337      68   92358   92349      68   92370   92361
      68   92382   92373      68   92394   92385      68   92406   92397      68
   92418   92409      68   92430   92421      68   92442   92433      68   92454
   92445      68   92466   92457      68   92478   92469      68   92490   92481
      68   92502   92493      68   92514   92505      68   92526   92517      68
   92538   92529      68   92550   92541      68   92562   92553      68   92574
   92565      68   92586   92577      68   92598   92589      68   92610   92601
      68   92622   92613      68   92634   92625      68   92646   92637      68
   92658   92649      68   92670   92661      68   92682   92673      68   92694
   92685      68   92706   92697      68   92718   92709      68   92730   92721
      68   92742   92733      68   92754   92745      68   92766   92757      68
   92778   92769      68   92790   92781      68   92802   92793      68   92814
   92805      68   92826   92817      68   92838   92829      68   92850   92841
      68   92862   92853      68   92874   92865      68   92886   92877      68
   92898   92889      68   92910   92901      68   92922   92913      68   92934
   92925      68   92946   92937      68   92958   92949      68   92970   92961
      68   92982   92973      68   92994   92985      68   93006   92997      68
   93018   93009      68   93030   93021      68   93042   93033      68   93054
   93045      68   93066   93057      68   93078   93069      68   93090   93081
      68   93102   93093      68   93114   93105      68   93126   93117      68
   93138   93129      68   93150   93141      68   93162   93153      68   93174
   93165      68   93186   93177      68   93198   93189      68   93210   93201
      68   93222   93213      68   93234   93225      68   93246   93237      68
   93258   93249      68   93270   93261      68   93282   93273      68   93294
   93285      68   93306   93297      68   93318   93309      68   93330   93321
      68   93342   93333      68   93354   93345      68   93366   93357      68
   93378   93369      68   93390   93381      68   93402   93393      68   93414
   93405      68   93426   93417      68   93438   93429      68   93450   93441
      68   93462   93453      68   93474   93465      68   93486   93477      68
   93498   93489      68   93510   93501      68   93522   93513      68   93534
   93525      68   93546   93537      68   93558   93549      68   93570   93561
      68   93582   93573      68   93594   93585      68   93606   93597      68
   93618   93609      68   93630   93621      68   93642   93633      68   93654
   93645      68   93666   93657      68   93678   93669      68   93690   93681
      68   93702   93693      68   93714   93705      68   93726   93717      68
   93738   93729      68   93750   93741      68   93762   93753      68   93774
   93765      68   93786   93777      68   93798   93789      68   93810   93801
      68   93822   93813      68   93834   93825      68   93846   93837      68
   93858   93849      68   93870   93861      68   93882   93873      68   93894
   93885      68   93906   93897      68   93918   93909      68   93930   93921
      68   93942   93933      68   93954   93945      68   93966   93957      68
   93978   93969      68   93990   93981      68   94002   93993      68   94014
   94005      68   94026   94017      68   94038   94029      68   94050   94041
      68   94062   94053      68   94074   94065      68   94086   94077      68
   94098   94089      68   94110   94101      68   94122   94113      68   94134
   94125      68   94146   94137      68   94158   94149      68   94170   94161
      68   94182   94173      68   94194   94185      68   94206   94197      68
   94218   94209      68   94230   94221      68   94242   94233      68   94254
   94245      68   94266   94257      68   94278   94269      68   94290   94281
      68   94302   94293      68   94314   94305      68   94326   94317      68
   94338   94329      68   94350   94341      68   94362   94353      68   94374
   94365      68   94386   94377      68   94398   94389      68   94410   94401
      68   94422   94413      68   94434   94425      68   94446   94437      68
   94458   94449      68   94470   94461      68   94482   94473      68   94494
   94485      68   94506   94497      68   94518   94509      68   94530   94521
      68   94542   94533      68   94554   94545      68   94566   94557      68
   94578   94569      68   94590   94581      68   94602   94593      68   94614
   94605      68   94626   94617      68   94638   94629      68   94650   94641
      68   94662   94653      68   94674   94665      68   94686   94677      68
   94698   94689      68   94710   94701      68   94722   94713      68   94734
   94725      68   94746   94737      68   94758   94749      68   94770   94761
      68   94782   94773      68   94794   94785      68   94806   94797      68
   94818   94809      68   94830   94821      68   94842   94833      68   94854
   94845      68   94866   94857      68   94878   94869      68   94890   94881
      68   94902   94893      68   94914   94905      68   94926   94917      68
   94938   94929      68   94950   94941      68   94962   94953      68   94974
   94965      68   94986   94977      68   94998   94989      68   95010   95001
      68   95022   95013      68   95034   95025      68   95046   95037      68
   95058   95049      68   95070   95061      68   95082   95073      68   95094
   95085      68   95106   95097      68   95118   95109      68   95130   95121
      68   95142   95133      68   95154   95145      68   95166   95157      68
   95178   95169      68   95190   95181      68   95202   95193      68   95214
   95205      68   95226   95217      68   95238   95229      68   95250   95241
      68   95262   95253      68   95274   95265      68   95286   95277      68
   95298   95289      68   95310   95301      68   95322   95313      68   95334
   95325      68   95346   95337      68   95358   95349      68   95370   95361
      68   95382   95373      68   95394   95385      68   95406   95397      68
   95418   95409      68   95430   95421      68   95442   95433      68   95454
   95445      68   95466   95457      68   95478   95469      68   95490   95481
      68   95502   95493      68   95514   95505      68   95526   95517      68
   95538   95529      68   95550   95541      68   95562   95553      68   95574
   95565      68   95586   95577      68   95598   95589      68   95610   95601
      68   95622   95613      68   95634   95625      68   95646   95637      68
   95658   95649      68   95670   95661      68   95682   95673      68   95694
   95685      68   95706   95697      68   95718   95709      68   95730   95721
      68   95742   95733      68   95754   95745      68   95766   95757      68
   95778   95769      68   95790   95781      68   95802   95793      68   95814
   95805      68   95826   95817      68   95838   95829      68   95850   95841
      68   95862   95853      68   95874   95865      68   95886   95877      68
   95898   95889      68   95910   95901      68   95922   95913      68   95934
   95925      68   95946   95937      68   95958   95949      68   95970   95961
      68   95982   95973      68   95994   95985      68   96006   95997      68
   96018   96009      68   96030   96021      68   96042   96033      68   96054
   96045      68   96066   96057      68   96078   96069      68   96090   96081
      68   96102   96093      68   96114   96105      68   96126   96117      68
   96138   96129      68   96150   96141      68   96162   96153      68   96174
   96165      68   96186   96177      68   96198   96189      68   96210   96201
      68   96222   96213      68   96234   96225      68   96246   96237      68
   96258   96249      68   96270   96261      68   96282   96273      68   96294
   96285      68   96306   96297      68   96318   96309      68   96330   96321
      68   96342   96333      68   96354   96345      68   96366   96357      68
   96378   96369      68   96390   96381      68   96402   96393      68   96414
   96405      68   96426   96417      68   96438   96429      68   96450   96441
      68   96462   96453      68   96474   96465      68   96486   96477      68
   96498   96489      68   96510   96501      68   96522   96513      68   96534
   96525      68   96546   96537      68   96558   96549      68   96570   96561
      68   96582   96573      68   96594   96585      68   96606   96597      68
   96618   96609      68   96630   96621      68   96642   96633      68   96654
   96645      68   96666   96657      68   96678   96669      68   96690   96681
      68   96702   96693      68   96714   96705      68   96726   96717      68
   96738   96729      68   96750   96741      68   96762   96753      68   96774
   96765      68   96786   96777      68   96798   96789      68   96810   96801
      68   96822   96813      68   96834   96825      68   96846   96837      68
   96858   96849      68   96870   96861      68   96882   96873      68   96894
   96885      68   96906   96897      68   96918   96909      68   96930   96921
      68   96942   96933      68   96954   96945      68   96966   96957      68
   96978   96969      68   96990   96981      68   97002   96993      68   97014
   97005      68   97026   97017      68   97038   97029      68   97050   97041
      68   97062   97053      68   97074   97065      68   97086   97077      68
   97098   97089      68   97110   97101      68   97122   97113      68   97134
   97125      68   97146   97137      68   97158   97149      68   97170   97161
      68   97182   97173      68   97194   97185      68   97206   97197      68
   97218   97209      68   97230   97221      68   97242   97233      68   97254
   97245      68   97266   97257      68   97278   97269      68   97290   97281
      68   97302   97293      68   97314   97305      68   97326   97317      68
   97338   97329      68   97350   97341      68   97362   97353      68   97374
   97365      68   97386   97377      68   97398   97389      68   97410   97401
      68   97422   97413      68   97434   97425      68   97446   97437      68
   97458   97449      68   97470   97461      68   97482   97473      68   97494
   97485      68   97506   97497      68   97518   97509      68   97530   97521
      68   97542   97533      68   97554   97545      68   97566   97557      68
   97578   97569      68   97590   97581      68   97602   97593      68   97614
   97605      68   97626   97617      68   97638   97629      68   97650   97641
      68   97662   97653      68   97674   97665      68   97686   97677      68
   97698   97689      68   97710   97701      68   97722   97713      68   97734
   97725      68   97746   97737      68   97758   97749      68   97770   97761
      68   97782   97773      68   97794   97785      68   97806   97797      68
   97818   97809      68   97830   97821      68   97842   97833      68   97854
   97845      68   97866   97857      68   97878   97869      68   97890   97881
      68   97902   97893      68   97914   97905      68   97926   97917      68
   97938   97929      68   97950   97941      68   97962   97953      68   97974
   97965      68   97986   97977      68   97998   97989      68   98010   98001
      68   98022   98013      68   98034   98025      68   98046   98037      68
   98058   98049      68   98070   98061      68   98082   98073      68   98094
   98085      68   98106   98097      68   98118   98109      68   98130   98121
      68   98142   98133      68   98154   98145      68   98166   98157      68
   98178   98169      68   98190   98181      68   98202   98193      68   98214
   98205      68   98226   98217      68   98238   98229      68   98250   98241
      68   98262   98253      68   98274   98265      68   98286   98277      68
   98298   98289      68   98310   98301      68   98322   98313      68   98334
   98325      68   98346   98337      68   98358   98349      68   98370   98361
      68   98382   98373      68   98394   98385      68   98406   98397      68
   98418   98409      68   98430   98421      68   98442   98433      68   98454
   98445      68   98466   98457      68   98478   98469      68   98490   98481
      68   98502   98493      68   98514   98505      68   98526   98517      68
   98538   98529      68   98550   98541      68   98562   98553      68   98574
   98565      68   98586   98577      68   98598   98589      68   98610   98601
      68   98622   98613      68   98634   98625      68   98646   98637      68
   98658   98649      68   98670   98661      68   98682   98673      68   98694
   98685      68   98706   98697      68   98718   98709      68   98730   98721
      68   98742   98733      68   98754   98745      68   98766   98757      68
   98778   98769      68   98790   98781      68   98802   98793      68   98814
   98805      68   98826   98817      68   98838   98829      68   98850   98841
      68   98862   98853      68   98874   98865      68   98886   98877      68
   98898   98889      68   98910   98901      68   98922   98913      68   98934
   98925      68   98946   98937      68   98958   98949      68   98970   98961
      68   98982   98973      68   98994   98985      68   99006   98997      68
   99018   99009      68   99030   99021      68   99042   99033      68   99054
   99045      68   99066   99057      68   99078   99069      68   99090   99081
      68   99102   99093      68   99114   99105      68   99126   99117      68
   99138   99129      68   99150   99141      68   99162   99153      68   99174
   99165      68   99186   99177      68   99198   99189      68   99210   99201
      68   99222   99213      68   99234   99225      68   99246   99237      68
   99258   99249      68   99270   99261      68   99282   99273      68   99294
   99285      68   99306   99297      68   99318   99309      68   99330   99321
      68   99342   99333      68   99354   99345      68   99366   99357      68
   99378   99369      68   99390   99381      68   99402   99393      68   99414
   99405      68   99426   99417      68   99438   99429      68   99450   99441
      68   99462   99453      68   99474   99465      68   99486   99477      68
   99498   99489      68   99510   99501      68   99522   99513      68   99534
   99525      68   99546   99537      68   99558   99549      68   99570   99561
      68   99582   99573      68   99594   99585      68   99606   99597      68
   99618   99609      68   99630   99621      68   99642   99633      68   99654
   99645      68   99666   99657      68   99678   99669      68   99690   99681
      68   99702   99693      68   99714   99705      68   99726   99717      68
   99738   99729      68   99750   99741      68   99762   99753      68   99774
   99765      68   99786   99777      68   99798   99789      68   99810   99801
      68   99822   99813      68   99834   99825      68   99846   99837      68
   99858   99849      68   99870   99861      68   99882   99873      68   99894
   99885      68   99906   99897      68   99918   99909      68   99930   99921
      68   99942   99933      68   99954   99945      68   99966   99957      68
   99978   99969      68   99990   99981      68  100002   99993      68  100014
  100005      68  100026  100017      68  100038  100029      68  100050  100041
      68  100062  100053      68  100074  100065      68  100086  100077      68
  100098  100089      68  100110  100101      68  100122  100113      68  100134
  100125      68  100146  100137      68  100158  100149      68  100170  100161
      68  100182  100173      68  100194  100185      68  100206  100197      68
  100218  100209      68  100230  100221      68  100242  100233      68  100254
  100245      68  100266  100257      68  100278  100269      68  100290  100281
      68  100302  100293      68  100314  100305      68  100326  100317      68
  100338  100329      68  100350  100341      68  100362  100353      68  100374
  100365      68  100386  100377      68  100398  100389      68  100410  100401
      68  100422  100413      68  100434  100425      68  100446  100437      68
  100458  100449      68  100470  100461      68  100482  100473      68  100494
  100485      68  100506  100497      68  100518  100509      68  100530  100521
      68  100542  100533      68  100554  100545      68  100566  100557      68
  100578  100569      68  100590  100581      68  100602  100593      68  100614
  100605      68  100626  100617      68  100638  100629      68  100650  100641
      68  100662  100653      68  100674  100665      68  100686  100677      68
  100698  100689      68  100710  100701      68  100722  100713      68  100734
  100725      68  100746  100737      68  100758  100749      68  100770  100761
      68  100782  100773      68  100794  100785      68  100806  100797      68
  100818  100809      68  100830  100821      68  100842  100833      68  100854
  100845      68  100866  100857      68  100878  100869      68  100890  100881
      68  100902  100893      68  100914  100905      68  100926  100917      68
  100938  100929      68  100950  100941      68  100962  100953      68  100974
  100965      68  100986  100977      68  100998  100989      68  101010  101001
      68  101022  101013      68  101034  101025      68  101046  101037      68
  101058  101049      68  101070  101061      68  101082  101073      68  101094
  101085      68  101106  101097      68  101118  101109      68  101130  101121
      68  101142  101133      68  101154  101145      68  101166  101157      68
  101178  101169      68  101190  101181      68  101202  101193      68  101214
  101205      68  101226  101217      68  101238  101229      68  101250  101241
      68  101262  101253      68  101274  101265      68  101286  101277      68
  101298  101289      68  101310  101301      68  101322  101313      68  101334
  101325      68  101346  101337      68  101358  101349      68  101370  101361
      68  101382  101373      68  101394  101385      68  101406  101397      68
  101418  101409      68  101430  101421      68  101442  101433      68  101454
  101445      68  101466  101457      68  101478  101469      68  101490  101481
      68  101502  101493      68  101514  101505      68  101526  101517      68
  101538  101529      68  101550  101541      68  101562  101553      68  101574
  101565      68  101586  101577      68  101598  101589      68  101610  101601
      68  101622  101613      68  101634  101625      68  101646  101637      68
  101658  101649      68  101670  101661      68  101682  101673      68  101694
  101685      68  101706  101697      68  101718  101709      68  101730  101721
      68  101742  101733      68  101754  101745      68  101766  101757      68
  101778  101769      68  101790  101781      68  101802  101793      68  101814
  101805      68  101826  101817      68  101838  101829      68  101850  101841
      68  101862  101853      68  101874  101865      68  101886  101877      68
  101898  101889      68  101910  101901      68  101922  101913      68  101934
  101925      68  101946  101937      68  101958  101949      68  101970  101961
      68  101982  101973      68  101994  101985      68  102006  101997      68
  102018  102009      68  102030  102021      68  102042  102033      68  102054
  102045      68  102066  102057      68  102078  102069      68  102090  102081
      68  102102  102093      68  102114  102105      68  102126  102117      68
  102138  102129      68  102150  102141      68  102162  102153      68  102174
  102165      68  102186  102177      68  102198  102189      68  102210  102201
      68  102222  102213      68  102234  102225      68  102246  102237      68
  102258  102249      68  102270  102261      68  102282  102273      68  102294
  102285      68  102306  102297      68  102318  102309      68  102330  102321
      68  102342  102333      68  102354  102345      68  102366  102357      68
  102378  102369      68  102390  102381      68  102402  102393      68  102414
  102405      68  102426  102417      68  102438  102429      68  102450  102441
      68  102462  102453      68  102474  102465      68  102486  102477      68
  102498  102489      68  102510  102501      68  102522  102513      68  102534
  102525      68  102546  102537      68  102558  102549      68  102570  102561
      68  102582  102573      68  102594  102585      68  102606  102597      68
  102618  102609      68  102630  102621      68  102642  102633      68  102654
  102645      68  102666  102657      68  102678  102669      68  102690  102681
      68  102702  102693      68  102714  102705      68  102726  102717      68
  102738  102729      68  102750  102741      68  102762  102753      68  102774
  102765      68  102786  102777      68  102798  102789      68  102810  102801
      68  102822  102813      68  102834  102825      68  102846  102837      68
  102858  102849      68  102870  102861      68  102882  102873      68  102894
  102885      68  102906  102897      68  102918  102909      68  102930  102921
      68  102942  102933      68  102954  102945      68  102966  102957      68
  102978  102969      68  102990  102981      68  103002  102993      68  103014
  103005      68  103026  103017      68  103038  103029      68  103050  103041
      68  103062  103053      68  103074  103065      68  103086  103077      68
  103098  103089      68  103110  103101      68  103122  103113      68  103134
  103125      68  103146  103137      68  103158  103149      68  103170  103161
      68  103182  103173      68  103194  103185      68  103206  103197      68
  103218  103209      68  103230  103221      68  103242  103233      68  103254
  103245      68  103266  103257      68  103278  103269      68  103290  103281
      68  103302  103293      68  103314  103305      68  103326  103317      68
  103338  103329      68  103350  103341      68  103362  103353      68  103374
  103365      68  103386  103377      68  103398  103389      68  103410  103401
      68  103422  103413      68  103434  103425      68  103446  103437      68
  103458  103449      68  103470  103461      68  103482  103473      68  103494
  103485      68  103506  103497      68  103518  103509      68  103530  103521
      68  103542  103533      68  103554  103545      68  103566  103557      68
  103578  103569      68  103590  103581      68  103602  103593      68  103614
  103605      68  103626  103617      68  103638  103629      68  103650  103641
      68  103662  103653      68  103674  103665      68  103686  103677      68
  103698  103689      68  103710  103701      68  103722  103713      68  103734
  103725      68  103746  103737      68  103758  103749      68  103770  103761
      68  103782  103773      68  103794  103785      68  103806  103797      68
  103818  103809      68  103830  103821      68  103842  103833      68  103854
  103845      68  103866  103857      68  103878  103869      68  103890  103881
      68  103902  103893      68  103914  103905      68  103926  103917      68
  103938  103929      68  103950  103941      68  103962  103953      68  103974
  103965      68  103986  103977      68  103998  103989      68  104010  104001
      68  104022  104013      68  104034  104025      68  104046  104037      68
  104058  104049      68  104070  104061      68  104082  104073      68  104094
  104085      68  104106  104097      68  104118  104109      68  104130  104121
      68  104142  104133      68  104154  104145      68  104166  104157      68
  104178  104169      68  104190  104181      68  104202  104193      68  104214
  104205      68  104226  104217      68  104238  104229      68  104250  104241
      68  104262  104253      68  104274  104265      68  104286  104277      68
  104298  104289      68  104310  104301      68  104322  104313      68  104334
  104325      68  104346  104337      68  104358  104349      68  104370  104361
      68  104382  104373      68  104394  104385      68  104406  104397      68
  104418  104409      68  104430  104421      68  104442  104433      68  104454
  104445      68  104466  104457      68  104478  104469      68  104490  104481
      68  104502  104493      68  104514  104505      68  104526  104517      68
  104538  104529      68  104550  104541      68  104562  104553      68  104574
  104565      68  104586  104577      68  104598  104589      68  104610  104601
      68  104622  104613      68  104634  104625      68  104646  104637      68
  104658  104649      68  104670  104661      68  104682  104673      68  104694
  104685      68  104706  104697      68  104718  104709      68  104730  104721
      68  104742  104733      68  104754  104745      68  104766  104757      68
  104778  104769      68  104790  104781      68  104802  104793      68  104814
  104805      68  104826  104817      68  104838  104829      68  104850  104841
      68  104862  104853      68  104874  104865      68  104886  104877      68
  104898  104889      68  104910  104901      68  104922  104913      68  104934
  104925      68  104946  104937      68  104958  104949      68  104970  104961
      68  104982  104973      68  104994  104985      68  105006  104997      68
  105018  105009      68  105030  105021      68  105042  105033      68  105054
  105045      68  105066  105057      68  105078  105069      68  105090  105081
      68  105102  105093      68  105114  105105      68  105126  105117      68
  105138  105129      68  105150  105141      68  105162  105153      68  105174
  105165      68  105186  105177      68  105198  105189      68  105210  105201
      68  105222  105213      68  105234  105225      68  105246  105237      68
  105258  105249      68  105270  105261      68  105282  105273      68  105294
  105285      68  105306  105297      68  105318  105309      68  105330  105321
      68  105342  105333      68  105354  105345      68  105366  105357      68
  105378  105369      68  105390  105381      68  105402  105393      68  105414
  105405      68  105426  105417      68  105438  105429      68  105450  105441
      68  105462  105453      68  105474  105465      68  105486  105477      68
  105498  105489      68  105510  105501      68  105522  105513      68  105534
  105525      68  105546  105537      68  105558  105549      68  105570  105561
      68  105582  105573      68  105594  105585      68  105606  105597      68
  105618  105609      68  105630  105621      68  105642  105633      68  105654
  105645      68  105666  105657      68  105678  105669      68  105690  105681
      68  105702  105693      68  105714  105705      68  105726  105717      68
  105738  105729      68  105750  105741      68  105762  105753      68  105774
  105765      68  105786  105777      68  105798  105789      68  105810  105801
      68  105822  105813      68  105834  105825      68  105846  105837      68
  105858  105849      68  105870  105861      68  105882  105873      68  105894
  105885      68  105906  105897      68  105918  105909      68  105930  105921
      68  105942  105933      68  105954  105945      68  105966  105957      68
  105978  105969      68  105990  105981      68  106002  105993      68  106014
  106005      68  106026  106017      68  106038  106029      68  106050  106041
      68  106062  106053      68  106074  106065      68  106086  106077      68
  106098  106089      68  106110  106101      68  106122  106113      68  106134
  106125      68  106146  106137      68  106158  106149      68  106170  106161
      68  106182  106173      68  106194  106185      68  106206  106197      68
  106218  106209      68  106230  106221      68  106242  106233      68  106254
  106245      68  106266  106257      68  106278  106269      68  106290  106281
      68  106302  106293      68  106314  106305      68  106326  106317      68
  106338  106329      68  106350  106341      68  106362  106353      68  106374
  106365      68  106386  106377      68  106398  106389      68  106410  106401
      68  106422  106413      68  106434  106425      68  106446  106437      68
  106458  106449      68  106470  106461      68  106482  106473      68  106494
  106485      68  106506  106497      68  106518  106509      68  106530  106521
      68  106542  106533      68  106554  106545      68  106566  106557      68
  106578  106569      68  106590  106581      68  106602  106593      68  106614
  106605      68  106626  106617      68  106638  106629      68  106650  106641
      68  106662  106653      68  106674  106665      68  106686  106677      68
  106698  106689      68  106710  106701      68  106722  106713      68  106734
  106725      68  106746  106737      68  106758  106749      68  106770  106761
      68  106782  106773      68  106794  106785      68  106806  106797      68
  106818  106809      68  106830  106821      68  106842  106833      68  106854
  106845      68  106866  106857      68  106878  106869      68  106890  106881
      68  106902  106893      68  106914  106905      68  106926  106917      68
  106938  106929      68  106950  106941      68  106962  106953      68  106974
  106965      68  106986  106977      68  106998  106989      68  107010  107001
      68  107022  107013      68  107034  107025      68  107046  107037      68
  107058  107049      68  107070  107061      68  107082  107073      68  107094
  107085      68  107106  107097      68  107118  107109      68  107130  107121
      68  107142  107133      68  107154  107145      68  107166  107157      68
  107178  107169      68  107190  107181      68  107202  107193      68  107214
  107205      68  107226  107217      68  107238  107229      68  107250  107241
      68  107262  107253      68  107274  107265      68  107286  107277      68
  107298  107289      68  107310  107301      68  107322  107313      68  107334
  107325      68  107346  107337      68  107358  107349      68  107370  107361
      68  107382  107373      68  107394  107385      68  107406  107397      68
  107418  107409      68  107430  107421      68  107442  107433      68  107454
  107445      68  107466  107457      68  107478  107469      68  107490  107481
      68  107502  107493      68  107514  107505      68  107526  107517      68
  107538  107529      68  107550  107541      68  107562  107553      68  107574
  107565      68  107586  107577      68  107598  107589      68  107610  107601
      68  107622  107613      68  107634  107625      68  107646  107637      68
  107658  107649      68  107670  107661      68  107682  107673      68  107694
  107685      68  107706  107697      68  107718  107709      68  107730  107721
      68  107742  107733      68  107754  107745      68  107766  107757      68
  107778  107769      68  107790  107781      68  107802  107793      68  107814
  107805      68  107826  107817      68  107838  107829      68  107850  107841
      68  107862  107853      68  107874  107865      68  107886  107877      68
  107898  107889      68  107910  107901      68  107922  107913      68  107934
  107925      68  107946  107937      68  107958  107949      68  107970  107961
      68  107982  107973      68  107994  107985      68  108006  107997      68
  108018  108009      68  108030  108021      68  108042  108033      68  108054
  108045      68  108066  108057      68  108078  108069      68  108090  108081
      68  108102  108093      68  108114  108105      68  108126  108117      68
  108138  108129      68  108150  108141      68  108162  108153      68  108174
  108165      68  108186  108177      68  108198  108189      68  108210  108201
      68  108222  108213      68  108234  108225      68  108246  108237      68
  108258  108249      68  108270  108261      68  108282  108273      68  108294
  108285      68  108306  108297      68  108318  108309      68  108330  108321
      68  108342  108333      68  108354  108345      68  108366  108357      68
  108378  108369      68  108390  108381      68  108402  108393      68  108414
  108405      68  108426  108417      68  108438  108429      68  108450  108441
      68  108462  108453      68  108474  108465      68  108486  108477      68
  108498  108489      68  108510  108501      68  108522  108513      68  108534
  108525      68  108546  108537      68  108558  108549      68  108570  108561
      68  108582  108573      68  108594  108585      68  108606  108597      68
  108618  108609      68  108630  108621      68  108642  108633      68  108654
  108645      68  108666  108657      68  108678  108669      68  108690  108681
      68  108702  108693      68  108714  108705      68  108726  108717      68
  108738  108729      68  108750  108741      68  108762  108753      68  108774
  108765      68  108786  108777      68  108798  108789      68  108810  108801
      68  108822  108813      68  108834  108825      68  108846  108837      68
  108858  108849      68  108870  108861      68  108882  108873      68  108894
  108885      68  108906  108897      68  108918  108909      68  108930  108921
      68  108942  108933      68  108954  108945      68  108966  108957      68
  108978  108969      68  108990  108981      68  109002  108993      68  109014
  109005      68  109026  109017      68  109038  109029      68  109050  109041
      68  109062  109053      68  109074  109065      68  109086  109077      68
  109098  109089      68  109110  109101      68  109122  109113      68  109134
  109125      68  109146  109137      68  109158  109149      68  109170  109161
      68  109182  109173      68  109194  109185      68  109206  109197      68
  109218  109209      68  109230  109221      68  109242  109233      68  109254
  109245      68  109266  109257      68  109278  109269      68  109290  109281
      68  109302  109293      68  109314  109305      68  109326  109317      68
  109338  109329      68  109350  109341      68  109362  109353      68  109374
  109365      68  109386  109377      68  109398  109389      68  109410  109401
      68  109422  109413      68  109434  109425      68  109446  109437      68
  109458  109449      68  109470  109461      68  109482  109473      68  109494
  109485      68  109506  109497      68  109518  109509      68  109530  109521
      68  109542  109533      68  109554  109545      68  109566  109557      68
  109578  109569      68  109590  109581      68  109602  109593      68  109614
  109605      68  109626  109617      68  109638  109629      68  109650  109641
      68  109662  109653      68  109674  109665      68  109686  109677      68
  109698  109689      68  109710  109701      68  109722  109713      68  109734
  109725      68  109746  109737      68  109758  109749      68  109770  109761
      68  109782  109773      68  109794  109785      68  109806  109797      68
  109818  109809      68  109830  109821      68  109842  109833      68  109854
  109845      68  109866  109857      68  109878  109869      68  109890  109881
      68  109902  109893      68  109914  109905      68  109926  109917      68
  109938  109929      68  109950  109941      68  109962  109953      68  109974
  109965      68  109986  109977      68  109998  109989      68  110010  110001
      68  110022  110013      68  110034  110025      68  110046  110037      68
  110058  110049      68  110070  110061      68  110082  110073      68  110094
  110085      68  110106  110097      68  110118  110109      68  110130  110121
      68  110142  110133      68  110154  110145      68  110166  110157      68
  110178  110169      68  110190  110181      68  110202  110193      68  110214
  110205      68  110226  110217      68  110238  110229      68  110250  110241
      68  110262  110253      68  110274  110265      68  110286  110277      68
  110298  110289      68  110310  110301      68  110322  110313      68  110334
  110325      68  110346  110337      68  110358  110349      68  110370  110361
      68  110382  110373      68  110394  110385      68  110406  110397      68
  110418  110409      68  110430  110421      68  110442  110433      68  110454
  110445      68  110466  110457      68  110478  110469      68  110490  110481
      68  110502  110493      68  110514  110505      68  110526  110517      68
  110538  110529      68  110550  110541      68  110562  110553      68  110574
  110565      68  110586  110577      68  110598  110589      68  110610  110601
      68  110622  110613      68  110634  110625      68  110646  110637      68
  110658  110649      68  110670  110661      68  110682  110673      68  110694
  110685      68  110706  110697      68  110718  110709      68  110730  110721
      68  110742  110733      68  110754  110745      68  110766  110757      68
  110778  110769      68  110790  110781      68  110802  110793      68  110814
  110805      68  110826  110817      68  110838  110829      68  110850  110841
      68  110862  110853      68  110874  110865      68  110886  110877      68
  110898  110889      68  110910  110901      68  110922  110913      68  110934
  110925      68  110946  110937      68  110958  110949      68  110970  110961
      68  110982  110973      68  110994  110985      68  111006  110997      68
  111018  111009      68  111030  111021      68  111042  111033      68  111054
  111045      68  111066  111057      68  111078  111069      68  111090  111081
      68  111102  111093      68  111114  111105      68  111126  111117      68
  111138  111129      68  111150  111141      68  111162  111153      68  111174
  111165      68  111186  111177      68  111198  111189      68  111210  111201
      68  111222  111213      68  111234  111225      68  111246  111237      68
  111258  111249      68  111270  111261      68  111282  111273      68  111294
  111285      68  111306  111297      68  111318  111309      68  111330  111321
      68  111342  111333      68  111354  111345      68  111366  111357      68
  111378  111369      68  111390  111381      68  111402  111393      68  111414
  111405      68  111426  111417      68  111438  111429      68  111450  111441
      68  111462  111453      68  111474  111465      68  111486  111477      68
  111498  111489      68  111510  111501      68  111522  111513      68  111534
  111525      68  111546  111537      68  111558  111549      68  111570  111561
      68  111582  111573      68  111594  111585      68  111606  111597      68
  111618  111609      68  111630  111621      68  111642  111633      68  111654
  111645      68  111666  111657      68  111678  111669      68  111690  111681
      68  111702  111693      68  111714  111705      68  111726  111717      68
  111738  111729      68  111750  111741      68  111762  111753      68  111774
  111765      68  111786  111777      68  111798  111789      68  111810  111801
      68  111822  111813      68  111834  111825      68  111846  111837      68
  111858  111849      68  111870  111861      68  111882  111873      68  111894
  111885      68  111906  111897      68  111918  111909      68  111930  111921
      68  111942  111933      68  111954  111945      68  111966  111957      68
  111978  111969      68  111990  111981      68  112002  111993      68  112014
  112005      68  112026  112017      68  112038  112029      68  112050  112041
      68  112062  112053      68  112074  112065      68  112086  112077      68
  112098  112089      68  112110  112101      68  112122  112113      68  112134
  112125      68  112146  112137      68  112158  112149      68  112170  112161
      68  112182  112173      68  112194  112185      68  112206  112197      68
  112218  112209      68  112230  112221      68  112242  112233      68  112254
  112245      68  112266  112257      68  112278  112269      68  112290  112281
      68  112302  112293      68  112314  112305      68  112326  112317      68
  112338  112329      68  112350  112341      68  112362  112353      68  112374
  112365      68  112386  112377      68  112398  112389      68  112410  112401
      68  112422  112413      68  112434  112425      68  112446  112437      68
  112458  112449      68  112470  112461      68  112482  112473      68  112494
  112485      68  112506  112497      68  112518  112509      68  112530  112521
      68  112542  112533      68  112554  112545      68  112566  112557      68
  112578  112569      68  112590  112581      68  112602  112593      68  112614
  112605      68  112626  112617      68  112638  112629      68  112650  112641
      68  112662  112653      68  112674  112665      68  112686  112677      68
  112698  112689      68  112710  112701      68  112722  112713      68  112734
  112725      68  112746  112737      68  112758  112749      68  112770  112761
      68  112782  112773      68  112794  112785      68  112806  112797      68
  112818  112809      68  112830  112821      68  112842  112833      68  112854
  112845      68  112866  112857      68  112878  112869      68  112890  112881
      68  112902  112893      68  112914  112905      68  112926  112917      68
  112938  112929      68  112950  112941      68  112962  112953      68  112974
  112965      68  112986  112977      68  112998  112989      68  113010  113001
      68  113022  113013      68  113034  113025      68  113046  113037      68
  113058  113049      68  113070  113061      68  113082  113073      68  113094
  113085      68  113106  113097      68  113118  113109      68  113130  113121
      68  113142  113133      68  113154  113145      68  113166  113157      68
  113178  113169      68  113190  113181      68  113202  113193      68  113214
  113205      68  113226  113217      68  113238  113229      68  113250  113241
      68  113262  113253      68  113274  113265      68  113286  113277      68
  113298  113289      68  113310  113301      68  113322  113313      68  113334
  113325      68  113346  113337      68  113358  113349      68  113370  113361
      68  113382  113373      68  113394  113385      68  113406  113397      68
  113418  113409      68  113430  113421      68  113442  113433      68  113454
  113445      68  113466  113457      68  113478  113469      68  113490  113481
      68  113502  113493      68  113514  113505      68  113526  113517      68
  113538  113529      68  113550  113541      68  113562  113553      68  113574
  113565      68  113586  113577      68  113598  113589      68  113610  113601
      68  113622  113613      68  113634  113625      68  113646  113637      68
  113658  113649      68  113670  113661      68  113682  113673      68  113694
  113685      68  113706  113697      68  113718  113709      68  113730  113721
      68  113742  113733      68  113754  113745      68  113766  113757      68
  113778  113769      68  113790  113781      68  113802  113793      68  113814
  113805      68  113826  113817      68  113838  113829      68  113850  113841
      68  113862  113853      68  113874  113865      68  113886  113877      68
  113898  113889      68  113910  113901      68  113922  113913      68  113934
  113925      68  113946  113937      68  113958  113949      68  113970  113961
      68  113982  113973      68  113994  113985      68  114006  113997      68
  114018  114009      68  114030  114021      68  114042  114033      68  114054
  114045      68  114066  114057      68  114078  114069      68  114090  114081
      68  114102  114093      68  114114  114105      68  114126  114117      68
  114138  114129      68  114150  114141      68  114162  114153      68  114174
  114165      68  114186  114177      68  114198  114189      68  114210  114201
      68  114222  114213      68  114234  114225      68  114246  114237      68
  114258  114249      68  114270  114261      68  114282  114273      68  114294
  114285      68  114306  114297      68  114318  114309      68  114330  114321
      68  114342  114333      68  114354  114345      68  114366  114357      68
  114378  114369      68  114390  114381      68  114402  114393      68  114414
  114405      68  114426  114417      68  114438  114429      68  114450  114441
      68  114462  114453      68  114474  114465      68  114486  114477      68
  114498  114489      68  114510  114501      68  114522  114513      68  114534
  114525      68  114546  114537      68  114558  114549      68  114570  114561
      68  114582  114573      68  114594  114585      68  114606  114597      68
  114618  114609      68  114630  114621      68  114642  114633      68  114654
  114645      68  114666  114657      68  114678  114669      68  114690  114681
      68  114702  114693      68  114714  114705      68  114726  114717      68
  114738  114729      68  114750  114741      68  114762  114753      68  114774
  114765      68  114786  114777      68  114798  114789      68  114810  114801
      68  114822  114813      68  114834  114825      68  114846  114837      68
  114858  114849      68  114870  114861      68  114882  114873      68  114894
  114885      68  114906  114897      68  114918  114909      68  114930  114921
      68  114942  114933      68  114954  114945      68  114966  114957      68
  114978  114969      68  114990  114981      68  115002  114993      68  115014
  115005      68  115026  115017      68  115038  115029      68  115050  115041
      68  115062  115053      68  115074  115065      68  115086  115077      68
  115098  115089      68  115110  115101      68  115122  115113      68  115134
  115125      68  115146  115137      68  115158  115149      68  115170  115161
      68  115182  115173      68  115194  115185      68  115206  115197      68
  115218  115209      68  115230  115221      68  115242  115233      68  115254
  115245      68  115266  115257      68  115278  115269      68  115290  115281
      68  115302  115293      68  115314  115305      68  115326  115317      68
  115338  115329      68  115350  115341      68  115362  115353      68  115374
  115365      68  115386  115377      68  115398  115389      68  115410  115401
      68  115422  115413      68  115434  115425      68  115446  115437      68
  115458  115449      68  115470  115461      68  115482  115473      68  115494
  115485      68  115506  115497      68  115518  115509      68  115530  115521
      68  115542  115533      68  115554  115545      68  115566  115557      68
  115578  115569      68  115590  115581      68  115602  115593      68  115614
  115605      68  115626  115617      68  115638  115629      68  115650  115641
      68  115662  115653      68  115674  115665      68  115686  115677      68
  115698  115689      68  115710  115701      68  115722  115713      68  115734
  115725      68  115746  115737      68  115758  115749      68  115770  115761
      68  115782  115773      68  115794  115785      68  115806  115797      68
  115818  115809      68  115830  115821      68  115842  115833      68  115854
  115845      68  115866  115857      68  115878  115869      68  115890  115881
      68  115902  115893      68  115914  115905      68  115926  115917      68
  115938  115929      68  115950  115941      68  115962  115953      68  115974
  115965      68  115986  115977      68  115998  115989      68  116010  116001
      68  116022  116013      68  116034  116025      68  116046  116037      68
  116058  116049      68  116070  116061      68  116082  116073      68  116094
  116085      68  116106  116097      68  116118  116109      68  116130  116121
      68  116142  116133      68  116154  116145      68  116166  116157      68
  116178  116169      68  116190  116181      68  116202  116193      68  116214
  116205      68  116226  116217      68  116238  116229      68  116250  116241
      68  116262  116253      68  116274  116265      68  116286  116277      68
  116298  116289      68  116310  116301      68  116322  116313      68  116334
  116325      68  116346  116337      68  116358  116349      68  116370  116361
      68  116382  116373      68  116394  116385      68  116406  116397      68
  116418  116409      68  116430  116421      68  116442  116433      68  116454
  116445      68  116466  116457      68  116478  116469      68  116490  116481
      68  116502  116493      68  116514  116505      68  116526  116517      68
  116538  116529      68  116550  116541      68  116562  116553      68  116574
  116565      68  116586  116577      68  116598  116589      68  116610  116601
      68  116622  116613      68  116634  116625      68  116646  116637      68
  116658  116649      68  116670  116661      68  116682  116673      68  116694
  116685      68  116706  116697      68  116718  116709      68  116730  116721
      68  116742  116733      68  116754  116745      68  116766  116757      68
  116778  116769      68  116790  116781      68  116802  116793      68  116814
  116805      68  116826  116817      68  116838  116829      68  116850  116841
      68  116862  116853      68  116874  116865      68  116886  116877      68
  116898  116889      68  116910  116901      68  116922  116913      68  116934
  116925      68  116946  116937      68  116958  116949      68  116970  116961
      68  116982  116973      68  116994  116985      68  117006  116997      68
  117018  117009      68  117030  117021      68  117042  117033      68  117054
  117045      68  117066  117057      68  117078  117069      68  117090  117081
      68  117102  117093      68  117114  117105      68  117126  117117      68
  117138  117129      68  117150  117141      68  117162  117153      68  117174
  117165      68  117186  117177      68  117198  117189      68  117210  117201
      68  117222  117213      68  117234  117225      68  117246  117237      68
  117258  117249      68  117270  117261      68  117282  117273      68  117294
  117285      68  117306  117297      68  117318  117309      68  117330  117321
      68  117342  117333      68  117354  117345      68  117366  117357      68
  117378  117369      68  117390  117381      68  117402  117393      68  117414
  117405      68  117426  117417      68  117438  117429      68  117450  117441
      68  117462  117453      68  117474  117465      68  117486  117477      68
  117498  117489      68  117510  117501      68  117522  117513      68  117534
  117525      68  117546  117537      68  117558  117549      68  117570  117561
      68  117582  117573      68  117594  117585      68  117606  117597      68
  117618  117609      68  117630  117621      68  117642  117633      68  117654
  117645      68  117666  117657      68  117678  117669      68  117690  117681
      68  117702  117693      68  117714  117705      68  117726  117717      68
  117738  117729      68  117750  117741      68  117762  117753      68  117774
  117765      68  117786  117777      68  117798  117789      68  117810  117801
      68  117822  117813      68  117834  117825      68  117846  117837      68
  117858  117849      68  117870  117861      68  117882  117873      68  117894
  117885      68  117906  117897      68  117918  117909      68  117930  117921
      68  117942  117933      68  117954  117945      68  117966  117957      68
  117978  117969      68  117990  117981      68  118002  117993      68  118014
  118005      68  118026  118017      68  118038  118029      68  118050  118041
      68  118062  118053      68  118074  118065      68  118086  118077      68
  118098  118089      68  118110  118101      68  118122  118113      68  118134
  118125      68  118146  118137      68  118158  118149      68  118170  118161
      68  118182  118173      68  118194  118185      68  118206  118197      68
  118218  118209      68  118230  118221      68  118242  118233      68  118254
  118245      68  118266  118257      68  118278  118269      68  118290  118281
      68  118302  118293      68  118314  118305      68  118326  118317      68
  118338  118329      68  118350  118341      68  118362  118353      68  118374
  118365      68  118386  118377      68  118398  118389      68  118410  118401
      68  118422  118413      68  118434  118425      68  118446  118437      68
  118458  118449      68  118470  118461      68  118482  118473      68  118494
  118485      68  118506  118497      68  118518  118509      68  118530  118521
      68  118542  118533      68  118554  118545      68  118566  118557      68
  118578  118569      68  118590  118581      68  118602  118593      68  118614
  118605      68  118626  118617      68  118638  118629      68  118650  118641
      68  118662  118653      68  118674  118665      68  118686  118677      68
  118698  118689      68  118710  118701      68  118722  118713      68  118734
  118725      68  118746  118737      68  118758  118749      68  118770  118761
      68  118782  118773      68  118794  118785      68  118806  118797      68
  118818  118809      68  118830  118821      68  118842  118833      68  118854
  118845      68  118866  118857      68  118878  118869      68  118890  118881
      68  118902  118893      68  118914  118905      68  118926  118917      68
  118938  118929      68  118950  118941      68  118962  118953      68  118974
  118965      68  118986  118977      68  118998  118989      68  119010  119001
      68  119022  119013      68  119034  119025      68  119046  119037      68
  119058  119049      68  119070  119061      68  119082  119073      68  119094
  119085      68  119106  119097      68  119118  119109      68  119130  119121
      68  119142  119133      68  119154  119145      68  119166  119157      68
  119178  119169      68  119190  119181      68  119202  119193      68  119214
  119205      68  119226  119217      68  119238  119229      68  119250  119241
      68  119262  119253      68  119274  119265      68  119286  119277      68
  119298  119289      68  119310  119301      68  119322  119313      68  119334
  119325      68  119346  119337      68  119358  119349      68  119370  119361
      68  119382  119373      68  119394  119385      68  119406  119397      68
  119418  119409      68  119430  119421      68  119442  119433      68  119454
  119445      68  119466  119457      68  119478  119469      68  119490  119481
      68  119502  119493      68  119514  119505      68  119526  119517      68
  119538  119529      68  119550  119541      68  119562  119553      68  119574
  119565      68  119586  119577      68  119598  119589      68  119610  119601
      68  119622  119613      68  119634  119625      68  119646  119637      68
  119658  119649      68  119670  119661      68  119682  119673      68  119694
  119685      68  119706  119697      68  119718  119709      68  119730  119721
      68  119742  119733      68  119754  119745      68  119766  119757      68
  119778  119769      68  119790  119781      68  119802  119793      68  119814
  119805      68  119826  119817      68  119838  119829      68  119850  119841
      68  119862  119853      68  119874  119865      68  119886  119877      68
  119898  119889      68  119910  119901      68  119922  119913      68  119934
  119925      68  119946  119937      68  119958  119949      68  119970  119961
      68  119982  119973      68  119994  119985      68  120006  119997      68
  120018  120009      68  120030  120021      68  120042  120033      68  120054
  120045      68  120066  120057      68  120078  120069      68  120090  120081
      68  120102  120093      68  120114  120105      68  120126  120117      68
  120138  120129      68  120150  120141      68  120162  120153      68  120174
  120165      68  120186  120177      68  120198  120189      68  120210  120201
      68  120222  120213      68  120234  120225      68  120246  120237      68
  120258  120249      68  120270  120261      68  120282  120273      68  120294
  120285      68  120306  120297      68  120318  120309      68  120330  120321
      68  120342  120333      68  120354  120345      68  120366  120357      68
  120378  120369      68  120390  120381      68  120402  120393      68  120414
  120405      68  120426  120417      68  120438  120429      68  120450  120441
      68  120462  120453      68  120474  120465      68  120486  120477      68
  120498  120489      68  120510  120501      68  120522  120513      68  120534
  120525      68  120546  120537      68  120558  120549      68  120570  120561
      68  120582  120573      68  120594  120585      68  120606  120597      68
  120618  120609      68  120630  120621      68  120642  120633      68  120654
  120645      68  120666  120657      68  120678  120669      68  120690  120681
      68  120702  120693      68  120714  120705      68  120726  120717      68
  120738  120729      68  120750  120741      68  120762  120753      68  120774
  120765      68  120786  120777      68  120798  120789      68  120810  120801
      68  120822  120813      68  120834  120825      68  120846  120837      68
  120858  120849      68  120870  120861      68  120882  120873      68  120894
  120885      68  120906  120897      68  120918  120909      68  120930  120921
      68  120942  120933      68  120954  120945      68  120966  120957      68
  120978  120969      68  120990  120981      68  121002  120993      68  121014
  121005      68  121026  121017      68  121038  121029      68  121050  121041
      68  121062  121053      68  121074  121065      68  121086  121077      68
  121098  121089      68  121110  121101      68  121122  121113      68  121134
  121125      68  121146  121137      68  121158  121149      68  121170  121161
      68  121182  121173      68  121194  121185      68  121206  121197      68
  121218  121209      68  121230  121221      68  121242  121233      68  121254
  121245      68  121266  121257      68  121278  121269      68  121290  121281
      68  121302  121293      68  121314  121305      68  121326  121317      68
  121338  121329      68  121350  121341      68  121362  121353      68  121374
  121365      68  121386  121377      68  121398  121389      68  121410  121401
      68  121422  121413      68  121434  121425      68  121446  121437      68
  121458  121449      68  121470  121461      68  121482  121473      68  121494
  121485      68  121506  121497      68  121518  121509      68  121530  121521
      68  121542  121533      68  121554  121545      68  121566  121557      68
  121578  121569      68  121590  121581      68  121602  121593      68  121614
  121605      68  121626  121617      68  121638  121629      68  121650  121641
      68  121662  121653      68  121674  121665      68  121686  121677      68
  121698  121689      68  121710  121701      68  121722  121713      68  121734
  121725      68  121746  121737      68  121758  121749      68  121770  121761
      68  121782  121773      68  121794  121785      68  121806  121797      68
  121818  121809      68  121830  121821      68  121842  121833      68  121854
  121845      68  121866  121857      68  121878  121869      68  121890  121881
      68  121902  121893      68  121914  121905      68  121926  121917      68
  121938  121929      68  121950  121941      68  121962  121953      68  121974
  121965      68  121986  121977      68  121998  121989      68  122010  122001
      68  122022  122013      68  122034  122025      68  122046  122037      68
  122058  122049      68  122070  122061      68  122082  122073      68  122094
  122085      68  122106  122097      68  122118  122109      68  122130  122121
      68  122142  122133      68  122154  122145      68  122166  122157      68
  122178  122169      68  122190  122181      68  122202  122193      68  122214
  122205      68  122226  122217      68  122238  122229      68  122250  122241
      68  122262  122253      68  122274  122265      68  122286  122277      68
  122298  122289      68  122310  122301      68  122322  122313      68  122334
  122325      68  122346  122337      68  122358  122349      68  122370  122361
      68  122382  122373      68  122394  122385      68  122406  122397      68
  122418  122409      68  122430  122421      68  122442  122433      68  122454
  122445      68  122466  122457      68  122478  122469      68  122490  122481
      68  122502  122493      68  122514  122505      68  122526  122517      68
  122538  122529      68  122550  122541      68  122562  122553      68  122574
  122565      68  122586  122577      68  122598  122589      68  122610  122601
      68  122622  122613      68  122634  122625      68  122646  122637      68
  122658  122649      68  122670  122661      68  122682  122673      68  122694
  122685      68  122706  122697      68  122718  122709      68  122730  122721
      68  122742  122733      68  122754  122745      68  122766  122757      68
  122778  122769      68  122790  122781      68  122802  122793      68  122814
  122805      68  122826  122817      68  122838  122829      68  122850  122841
      68  122862  122853      68  122874  122865      68  122886  122877      68
  122898  122889      68  122910  122901      68  122922  122913      68  122934
  122925      68  122946  122937      68  122958  122949      68  122970  122961
      68  122982  122973      68  122994  122985      68  123006  122997      68
  123018  123009      68  123030  123021      68  123042  123033      68  123054
  123045      68  123066  123057      68  123078  123069      68  123090  123081
      68  123102  123093      68  123114  123105      68  123126  123117      68
  123138  123129      68  123150  123141      68  123162  123153      68  123174
  123165      68  123186  123177      68  123198  123189      68  123210  123201
      68  123222  123213      68  123234  123225      68  123246  123237      68
  123258  123249      68  123270  123261      68  123282  123273      68  123294
  123285      68  123306  123297      68  123318  123309      68  123330  123321
      68  123342  123333      68  123354  123345      68  123366  123357      68
  123378  123369      68  123390  123381      68  123402  123393      68  123414
  123405      68  123426  123417      68  123438  123429      68  123450  123441
      68  123462  123453      68  123474  123465      68  123486  123477      68
  123498  123489      68  123510  123501      68  123522  123513      68  123534
  123525      68  123546  123537      68  123558  123549      68  123570  123561
      68  123582  123573      68  123594  123585      68  123606  123597      68
  123618  123609      68  123630  123621      68  123642  123633      68  123654
  123645      68  123666  123657      68  123678  123669      68  123690  123681
      68  123702  123693      68  123714  123705      68  123726  123717      68
  123738  123729      68  123750  123741      68  123762  123753      68  123774
  123765      68  123786  123777      68  123798  123789      68  123810  123801
      68  123822  123813      68  123834  123825      68  123846  123837      68
  123858  123849      68  123870  123861      68  123882  123873      68  123894
  123885      68  123906  123897      68  123918  123909      68  123930  123921
      68  123942  123933      68  123954  123945      68  123966  123957      68
  123978  123969      68  123990  123981      68  124002  123993      68  124014
  124005      68  124026  124017      68  124038  124029      68  124050  124041
      68  124062  124053      68  124074  124065      68  124086  124077      68
  124098  124089      68  124110  124101      68  124122  124113      68  124134
  124125      68  124146  124137      68  124158  124149      68  124170  124161
      68  124182  124173      68  124194  124185      68  124206  124197      68
  124218  124209      68  124230  124221      68  124242  124233      68  124254
  124245      68  124266  124257      68  124278  124269      68  124290  124281
      68  124302  124293      68  124314  124305      68  124326  124317      68
  124338  124329      68  124350  124341      68  124362  124353      68  124374
  124365      68  124386  124377      68  124398  124389      68  124410  124401
      68  124422  124413      68  124434  124425      68  124446  124437      68
  124458  124449      68  124470  124461      68  124482  124473      68  124494
  124485      68  124506  124497      68  124518  124509      68  124530  124521
      68  124542  124533      68  124554  124545      68  124566  124557      68
  124578  124569      68  124590  124581      68  124602  124593      68  124614
  124605      68  124626  124617      68  124638  124629      68  124650  124641
      68  124662  124653      68  124674  124665      68  124686  124677      68
  124698  124689      68  124710  124701      68  124722  124713      68  124734
  124725      68  124746  124737      68  124758  124749      68  124770  124761
      68  124782  124773      68  124794  124785      68  124806  124797      68
  124818  124809      68  124830  124821      68  124842  124833      68  124854
  124845      68  124866  124857      68  124878  124869      68  124890  124881
      68  124902  124893      68  124914  124905      68  124926  124917      68
  124938  124929      68  124950  124941      68  124962  124953      68  124974
  124965      68  124986  124977      68  124998  124989      68  125010  125001
      68  125022  125013      68  125034  125025      68  125046  125037      68
  125058  125049      68  125070  125061      68  125082  125073      68  125094
  125085      68  125106  125097      68  125118  125109      68  125130  125121
      68  125142  125133      68  125154  125145      68  125166  125157      68
  125178  125169      68  125190  125181      68  125202  125193      68  125214
  125205      68  125226  125217      68  125238  125229      68  125250  125241
      68  125262  125253      68  125274  125265      68  125286  125277      68
  125298  125289      68  125310  125301      68  125322  125313      68  125334
  125325      68  125346  125337      68  125358  125349      68  125370  125361
      68  125382  125373      68  125394  125385      68  125406  125397      68
  125418  125409      68  125430  125421      68  125442  125433      68  125454
  125445      68  125466  125457      68  125478  125469      68  125490  125481
      68  125502  125493      68  125514  125505      68  125526  125517      68
  125538  125529      68  125550  125541      68  125562  125553      68  125574
  125565      68  125586  125577      68  125598  125589      68  125610  125601
      68  125622  125613      68  125634  125625      68  125646  125637      68
  125658  125649      68  125670  125661      68  125682  125673      68  125694
  125685      68  125706  125697      68  125718  125709      68  125730  125721
      68  125742  125733      68  125754  125745      68  125766  125757      68
  125778  125769      68  125790  125781      68  125802  125793      68  125814
  125805      68  125826  125817      68  125838  125829      68  125850  125841
      68  125862  125853      68  125874  125865      68  125886  125877      68
  125898  125889      68  125910  125901      68  125922  125913      68  125934
  125925      68  125946  125937      68  125958  125949      68  125970  125961
      68  125982  125973      68  125994  125985      68  126006  125997      68
  126018  126009      68  126030  126021      68  126042  126033      68  126054
  126045      68  126066  126057      68  126078  126069      68  126090  126081
      68  126102  126093      68  126114  126105      68  126126  126117      68
  126138  126129      68  126150  126141      68  126162  126153      68  126174
  126165      68  126186  126177      68  126198  126189      68  126210  126201
      68  126222  126213      68  126234  126225      68  126246  126237      68
  126258  126249      68  126270  126261      68  126282  126273      68  126294
  126285      68  126306  126297      68  126318  126309      68  126330  126321
      68  126342  126333      68  126354  126345      68  126366  126357      68
  126378  126369      68  126390  126381      68  126402  126393      68  126414
  126405      68  126426  126417      68  126438  126429      68  126450  126441
      68  126462  126453      68  126474  126465      68  126486  126477      68
  126498  126489      68  126510  126501      68  126522  126513      68  126534
  126525      68  126546  126537      68  126558  126549      68  126570  126561
      68  126582  126573      68  126594  126585      68  126606  126597      68
  126618  126609      68  126630  126621      68  126642  126633      68  126654
  126645      68  126666  126657      68  126678  126669      68  126690  126681
      68  126702  126693      68  126714  126705      68  126726  126717      68
  126738  126729      68  126750  126741      68  126762  126753      68  126774
  126765      68  126786  126777      68  126798  126789      68  126810  126801
      68  126822  126813      68  126834  126825      68  126846  126837      68
  126858  126849      68  126870  126861      68  126882  126873      68  126894
  126885      68  126906  126897      68  126918  126909      68  126930  126921
      68  126942  126933      68  126954  126945      68  126966  126957      68
  126978  126969      68  126990  126981      68  127002  126993      68  127014
  127005      68  127026  127017      68  127038  127029      68  127050  127041
      68  127062  127053      68  127074  127065      68  127086  127077      68
  127098  127089      68  127110  127101      68  127122  127113      68  127134
  127125      68  127146  127137      68  127158  127149      68  127170  127161
      68  127182  127173      68  127194  127185      68  127206  127197      68
  127218  127209      68  127230  127221      68  127242  127233      68  127254
  127245      68  127266  127257      68  127278  127269      68  127290  127281
      68  127302  127293      68  127314  127305      68  127326  127317      68
  127338  127329      68  127350  127341      68  127362  127353      68  127374
  127365      68  127386  127377      68  127398  127389      68  127410  127401
      68  127422  127413      68  127434  127425      68  127446  127437      68
  127458  127449      68  127470  127461      68  127482  127473      68  127494
  127485      68  127506  127497      68  127518  127509      68  127530  127521
      68  127542  127533      68  127554  127545      68  127566  127557      68
  127578  127569      68  127590  127581      68  127602  127593      68  127614
  127605      68  127626  127617      68  127638  127629      68  127650  127641
      68  127662  127653      68  127674  127665      68  127686  127677      68
  127698  127689      68  127710  127701      68  127722  127713      68  127734
  127725      68  127746  127737      68  127758  127749      68  127770  127761
      68  127782  127773      68  127794  127785      68  127806  127797      68
  127818  127809      68  127830  127821      68  127842  127833      68  127854
  127845      68  127866  127857      68  127878  127869      68  127890  127881
      68  127902  127893      68  127914  127905      68  127926  127917      68
  127938  127929      68  127950  127941      68  127962  127953      68  127974
  127965      68  127986  127977      68  127998  127989      68  128010  128001
      68  128022  128013      68  128034  128025      68  128046  128037      68
  128058  128049      68  128070  128061      68  128082  128073      68  128094
  128085      68  128106  128097      68  128118  128109      68  128130  128121
      68  128142  128133      68  128154  128145      68  128166  128157      68
  128178  128169      68  128190  128181      68  128202  128193      68  128214
  128205      68  128226  128217      68  128238  128229      68  128250  128241
      68  128262  128253      68  128274  128265      68  128286  128277      68
  128298  128289      68  128310  128301      68  128322  128313      68  128334
  128325      68  128346  128337      68  128358  128349      68  128370  128361
      68  128382  128373      68  128394  128385      68  128406  128397      68
  128418  128409      68  128430  128421      68  128442  128433      68  128454
  128445      68  128466  128457      68  128478  128469      68  128490  128481
      68  128502  128493      68  128514  128505      68  128526  128517      68
  128538  128529      68  128550  128541      68  128562  128553      68  128574
  128565      68  128586  128577      68  128598  128589      68  128610  128601
      68  128622  128613      68  128634  128625      68  128646  128637      68
  128658  128649      68  128670  128661      68  128682  128673      68  128694
  128685      68  128706  128697      68  128718  128709      68  128730  128721
      68  128742  128733      68  128754  128745      68  128766  128757      68
  128778  128769      68  128790  128781      68  128802  128793      68  128814
  128805      68  128826  128817      68  128838  128829      68  128850  128841
      68  128862  128853      68  128874  128865      68  128886  128877      68
  128898  128889      68  128910  128901      68  128922  128913      68  128934
  128925      68  128946  128937      68  128958  128949      68  128970  128961
      68  128982  128973      68  128994  128985      68  129006  128997      68
  129018  129009      68  129030  129021      68  129042  129033      68  129054
  129045      68  129066  129057      68  129078  129069      68  129090  129081
      68  129102  129093      68  129114  129105      68  129126  129117      68
  129138  129129      68  129150  129141      68  129162  129153      68  129174
  129165      68  129186  129177      68  129198  129189      68  129210  129201
      68  129222  129213      68  129234  129225      68  129246  129237      68
  129258  129249      68  129270  129261      68  129282  129273      68  129294
  129285      68  129306  129297      68  129318  129309      68  129330  129321
      68  129342  129333      68  129354  129345      68  129366  129357      68
  129378  129369      68  129390  129381      68  129402  129393      68  129414
  129405      68  129426  129417      68  129438  129429      68  129450  129441
      68  129462  129453      68  129474  129465      68  129486  129477      68
  129498  129489      68  129510  129501      68  129522  129513      68  129534
  129525      68  129546  129537      68  129558  129549      68  129570  129561
      68  129582  129573      68  129594  129585      68  129606  129597      68
  129618  129609      68  129630  129621      68  129642  129633      68  129654
  129645      68  129666  129657      68  129678  129669      68  129690  129681
      68  129702  129693      68  129714  129705      68  129726  129717      68
  129738  129729      68  129750  129741      68  129762  129753      68  129774
  129765      68  129786  129777      68  129798  129789      68  129810  129801
      68  129822  129813      68  129834  129825      68  129846  129837      68
  129858  129849      68  129870  129861      68  129882  129873      68  129894
  129885      68  129906  129897      68  129918  129909      68  129930  129921
      68  129942  129933      68  129954  129945      68  129966  129957      68
  129978  129969      68  129990  129981      68  130002  129993      68  130014
  130005      68  130026  130017      68  130038  130029      68  130050  130041
      68  130062  130053      68  130074  130065      68  130086  130077      68
  130098  130089      68  130110  130101      68  130122  130113      68  130134
  130125      68  130146  130137      68  130158  130149      68  130170  130161
      68  130182  130173      68  130194  130185      68  130206  130197      68
  130218  130209      68  130230  130221      68  130242  130233      68  130254
  130245      68  130266  130257      68  130278  130269      68  130290  130281
      68  130302  130293      68  130314  130305      68  130326  130317      68
  130338  130329      68  130350  130341      68  130362  130353      68  130374
  130365      68  130386  130377      68  130398  130389      68  130410  130401
      68  130422  130413      68  130434  130425      68  130446  130437      68
  130458  130449      68  130470  130461      68  130482  130473      68  130494
  130485      68  130506  130497      68  130518  130509      68  130530  130521
      68  130542  130533      68  130554  130545      68  130566  130557      68
  130578  130569      68  130590  130581      68  130602  130593      68  130614
  130605      68  130626  130617      68  130638  130629      68  130650  130641
      68  130662  130653      68  130674  130665      68  130686  130677      68
  130698  130689      68  130710  130701      68  130722  130713      68  130734
  130725      68  130746  130737      68  130758  130749      68  130770  130761
      68  130782  130773      68  130794  130785      68  130806  130797      68
  130818  130809      68  130830  130821      68  130842  130833      68  130854
  130845      68  130866  130857      68  130878  130869      68  130890  130881
      68  130902  130893      68  130914  130905      68  130926  130917      68
  130938  130929      68  130950  130941      68  130962  130953      68  130974
  130965      68  130986  130977      68  130998  130989      68  131010  131001
      68  131022  131013      68  131034  131025      68  131046  131037      68
  131058  131049      68  131070  131061      68  131082  131073      68  131094
  131085      68  131106  131097      68  131118  131109      68  131130  131121
      68  131142  131133      68  131154  131145      68  131166  131157      68
  131178  131169      68  131190  131181      68  131202  131193      68  131214
  131205      68  131226  131217      68  131238  131229      68  131250  131241
      68  131262  131253      68  131274  131265      68  131286  131277      68
  131298  131289      68  131310  131301      68  131322  131313      68  131334
  131325      68  131346  131337      68  131358  131349      68  131370  131361
      68  131382  131373      68  131394  131385      68  131406  131397      68
  131418  131409      68  131430  131421      68  131442  131433      68  131454
  131445      68  131466  131457      68  131478  131469      68  131490  131481
      68  131502  131493      68  131514  131505      68  131526  131517      68
  131538  131529      68  131550  131541      68  131562  131553      68  131574
  131565      68  131586  131577      68  131598  131589      68  131610  131601
      68  131622  131613      68  131634  131625      68  131646  131637      68
  131658  131649      68  131670  131661      68  131682  131673      68  131694
  131685      68  131706  131697      68  131718  131709      68  131730  131721
      68  131742  131733      68  131754  131745      68  131766  131757      68
  131778  131769      68  131790  131781      68  131802  131793      68  131814
  131805      68  131826  131817      68  131838  131829      68  131850  131841
      68  131862  131853      68  131874  131865      68  131886  131877      68
  131898  131889      68  131910  131901      68  131922  131913      68  131934
  131925      68  131946  131937      68  131958  131949      68  131970  131961
      68  131982  131973      68  131994  131985      68  132006  131997      68
  132018  132009      68  132030  132021      68  132042  132033      68  132054
  132045      68  132066  132057      68  132078  132069      68  132090  132081
      68  132102  132093      68  132114  132105      68  132126  132117      68
  132138  132129      68  132150  132141      68  132162  132153      68  132174
  132165      68  132186  132177      68  132198  132189      68  132210  132201
      68  132222  132213      68  132234  132225      68  132246  132237      68
  132258  132249      68  132270  132261      68  132282  132273      68  132294
  132285      68  132306  132297      68  132318  132309      68  132330  132321
      68  132342  132333      68  132354  132345      68  132366  132357      68
  132378  132369      68  132390  132381      68  132402  132393      68  132414
  132405      68  132426  132417      68  132438  132429      68  132450  132441
      68  132462  132453      68  132474  132465      68  132486  132477      68
  132498  132489      68  132510  132501      68  132522  132513      68  132534
  132525      68  132546  132537      68  132558  132549      68  132570  132561
      68  132582  132573      68  132594  132585      68  132606  132597      68
  132618  132609      68  132630  132621      68  132642  132633      68  132654
  132645      68  132666  132657      68  132678  132669      68  132690  132681
      68  132702  132693      68  132714  132705      68  132726  132717      68
  132738  132729      68  132750  132741      68  132762  132753      68  132774
  132765      68  132786  132777      68  132798  132789      68  132810  132801
      68  132822  132813      68  132834  132825      68  132846  132837      68
  132858  132849      68  132870  132861      68  132882  132873      68  132894
  132885      68  132906  132897      68  132918  132909      68  132930  132921
      68  132942  132933      68  132954  132945      68  132966  132957      68
  132978  132969      68  132990  132981      68  133002  132993      68  133014
  133005      68  133026  133017      68  133038  133029      68  133050  133041
      68  133062  133053      68  133074  133065      68  133086  133077      68
  133098  133089      68  133110  133101      68  133122  133113      68  133134
  133125      68  133146  133137      68  133158  133149      68  133170  133161
      68  133182  133173      68  133194  133185      68  133206  133197      68
  133218  133209      68  133230  133221      68  133242  133233      68  133254
  133245      68  133266  133257      68  133278  133269      68  133290  133281
      68  133302  133293      68  133314  133305      68  133326  133317      68
  133338  133329      68  133350  133341      68  133362  133353      68  133374
  133365      68  133386  133377      68  133398  133389      68  133410  133401
      68  133422  133413      68  133434  133425      68  133446  133437      68
  133458  133449      68  133470  133461      68  133482  133473      68  133494
  133485      68  133506  133497      68  133518  133509      68  133530  133521
      68  133542  133533      68  133554  133545      68  133566  133557      68
  133578  133569      68  133590  133581      68  133602  133593      68  133614
  133605      68  133626  133617      68  133638  133629      68  133650  133641
      68  133662  133653      68  133674  133665      68  133686  133677      68
  133698  133689      68  133710  133701      68  133722  133713      68  133734
  133725      68  133746  133737      68  133758  133749      68  133770  133761
      68  133782  133773      68  133794  133785      68  133806  133797      68
  133818  133809      68  133830  133821      68  133842  133833      68  133854
  133845      68  133866  133857      68  133878  133869      68  133890  133881
      68  133902  133893      68  133914  133905      68  133926  133917      68
  133938  133929      68  133950  133941      68  133962  133953      68  133974
  133965      68  133986  133977      68  133998  133989      68  134010  134001
      68  134022  134013      68  134034  134025      68  134046  134037      68
  134058  134049      68  134070  134061      68  134082  134073      68  134094
  134085      68  134106  134097      68  134118  134109      68  134130  134121
      68  134142  134133      68  134154  134145      68  134166  134157      68
  134178  134169      68  134190  134181      68  134202  134193      68  134214
  134205      68  134226  134217      68  134238  134229      68  134250  134241
      68  134262  134253      68  134274  134265      68  134286  134277      68
  134298  134289      68  134310  134301      68  134322  134313      68  134334
  134325      68  134346  134337      68  134358  134349      68  134370  134361
      68  134382  134373      68  134394  134385      68  134406  134397      68
  134418  134409      68  134430  134421      68  134442  134433      68  134454
  134445      68  134466  134457      68  134478  134469      68  134490  134481
      68  134502  134493      68  134514  134505      68  134526  134517      68
  134538  134529      68  134550  134541      68  134562  134553      68  134574
  134565      68  134586  134577      68  134598  134589      68  134610  134601
      68  134622  134613      68  134634  134625      68  134646  134637      68
  134658  134649      68  134670  134661      68  134682  134673      68  134694
  134685      68  134706  134697      68  134718  134709      68  134730  134721
      68  134742  134733      68  134754  134745      68  134766  134757      68
  134778  134769      68  134790  134781      68  134802  134793      68  134814
  134805      68  134826  134817      68  134838  134829      68  134850  134841
      68  134862  134853      68  134874  134865      68  134886  134877      68
  134898  134889      68  134910  134901      68  134922  134913      68  134934
  134925      68  134946  134937      68  134958  134949      68  134970  134961
      68  134982  134973      68  134994  134985      68  135006  134997      68
  135018  135009      68  135030  135021      68  135042  135033      68  135054
  135045      68  135066  135057      68  135078  135069      68  135090  135081
      68  135102  135093      68  135114  135105      68  135126  135117      68
  135138  135129      68  135150  135141      68  135162  135153      68  135174
  135165      68  135186  135177      68  135198  135189      68  135210  135201
      68  135222  135213      68  135234  135225      68  135246  135237      68
  135258  135249      68  135270  135261      68  135282  135273      68  135294
  135285      68  135306  135297      68  135318  135309      68  135330  135321
      68  135342  135333      68  135354  135345      68  135366  135357      68
  135378  135369      68  135390  135381      68  135402  135393      68  135414
  135405      68  135426  135417      68  135438  135429      68  135450  135441
      68  135462  135453      68  135474  135465      68  135486  135477      68
  135498  135489      68  135510  135501      68  135522  135513      68  135534
  135525      68  135546  135537      68  135558  135549      68  135570  135561
      68  135582  135573      68  135594  135585      68  135606  135597      68
  135618  135609      68  135630  135621      68  135642  135633      68  135654
  135645      68  135666  135657      68  135678  135669      68  135690  135681
      68  135702  135693      68  135714  135705      68  135726  135717      68
  135738  135729      68  135750  135741      68  135762  135753      68  135774
  135765      68  135786  135777      68  135798  135789      68  135810  135801
      68  135822  135813      68  135834  135825      68  135846  135837      68
  135858  135849      68  135870  135861      68  135882  135873      68  135894
  135885      68  135906  135897      68  135918  135909      68  135930  135921
      68  135942  135933      68  135954  135945      68  135966  135957      68
  135978  135969      68  135990  135981      68  136002  135993      68  136014
  136005      68  136026  136017      68  136038  136029      68  136050  136041
      68  136062  136053      68  136074  136065      68  136086  136077      68
  136098  136089      68  136110  136101      68  136122  136113      68  136134
  136125      68  136146  136137      68  136158  136149      68  136170  136161
      68  136182  136173      68  136194  136185      68  136206  136197      68
  136218  136209      68  136230  136221      68  136242  136233      68  136254
  136245      68  136266  136257      68  136278  136269      68  136290  136281
      68  136302  136293      68  136314  136305      68  136326  136317      68
  136338  136329      68  136350  136341      68  136362  136353      68  136374
  136365      68  136386  136377      68  136398  136389      68  136410  136401
      68  136422  136413      68  136434  136425      68  136446  136437      68
  136458  136449      68  136470  136461      68  136482  136473      68  136494
  136485      68  136506  136497      68  136518  136509      68  136530  136521
      68  136542  136533      68  136554  136545      68  136566  136557      68
  136578  136569      68  136590  136581      68  136602  136593      68  136614
  136605      68  136626  136617      68  136638  136629      68  136650  136641
      68  136662  136653      68  136674  136665      68  136686  136677      68
  136698  136689      68  136710  136701      68  136722  136713      68  136734
  136725      68  136746  136737      68  136758  136749      68  136770  136761
      68  136782  136773      68  136794  136785      68  136806  136797      68
  136818  136809      68  136830  136821      68  136842  136833      68  136854
  136845      68  136866  136857      68  136878  136869      68  136890  136881
      68  136902  136893      68  136914  136905      68  136926  136917      68
  136938  136929      68  136950  136941      68  136962  136953      68  136974
  136965      68  136986  136977      68  136998  136989      68  137010  137001
      68  137022  137013      68  137034  137025      68  137046  137037      68
  137058  137049      68  137070  137061      68  137082  137073      68  137094
  137085      68  137106  137097      68  137118  137109      68  137130  137121
      68  137142  137133      68  137154  137145      68  137166  137157      68
  137178  137169      68  137190  137181      68  137202  137193      68  137214
  137205      68  137226  137217      68  137238  137229      68  137250  137241
      68  137262  137253      68  137274  137265      68  137286  137277      68
  137298  137289      68  137310  137301      68  137322  137313      68  137334
  137325      68  137346  137337      68  137358  137349      68  137370  137361
      68  137382  137373      68  137394  137385      68  137406  137397      68
  137418  137409      68  137430  137421      68  137442  137433      68  137454
  137445      68  137466  137457      68  137478  137469      68  137490  137481
      68  137502  137493      68  137514  137505      68  137526  137517      68
  137538  137529      68  137550  137541      68  137562  137553      68  137574
  137565      68  137586  137577      68  137598  137589      68  137610  137601
      68  137622  137613      68  137634  137625      68  137646  137637      68
  137658  137649      68  137670  137661      68  137682  137673      68  137694
  137685      68  137706  137697      68  137718  137709      68  137730  137721
      68  137742  137733      68  137754  137745      68  137766  137757      68
  137778  137769      68  137790  137781      68  137802  137793      68  137814
  137805      68  137826  137817      68  137838  137829      68  137850  137841
      68  137862  137853      68  137874  137865      68  137886  137877      68
  137898  137889      68  137910  137901      68  137922  137913      68  137934
  137925      68  137946  137937      68  137958  137949      68  137970  137961
      68  137982  137973      68  137994  137985      68  138006  137997      68
  138018  138009      68  138030  138021      68  138042  138033      68  138054
  138045      68  138066  138057      68  138078  138069      68  138090  138081
      68  138102  138093      68  138114  138105      68  138126  138117      68
  138138  138129      68  138150  138141      68  138162  138153      68  138174
  138165      68  138186  138177      68  138198  138189      68  138210  138201
      68  138222  138213      68  138234  138225      68  138246  138237      68
  138258  138249      68  138270  138261      68  138282  138273      68  138294
  138285      68  138306  138297      68  138318  138309      68  138330  138321
      68  138342  138333      68  138354  138345      68  138366  138357      68
  138378  138369      68  138390  138381      68  138402  138393      68  138414
  138405      68  138426  138417      68  138438  138429      68  138450  138441
      68  138462  138453      68  138474  138465      68  138486  138477      68
  138498  138489      68  138510  138501      68  138522  138513      68  138534
  138525      68  138546  138537      68  138558  138549      68  138570  138561
      68  138582  138573      68  138594  138585      68  138606  138597      68
  138618  138609      68  138630  138621      68  138642  138633      68  138654
  138645      68  138666  138657      68  138678  138669      68  138690  138681
      68  138702  138693      68  138714  138705      68  138726  138717      68
  138738  138729      68  138750  138741      68  138762  138753      68  138774
  138765      68  138786  138777      68  138798  138789      68  138810  138801
      68  138822  138813      68  138834  138825      68  138846  138837      68
  138858  138849      68  138870  138861      68  138882  138873      68  138894
  138885      68  138906  138897      68  138918  138909      68  138930  138921
      68  138942  138933      68  138954  138945      68  138966  138957      68
  138978  138969      68  138990  138981      68  139002  138993      68  139014
  139005      68  139026  139017      68  139038  139029      68  139050  139041
      68  139062  139053      68  139074  139065      68  139086  139077      68
  139098  139089      68  139110  139101      68  139122  139113      68  139134
  139125      68  139146  139137      68  139158  139149      68  139170  139161
      68  139182  139173      68  139194  139185      68  139206  139197      68
  139218  139209      68  139230  139221      68  139242  139233      68  139254
  139245      68  139266  139257      68  139278  139269      68  139290  139281
      68  139302  139293      68  139314  139305      68  139326  139317      68
  139338  139329      68  139350  139341      68  139362  139353      68  139374
  139365      68  139386  139377      68  139398  139389      68  139410  139401
      68  139422  139413      68  139434  139425      68  139446  139437      68
  139458  139449      68  139470  139461      68  139482  139473      68  139494
  139485      68  139506  139497      68  139518  139509      68  139530  139521
      68  139542  139533      68  139554  139545      68  139566  139557      68
  139578  139569      68  139590  139581      68  139602  139593      68  139614
  139605      68  139626  139617      68  139638  139629      68  139650  139641
      68  139662  139653      68  139674  139665      68  139686  139677      68
  139698  139689      68  139710  139701      68  139722  139713      68  139734
  139725      68  139746  139737      68  139758  139749      68  139770  139761
      68  139782  139773      68  139794  139785      68  139806  139797      68
  139818  139809      68  139830  139821      68  139842  139833      68  139854
  139845      68  139866  139857      68  139878  139869      68  139890  139881
      68  139902  139893      68  139914  139905      68  139926  139917      68
  139938  139929      68  139950  139941      68  139962  139953      68  139974
  139965      68  139986  139977      68  139998  139989      68  140010  140001
      68  140022  140013      68  140034  140025      68  140046  140037      68
  140058  140049      68  140070  140061      68  140082  140073      68  140094
  140085      68  140106  140097      68  140118  140109      68  140130  140121
      68  140142  140133      68  140154  140145      68  140166  140157      68
  140178  140169      68  140190  140181      68  140202  140193      68  140214
  140205      68  140226  140217      68  140238  140229      68  140250  140241
      68  140262  140253      68  140274  140265      68  140286  140277      68
  140298  140289      68  140310  140301      68  140322  140313      68  140334
  140325      68  140346  140337      68  140358  140349      68  140370  140361
      68  140382  140373      68  140394  140385      68  140406  140397      68
  140418  140409      68  140430  140421      68  140442  140433      68  140454
  140445      68  140466  140457      68  140478  140469      68  140490  140481
      68  140502  140493      68  140514  140505      68  140526  140517      68
  140538  140529      68  140550  140541      68  140562  140553      68  140574
  140565      68  140586  140577      68  140598  140589      68  140610  140601
      68  140622  140613      68  140634  140625      68  140646  140637      68
  140658  140649      68  140670  140661      68  140682  140673      68  140694
  140685      68  140706  140697      68  140718  140709      68  140730  140721
      68  140742  140733      68  140754  140745      68  140766  140757      68
  140778  140769      68  140790  140781      68  140802  140793      68  140814
  140805      68  140826  140817      68  140838  140829      68  140850  140841
      68  140862  140853      68  140874  140865      68  140886  140877      68
  140898  140889      68  140910  140901      68  140922  140913      68  140934
  140925      68  140946  140937      68  140958  140949      68  140970  140961
      68  140982  140973      68  140994  140985      68  141006  140997      68
  141018  141009      68  141030  141021      68  141042  141033      68  141054
  141045      68  141066  141057      68  141078  141069      68  141090  141081
      68  141102  141093      68  141114  141105      68  141126  141117      68
  141138  141129      68  141150  141141      68  141162  141153      68  141174
  141165      68  141186  141177      68  141198  141189      68  141210  141201
      68  141222  141213      68  141234  141225      68  141246  141237      68
  141258  141249      68  141270  141261      68  141282  141273      68  141294
  141285      68  141306  141297      68  141318  141309      68  141330  141321
      68  141342  141333      68  141354  141345      68  141366  141357      68
  141378  141369      68  141390  141381      68  141402  141393      68  141414
  141405      68  141426  141417      68  141438  141429      68  141450  141441
      68  141462  141453      68  141474  141465      68  141486  141477      68
  141498  141489      68  141510  141501      68  141522  141513      68  141534
  141525      68  141546  141537      68  141558  141549      68  141570  141561
      68  141582  141573      68  141594  141585      68  141606  141597      68
  141618  141609      68  141630  141621      68  141642  141633      68  141654
  141645      68  141666  141657      68  141678  141669      68  141690  141681
      68  141702  141693      68  141714  141705      68  141726  141717      68
  141738  141729      68  141750  141741      68  141762  141753      68  141774
  141765      68  141786  141777      68  141798  141789      68  141810  141801
      68  141822  141813      68  141834  141825      68  141846  141837      68
  141858  141849      68  141870  141861      68  141882  141873      68  141894
  141885      68  141906  141897      68  141918  141909      68  141930  141921
      68  141942  141933      68  141954  141945      68  141966  141957      68
  141978  141969      68  141990  141981      68  142002  141993      68  142014
  142005      68  142026  142017      68  142038  142029      68  142050  142041
      68  142062  142053      68  142074  142065      68  142086  142077      68
  142098  142089      68  142110  142101      68  142122  142113      68  142134
  142125      68  142146  142137      68  142158  142149      68  142170  142161
      68  142182  142173      68  142194  142185      68  142206  142197      68
  142218  142209      68  142230  142221      68  142242  142233      68  142254
  142245      68  142266  142257      68  142278  142269      68  142290  142281
      68  142302  142293      68  142314  142305      68  142326  142317      68
  142338  142329      68  142350  142341      68  142362  142353      68  142374
  142365      68  142386  142377      68  142398  142389      68  142410  142401
      68  142422  142413      68  142434  142425      68  142446  142437      68
  142458  142449      68  142470  142461      68  142482  142473      68  142494
  142485      68  142506  142497      68  142518  142509      68  142530  142521
      68  142542  142533      68  142554  142545      68  142566  142557      68
  142578  142569      68  142590  142581      68  142602  142593      68  142614
  142605      68  142626  142617      68  142638  142629      68  142650  142641
      68  142662  142653      68  142674  142665      68  142686  142677      68
  142698  142689      68  142710  142701      68  142722  142713      68  142734
  142725      68  142746  142737      68  142758  142749      68  142770  142761
      68  142782  142773      68  142794  142785      68  142806  142797      68
  142818  142809      68  142830  142821      68  142842  142833      68  142854
  142845      68  142866  142857      68  142878  142869      68  142890  142881
      68  142902  142893      68  142914  142905      68  142926  142917      68
  142938  142929      68  142950  142941      68  142962  142953      68  142974
  142965      68  142986  142977      68  142998  142989      68  143010  143001
      68  143022  143013      68  143034  143025      68  143046  143037      68
  143058  143049      68  143070  143061      68  143082  143073      68  143094
  143085      68  143106  143097      68  143118  143109      68  143130  143121
      68  143142  143133      68  143154  143145      68  143166  143157      68
  143178  143169      68  143190  143181      68  143202  143193      68  143214
  143205      68  143226  143217      68  143238  143229      68  143250  143241
      68  143262  143253      68  143274  143265      68  143286  143277      68
  143298  143289      68  143310  143301      68  143322  143313      68  143334
  143325      68  143346  143337      68  143358  143349      68  143370  143361
      68  143382  143373      68  143394  143385      68  143406  143397      68
  143418  143409      68  143430  143421      68  143442  143433      68  143454
  143445      68  143466  143457      68  143478  143469      68  143490  143481
      68  143502  143493      68  143514  143505      68  143526  143517      68
  143538  143529      68  143550  143541      68  143562  143553      68  143574
  143565      68  143586  143577      68  143598  143589      68  143610  143601
      68  143622  143613      68  143634  143625      68  143646  143637      68
  143658  143649      68  143670  143661      68  143682  143673      68  143694
  143685      68  143706  143697      68  143718  143709      68  143730  143721
      68  143742  143733      68  143754  143745      68  143766  143757      68
  143778  143769      68  143790  143781      68  143802  143793      68  143814
  143805      68  143826  143817      68  143838  143829      68  143850  143841
      68  143862  143853      68  143874  143865      68  143886  143877      68
  143898  143889      68  143910  143901      68  143922  143913      68  143934
  143925      68  143946  143937      68  143958  143949      68  143970  143961
      68  143982  143973      68  143994  143985      68  144006  143997      68
  144018  144009      68  144030  144021      68  144042  144033      68  144054
  144045      68  144066  144057      68  144078  144069      68  144090  144081
      68  144102  144093      68  144114  144105      68  144126  144117      68
  144138  144129      68  144150  144141      68  144162  144153      68  144174
  144165      68  144186  144177      68  144198  144189      68  144210  144201
      68  144222  144213      68  144234  144225      68  144246  144237      68
  144258  144249      68  144270  144261      68  144282  144273      68  144294
  144285      68  144306  144297      68  144318  144309      68  144330  144321
      68  144342  144333      68  144354  144345      68  144366  144357      68
  144378  144369      68  144390  144381      68  144402  144393      68  144414
  144405      68  144426  144417      68  144438  144429      68  144450  144441
      68  144462  144453      68  144474  144465      68  144486  144477      68
  144498  144489      68  144510  144501      68  144522  144513      68  144534
  144525      68  144546  144537      68  144558  144549      68  144570  144561
      68  144582  144573      68  144594  144585      68  144606  144597      68
  144618  144609      68  144630  144621      68  144642  144633      68  144654
  144645      68  144666  144657      68  144678  144669      68  144690  144681
      68  144702  144693      68  144714  144705      68  144726  144717      68
  144738  144729      68  144750  144741      68  144762  144753      68  144774
  144765      68  144786  144777      68  144798  144789      68  144810  144801
      68  144822  144813      68  144834  144825      68  144846  144837      68
  144858  144849      68  144870  144861      68  144882  144873      68  144894
  144885      68  144906  144897      68  144918  144909      68  144930  144921
      68  144942  144933      68  144954  144945      68  144966  144957      68
  144978  144969      68  144990  144981      68  145002  144993      68  145014
  145005      68  145026  145017      68  145038  145029      68  145050  145041
      68  145062  145053      68  145074  145065      68  145086  145077      68
  145098  145089      68  145110  145101      68  145122  145113      68  145134
  145125      68  145146  145137      68  145158  145149      68  145170  145161
      68  145182  145173      68  145194  145185      68  145206  145197      68
  145218  145209      68  145230  145221      68  145242  145233      68  145254
  145245      68  145266  145257      68  145278  145269      68  145290  145281
      68  145302  145293      68  145314  145305      68  145326  145317      68
  145338  145329      68  145350  145341      68  145362  145353      68  145374
  145365      68  145386  145377      68  145398  145389      68  145410  145401
      68  145422  145413      68  145434  145425      68  145446  145437      68
  145458  145449      68  145470  145461      68
%FLAG ANGLES_INC_HYDROGEN                                                       
%FORMAT(10I8)                                                                   
      12      18      21       2       9       3      12       4       6       3
       9       5       6       3      12       4       0       3       6       5
       0       3       9       5       0       3      12       4      84      90
      93       2      78      75      81       8      72      69      75       9
      69      75      78       9      66      63      69       9      63      69
      72       9      60      57      63       9      57      63      66       9
      54      57      60      13      51      48      54      16      45      42
      48      19      42      48      51      21      39      42      45      23
      36      30      39      27      33      30      36       5      33      30
      39      27      27      24      30      31      27      24      84      32
      24      30      33      33      24      30      36      33      21      18
      24      37      18      24      27      38     132     138     141       2
     126     120     129       5     123     120     126       5     123     120
     129       5     114     108     117       5     111     108     114       5
     111     108     117       5     105     102     108      42     105     102
     120      42     102     108     111      44     102     108     114      44
     102     108     117      44     102     120     123      44     102     120
     126      44     102     120     129      44      99      96     102      45
      99      96     132      32      96     102     105      46      93      90
      96      37      90      96      99      38     174     180     183       2
     162     156     165       5     159     156     162       5     159     156
     165       5     153     150     156      50     153     150     168      51
     150     156     159      44     150     156     162      44     150     156
     165      44     150     168     171      52     147     144     150      45
     147     144     174      32     144     150     153      53     141     138
     144      37     138     144     147      38     225     231     234       2
     216     219     222      55     213     210     216      56     207     204
     210      58     204     210     213      60     201     204     207      62
     201     219     222      65     198     192     201      66     195     192
     198       5     195     192     201      66     189     186     192      31
     189     186     225      32     186     192     195      33     186     192
     198      33     183     180     186      37     180     186     189      38
     297     333     375       2     291     288     294      71     282     279
     285      71     276     279     282      73     276     279     285      73
     276     288     291      73     276     288     294      73     273     270
     276      73     267     261     270      74     264     261     267      75
     264     261     270      74     261     270     273      76     258     252
     261      78     255     252     258      79     255     252     261      78
     252     261     264      80     252     261     267      80     249     243
     252      78     246     243     249      79     246     243     252      78
     243     252     255      78     243     252     258      78     240     237
     243      84     240     237     297      32     237     243     246      85
     237     243     249      85     234     231     237      37     231     237
     240      38     372     330     501      88     369     330     372      89
     369     330     501      88     357     321     360      89     351     318
     354      89     345     315     348      89     339     312     342      89
     336     312     339      89     336     312     342      89     330     327
     366      90     330     501     522      88     330     501     525      88
     327     324     363      92     327     330     369      93     327     330
     372      93     324     321     357      93     324     321     360      93
     324     327     366      92     321     318     351      88     321     318
     354      88     321     324     363      90     318     315     345      88
     318     315     348      88     318     321     357      88     318     321
     360      88     315     318     351      88     315     318     354      88
     309     312     336      99     309     312     339      99     309     312
     342      99     309     315     345      99     309     315     348      99
     309     333     375     101     303     378     381       2     402     408
     411       2     396     390     399       5     393     390     396       5
     393     390     399       5     387     384     390      31     387     384
     402      32     384     390     393      33     384     390     396      33
     384     390     399      33     381     378     384      37     378     384
     387      38     423     429     432       2     420     414     423      32
     417     414     420     105     417     414     423      32     411     408
     414      37     408     414     417      38     408     414     420      38
     480     504     528       2     474     468     477       5     471     468
     474       5     471     468     477       5     462     456     465       5
     459     456     462       5     459     456     465       5     453     450
     456      42     453     450     468      42     450     456     459      44
     450     456     462      44     450     456     465      44     450     468
     471      44     450     468     474      44     450     468     477      44
     447     441     450     106     444     441     447     107     444     441
     450     106     441     450     453     109     438     435     441     111
     438     435     480      32     435     441     444     112     435     441
     447     112     432     429     435      37     429     435     438      38
     522     501     525      89     516     498     519      89     510     495
     513      89     507     495     510      89     507     495     513      89
     501     498     516      88     501     498     519      88     498     501
     522      88     498     501     525      88     492     495     507      99
     492     495     510      99     492     495     513      99     492     498
     516      99     492     498     519      99     492     504     528     101
     486     531     534       2     558     564     567       2     549     543
     552     115     546     543     549     116     546     543     552     115
     543     552     555     117     540     537     543     111     540     537
     558      32     537     543     546     118     537     543     549     118
     534     531     537      37     531     537     540      38     630     636
     639       2     624     621     627      71     615     612     618      71
     609     612     615      73     609     612     618      73     609     621
     624      73     609     621     627      73     606     603     609      73
     600     594     603      74     597     594     600      75     597     594
     603      74     594     603     606      76     591     585     594      78
     588     585     591      79     588     585     594      78     585     594
     597      80     585     594     600      80     582     576     585      78
     579     576     582      79     579     576     585      78     576     585
     588      78     576     585     591      78     573     570     576      84
     573     570     630      32     570     576     579      85     570     576
     582      85     567     564     570      37     564     570     573      38
     663     669     672       2     654     648     657     115     651     648
     654     116     651     648     657     115     648     657     660     117
     645     642     648     111     645     642     663      32     642     648
     651     118     642     648     654     118     639     636     642      37
     636     642     645      38     684     690     693       2     681     675
     684      32     678     675     681     105     678     675     684      32
     672     669     675      37     669     675     678      38     669     675
     681      38     705     711     714       2     702     696     705      32
     699     696     702     105     699     696     705      32     693     690
     696      37     690     696     699      38     690     696     702      38
     753     759     762       2     747     741     750       5     744     741
     747       5     744     741     750       5     735     729     738       5
     732     729     735       5     732     729     738       5     726     723
     729      42     726     723     741      42     723     729     732      44
     723     729     735      44     723     729     738      44     723     741
     744      44     723     741     747      44     723     741     750      44
     720     717     723      45     720     717     753      32     717     723
     726      46     714     711     717      37     711     717     720      38
     801     807     810       2     795     789     798       5     792     789
     795       5     792     789     798       5     783     777     786       5
     780     777     783       5     780     777     786       5     774     771
     777      42     774     771     789      42     771     777     780      44
     771     777     783      44     771     777     786      44     771     789
     792      44     771     789     795      44     771     789     798      44
     768     765     771      45     768     765     801      32     765     771
     774      46     762     759     765      37     759     765     768      38
     867     873     876       2     861     855     864     120     858     855
     861     120     858     855     864     120     852     846     855     121
     849     846     852     122     849     846     855     121     846     855
     858     123     846     855     861     123     846     855     864     123
     843     837     846      78     840     837     843      79     840     837
     846      78     837     846     849     124     837     846     852     124
     834     828     837      78     831     828     834      79     831     828
     837      78     828     837     840      78     828     837     843      78
     825     819     828      78     822     819     825      79     822     819
     828      78     819     828     831      78     819     828     834      78
     816     813     819      84     816     813     867      32     813     819
     822      85     813     819     825      85     810     807     813      37
     807     813     816      38     909     915     918       2     903     900
     906     126     894     900     903       2     894     900     906       2
     891     885     894     127     888     885     891     107     888     885
     894     127     882     879     885     111     882     879     909      32
     879     885     888     112     879     885     891     112     876     873
     879      37     873     879     882      38     951     957     960       2
     945     942     948     126     936     942     945       2     936     942
     948       2     933     927     936     127     930     927     933     107
     930     927     936     127     924     921     927     111     924     921
     951      32     921     927     930     112     921     927     933     112
     918     915     921      37     915     921     924      38    1011    1017
    1020       2    1002     999    1005       9     999    1005    1008       9
     996     993     999       9     993     999    1002       9     990     987
     993       9     987     993     996       9     984     981     987       9
     981     987     990       9     978     981     984       9     978    1005
    1008       9     975     969     978     131     972     969     975       5
     972     969     978     131     966     963     969      31     966     963
    1011      32     963     969     972      33     963     969     975      33
     960     957     963      37     957     963     966      38    1053    1047
    1056       5    1050    1047    1053       5    1050    1047    1056       5
    1041    1035    1044       5    1038    1035    1041       5    1038    1035
    1044       5    1032    1029    1035      42    1032    1029    1047      42
    1029    1035    1038      44    1029    1035    1041      44    1029    1035
    1044      44    1029    1047    1050      44    1029    1047    1053      44
    1029    1047    1056      44    1026    1023    1029      45    1026    1023
    1059      32    1023    1029    1032      46    1020    1017    1023      37
    1017    1023    1026      38    1101    1107    1110       2    1098    1095
    1101      32    1092    1086    1095      33    1089    1086    1092       5
    1089    1086    1095      33    1086    1095    1098      31    1083    1077
    1086     135    1080    1077    1083       5    1080    1077    1086     135
    1077    1086    1089     135    1077    1086    1092     135    1074    1068
    1077     137    1071    1068    1074     138    1071    1068    1077     137
    1068    1077    1080     135    1068    1077    1083     135    1065    1068
    1071     141    1065    1068    1074     141    1065    1095    1098      38
    1143    1149    1152       2    1131    1125    1134       5    1128    1125
    1131       5    1128    1125    1134       5    1122    1119    1125      50
    1122    1119    1137      51    1119    1125    1128      44    1119    1125
    1131      44    1119    1125    1134      44    1119    1137    1140      52
    1116    1113    1119      45    1116    1113    1143      32    1113    1119
    1122      53    1110    1107    1113      37    1107    1113    1116      38
    1179    1185    1188       2    1167    1161    1170     144    1164    1161
    1167     107    1164    1161    1170     144    1158    1155    1161     111
    1158    1155    1179      32    1155    1161    1164     112    1155    1161
    1167     112    1152    1149    1155      37    1149    1155    1158      38
    1227    1233    1236       2    1221    1215    1224       5    1218    1215
    1221       5    1218    1215    1224       5    1209    1203    1212       5
    1206    1203    1209       5    1206    1203    1212       5    1200    1197
    1203      42    1200    1197    1215      42    1197    1203    1206      44
    1197    1203    1209      44    1197    1203    1212      44    1197    1215
    1218      44    1197    1215    1221      44    1197    1215    1224      44
    1194    1191    1197      45    1194    1191    1227      32    1191    1197
    1200      46    1188    1185    1191      37    1185    1191    1194      38
    1245    1239    1248      32    1242    1239    1245     105    1242    1239
    1248      32    1236    1233    1239      37    1233    1239    1242      38
    1233    1239    1245      38    1290    1296    1299       2    1287    1284
    1290      32    1281    1275    1284      33    1278    1275    1281       5
    1278    1275    1284      33    1275    1284    1287      31    1272    1266
    1275     135    1269    1266    1272       5    1269    1266    1275     135
    1266    1275    1278     135    1266    1275    1281     135    1263    1257
    1266     137    1260    1257    1263     138    1260    1257    1266     137
    1257    1266    1269     135    1257    1266    1272     135    1254    1257
    1260     141    1254    1257    1263     141    1254    1284    1287      38
    1350    1356    1359       2    1341    1338    1344       9    1338    1344
    1347       9    1335    1332    1338       9    1332    1338    1341       9
    1329    1326    1332       9    1326    1332    1335       9    1323    1320
    1326       9    1320    1326    1329       9    1317    1320    1323       9
    1317    1344    1347       9    1314    1308    1317     131    1311    1308
    1314       5    1311    1308    1317     131    1305    1302    1308      31
    1305    1302    1350      32    1302    1308    1311      33    1302    1308
    1314      33    1299    1296    1302      37    1296    1302    1305      38
    1380    1386    1389       2    1374    1368    1377       5    1371    1368
    1374       5    1371    1368    1377       5    1365    1362    1368      31
    1365    1362    1380      32    1362    1368    1371      33    1362    1368
    1374      33    1362    1368    1377      33    1359    1356    1362      37
    1356    1362    1365      38    1440    1446    1449       2    1440    1446
    1452       2    1431    1428    1434       9    1428    1434    1437       9
    1425    1422    1428       9    1422    1428    1431       9    1419    1416
    1422       9    1416    1422    1425       9    1413    1410    1416       9
    1410    1416    1419       9    1407    1410    1413       9    1407    1434
    1437       9    1404    1398    1407     131    1401    1398    1404       5
    1401    1398    1407     131    1395    1392    1398      31    1395    1392
    1440      32    1392    1398    1401      33    1392    1398    1404      33
    1389    1386    1392      37    1386    1392    1395      38    1449    1446
    1452     126
%FLAG ANGLES_WITHOUT_HYDROGEN                                                   
%FORMAT(10I8)                                                                   
      15      12      18       1      12      18      24       3       3      12
      15       6       3      12      18       7      87      84      90       1
      84      90      96       3      69      75      81      10      63      69
      75      11      57      54      81      12      57      63      69      11
      54      57      63      14      54      81      75      15      48      54
      57      17      48      54      81      18      42      39      81      20
      42      48      54      22      39      42      48      24      39      81
      54      25      39      81      75      26      30      24      84      28
      30      39      42      29      30      39      81      30      24      30
      39      34      24      84      87      35      24      84      90      36
      18      24      30      39      18      24      84      40     135     132
     138       1     132     138     144       3     108     102     120      41
     102      96     132      43      96     102     108      47      96     102
     120      47      96     132     135      35      96     132     138      36
      90      96     102      48      90      96     132      40     177     174
     180       1     174     180     186       3     156     150     168      49
     150     144     174      43     144     150     156      47     144     150
     168      54     144     174     177      35     144     174     180      36
     138     144     150      48     138     144     174      40     228     225
     231       1     225     231     237       3     210     216     219      57
     204     201     219      59     204     210     216      61     201     204
     210      63     201     219     216      64     192     186     225      28
     192     201     204      67     192     201     219      68     186     192
     201      69     186     225     228      35     186     225     231      36
     180     186     192      39     180     186     225      40     300     297
     333       1     297     333     309      70     279     276     288      72
     270     276     279      72     270     276     288      72     261     270
     276      77     252     261     270      81     243     237     297      82
     243     252     261      83     237     243     252      86     237     297
     300      35     237     297     333      36     231     237     243      87
     231     237     297      40     330     501     498      91     327     330
     501      94     324     327     330      95     321     324     327      95
     318     321     324      94     315     309     333      96     315     318
     321      91     312     309     315      97     312     309     333      96
     309     303     378      98     309     315     318     100     306     303
     309     102     306     303     378       1     303     309     312     103
     303     309     315     103     303     309     333     104     303     378
     384       3     405     402     408       1     402     408     414       3
     390     384     402      28     384     402     405      35     384     402
     408      36     378     384     390      39     378     384     402      40
     426     423     429       1     423     429     435       3     414     423
     426      35     414     423     429      36     408     414     423      40
     483     480     504       1     480     504     492      70     456     450
     468      41     441     435     480     108     441     450     456     110
     441     450     468     110     435     441     450     113     435     480
     483      35     435     480     504      36     429     435     441     114
     429     435     480      40     498     492     504      96     495     492
     498      97     495     492     504      96     492     486     531      98
     492     498     501     100     489     486     492     102     489     486
     531       1     486     492     495     103     486     492     498     103
     486     492     504     104     486     531     537       3     561     558
     564       1     558     564     570       3     543     537     558     108
     537     543     552     119     537     558     561      35     537     558
     564      36     531     537     543     114     531     537     558      40
     633     630     636       1     630     636     642       3     612     609
     621      72     603     609     612      72     603     609     621      72
     594     603     609      77     585     594     603      81     576     570
     630      82     576     585     594      83     570     576     585      86
     570     630     633      35     570     630     636      36     564     570
     576      87     564     570     630      40     666     663     669       1
     663     669     675       3     648     642     663     108     642     648
     657     119     642     663     666      35     642     663     669      36
     636     642     648     114     636     642     663      40     687     684
     690       1     684     690     696       3     675     684     687      35
     675     684     690      36     669     675     684      40     708     705
     711       1     705     711     717       3     696     705     708      35
     696     705     711      36     690     696     705      40     756     753
     759       1     753     759     765       3     729     723     741      41
     723     717     753      43     717     723     729      47     717     723
     741      47     717     753     756      35     717     753     759      36
     711     717     723      48     711     717     753      40     804     801
     807       1     801     807     813       3     777     771     789      41
     771     765     801      43     765     771     777      47     765     771
     789      47     765     801     804      35     765     801     807      36
     759     765     771      48     759     765     801      40     870     867
     873       1     867     873     879       3     837     846     855     125
     828     837     846      83     819     813     867      82     819     828
     837      83     813     819     828      86     813     867     870      35
     813     867     873      36     807     813     819      87     807     813
     867      40     912     909     915       1     909     915     921       3
     897     894     900       1     885     879     909     108     885     894
     897     128     885     894     900     129     879     885     894     130
     879     909     912      35     879     909     915      36     873     879
     885     114     873     879     909      40     954     951     957       1
     951     957     963       3     939     936     942       1     927     921
     951     108     927     936     939     128     927     936     942     129
     921     927     936     130     921     951     954      35     921     951
     957      36     915     921     927     114     915     921     951      40
    1014    1011    1017       1    1011    1017    1023       3     993     999
    1005      11     987     993     999      11     981     978    1005      11
     981     987     993      11     978     981     987      11     978    1005
     999      11     969     963    1011      28     969     978     981     132
     969     978    1005     132     963     969     978     133     963    1011
    1014      35     963    1011    1017      36     957     963     969      39
     957     963    1011      40    1062    1059    1065       1    1059    1065
    1068     134    1059    1065    1095       3    1035    1029    1047      41
    1029    1023    1059      43    1023    1029    1035      47    1023    1029
    1047      47    1023    1059    1062      35    1023    1059    1065      36
    1017    1023    1029      48    1017    1023    1059      40    1104    1101
    1107       1    1101    1107    1113       3    1095    1101    1104      35
    1095    1101    1107      36    1086    1095    1101      28    1077    1086
    1095     136    1068    1065    1095     139    1068    1077    1086     140
    1065    1068    1077     142    1065    1095    1086      39    1065    1095
    1101      40    1146    1143    1149       1    1143    1149    1155       3
    1125    1119    1137      49    1119    1113    1143      43    1113    1119
    1125      47    1113    1119    1137      54    1113    1143    1146      35
    1113    1143    1149      36    1107    1113    1119      48    1107    1113
    1143      40    1182    1179    1185       1    1179    1185    1191       3
    1173    1170    1176     143    1161    1155    1179     108    1161    1170
    1173     145    1161    1170    1176     145    1155    1161    1170     146
    1155    1179    1182      35    1155    1179    1185      36    1149    1155
    1161     114    1149    1155    1179      40    1230    1227    1233       1
    1227    1233    1239       3    1203    1197    1215      41    1197    1191
    1227      43    1191    1197    1203      47    1191    1197    1215      47
    1191    1227    1230      35    1191    1227    1233      36    1185    1191
    1197      48    1185    1191    1227      40    1251    1248    1254       1
    1248    1254    1257     134    1248    1254    1284       3    1239    1248
    1251      35    1239    1248    1254      36    1233    1239    1248      40
    1293    1290    1296       1    1290    1296    1302       3    1284    1290
    1293      35    1284    1290    1296      36    1275    1284    1290      28
    1266    1275    1284     136    1257    1254    1284     139    1257    1266
    1275     140    1254    1257    1266     142    1254    1284    1275      39
    1254    1284    1290      40    1353    1350    1356       1    1350    1356
    1362       3    1332    1338    1344      11    1326    1332    1338      11
    1320    1317    1344      11    1320    1326    1332      11    1317    1320
    1326      11    1317    1344    1338      11    1308    1302    1350      28
    1308    1317    1320     132    1308    1317    1344     132    1302    1308
    1317     133    1302    1350    1353      35    1302    1350    1356      36
    1296    1302    1308      39    1296    1302    1350      40    1383    1380
    1386       1    1380    1386    1392       3    1368    1362    1380      28
    1362    1380    1383      35    1362    1380    1386      36    1356    1362
    1368      39    1356    1362    1380      40    1443    1440    1446       1
    1422    1428    1434      11    1416    1422    1428      11    1410    1407
    1434      11    1410    1416    1422      11    1407    1410    1416      11
    1407    1434    1428      11    1398    1392    1440      28    1398    1407
    1410     132    1398    1407    1434     132    1392    1398    1407     133
    1392    1440    1443      35    1392    1440    1446      36    1386    1392
    1398      39    1386    1392    1440      40
%FLAG DIHEDRALS_INC_HYDROGEN                                                    
%FORMAT(10I8)                                                                   
      15      12      18      21       1      15      12     -18      21       2
      12      18      24      27       3       9       3      12      15       7
       9       3     -12      15       3       9       3     -12      15       8
       9       3      12      18       3       6       3      12      15       7
       6       3     -12      15       3       6       3     -12      15       8
       6       3      12      18       3       3      12      18      21       2
       0       3      12      15       7       0       3     -12      15       3
       0       3     -12      15       8       0       3      12      18       3
      87      84      90      93       1      87      84     -90      93       2
      84      90      96      99       3      72      69      75      78       9
      72      69      75      81       9      66      63      69      72       9
      66      63      69      75       9      63      69      75      78       9
      60      57      54      81       9      60      57      63      66       9
      60      57      63      69       9      57      63      69      72       9
      54      57      63      66       9      54      81      75      78      11
      51      48      54      57      12      51      48      54      81      12
      48      54      57      60       9      45      42      39      81      13
      45      42      48      51      14      45      42      48      54      14
      39      42      48      51      14      39      81      75      78      11
      36      30      24      84      20      36      30      39      42       3
      36      30      39      81       3      33      30      24      84      20
      33      30      39      42       3      33      30      39      81       3
      30      39      42      45      13      27      24      30      33      20
      27      24      30      36      20      27      24      30      39      20
      27      24      84      87       4      27      24     -84      87       3
      27      24     -84      87      21      27      24      84      90       3
      24      84      90      93       2      21      18      24      27       3
      21      18      24      30       3      21      18      24      84       3
      18      24      30      33      20      18      24      30      36      20
     135     132     138     141       1     135     132    -138     141       2
     132     138     144     147       3     117     108     102     120      35
     114     108     102     120      35     111     108     102     120      35
     108     102     120     123      35     108     102     120     126      35
     108     102     120     129      35     105     102      96     132      20
     105     102     108     111      36     105     102     108     114      36
     105     102     108     117      36     105     102     120     123      36
     105     102     120     126      36     105     102     120     129      36
      99      96     102     105      20      99      96     102     108      20
      99      96     102     120      20      99      96     132     135       4
      99      96    -132     135       3      99      96    -132     135      21
      99      96     132     138       3      96     102     108     111      35
      96     102     108     114      35      96     102     108     117      35
      96     102     120     123      35      96     102     120     126      35
      96     102     120     129      35      96     132     138     141       2
      93      90      96      99       3      93      90      96     102       3
      93      90      96     132       3      90      96     102     105      20
     177     174     180     183       1     177     174    -180     183       2
     174     180     186     189       3     165     156     150     168      44
     165     156    -150     168       5     162     156     150     168      44
     162     156    -150     168       5     159     156     150     168      44
     159     156    -150     168       5     156     150     168     171      45
     156     150    -168     171      46     156     150    -168     171      47
     156     150    -168     171      48     153     150     144     174      20
     153     150     156     159      20     153     150     156     162      20
     153     150     156     165      20     153     150     168     171      49
     147     144     150     153      20     147     144     150     156      20
     147     144     150     168      44     147     144    -150     168       5
     147     144     174     177       4     147     144    -174     177       3
     147     144    -174     177      21     147     144     174     180       3
     144     150     156     159      35     144     150     156     162      35
     144     150     156     165      35     144     150     168     171      50
     144     150    -168     171      51     144     150    -168     171      47
     144     150    -168     171      52     144     174     180     183       2
     141     138     144     147       3     141     138     144     150       3
     141     138     144     174       3     138     144     150     153      20
     228     225     231     234       1     228     225    -231     234       2
     225     231     237     240       3     213     210     216     219      56
     210     216     219     222      58     207     204     201     219      57
     207     204     210     213      59     207     204     210     216      59
     204     201     219     222      60     201     204     210     213      59
     198     192     186     225      20     198     192     201     204       3
     198     192     201     219       3     195     192     186     225      20
     195     192     201     204       3     195     192     201     219       3
     192     201     204     207      57     192     201     219     222      60
     189     186     192     195      20     189     186     192     198      20
     189     186     192     201      20     189     186     225     228       4
     189     186    -225     228       3     189     186    -225     228      21
     189     186     225     231       3     186     225     231     234       2
     183     180     186     189       3     183     180     186     192       3
     183     180     186     225       3     180     186     192     195      20
     180     186     192     198      20     300     297     333     375       1
     300     297    -333     375       2     285     279     276     288      58
     285     279    -276     288       6     282     279     276     288      58
     282     279    -276     288       6     279     276     288     291      58
     279     276    -288     291       6     279     276     288     294      58
     279     276    -288     294       6     273     270     276     279      58
     273     270    -276     279       6     273     270     276     288      58
     273     270    -276     288       6     270     276     279     282      58
     270     276    -279     282       6     270     276     279     285      58
     270     276    -279     285       6     270     276     288     291      58
     270     276    -288     291       6     270     276     288     294      58
     270     276    -288     294       6     267     261     270     273       5
     267     261     270     276       5     264     261     270     273       5
     264     261     270     276       5     258     252     261     264      20
     258     252     261     267      20     258     252     261     270      20
     255     252     261     264      20     255     252     261     267      20
     255     252     261     270      20     252     261     270     273       5
     249     243     237     297      20     249     243     252     255      36
     249     243     252     258      36     249     243     252     261      35
     246     243     237     297      20     246     243     252     255      36
     246     243     252     258      36     246     243     252     261      35
     243     252     261     264      20     243     252     261     267      20
     240     237     243     246      20     240     237     243     249      20
     240     237     243     252      20     240     237     297     300       4
     240     237    -297     300       3     240     237    -297     300      21
     240     237     297     333       3     237     243     252     255      35
     237     243     252     258      35     237     297     333     375       2
     234     231     237     240       3     234     231     237     243       3
     234     231     237     297       3     231     237     243     246      20
     231     237     243     249      20     372     330     501     498      84
     372     330     501     522      85     372     330     501     525      85
     369     330     501     498      84     369     330     501     522      85
     369     330     501     525      85     366     327     330     369       3
     366     327     330     372       3     366     327     330     501       3
     363     324     327     366      86     360     321     324     363       3
     357     321     324     363       3     354     318     321     357      85
     354     318     321     360      85     351     318     321     357      85
     351     318     321     360      85     348     315     318     351      85
     348     315     318     354      85     345     315     318     351      85
     345     315     318     354      85     333     309     312     336      89
     333     309     312     339      89     333     309     312     342      89
     333     309     315     345      89     333     309     315     348      89
     330     327     324     363      90     330     501     498     516      84
     330     501     498     519      84     327     324     321     357      94
     327     324     321     360      94     327     330     501     522      96
     327     330     501     525      96     324     321     318     351      96
     324     321     318     354      96     324     327     330     369      94
     324     327     330     372      94     321     318     315     345      84
     321     318     315     348      84     321     324     327     366      90
     318     321     324     363       3     315     309     312     336      84
     315     309     312     339      84     315     309     312     342      84
     315     309     333     375       3     315     318     321     357      84
     315     318     321     360      84     312     309     315     345      84
     312     309     315     348      84     312     309     333     375       3
     309     303     378     381       2     309     315     318     351      84
     309     315     318     354      84     306     303     378     381       1
     306     303    -378     381       2     303     309     312     336      20
     303     309     312     339      20     303     309     312     342      20
     303     309     315     345      20     303     309     315     348      20
     303     309     333     375       3     303     378     384     387       3
     405     402     408     411       1     405     402    -408     411       2
     402     408     414     417       3     402     408     414     420       3
     399     390     384     402      20     396     390     384     402      20
     393     390     384     402      20     387     384     390     393      20
     387     384     390     396      20     387     384     390     399      20
     387     384     402     405       4     387     384    -402     405       3
     387     384    -402     405      21     387     384     402     408       3
     384     402     408     411       2     381     378     384     387       3
     381     378     384     390       3     381     378     384     402       3
     378     384     390     393      20     378     384     390     396      20
     378     384     390     399      20     426     423     429     432       1
     426     423    -429     432       2     423     429     435     438       3
     420     414     423     426       4     420     414    -423     426       3
     420     414    -423     426      21     420     414     423     429       3
     417     414     423     426       4     417     414    -423     426       3
     417     414    -423     426      21     417     414     423     429       3
     414     423     429     432       2     411     408     414     417       3
     411     408     414     420       3     411     408     414     423       3
     483     480     504     528       1     483     480    -504     528       2
     465     456     450     468      35     462     456     450     468      35
     459     456     450     468      35     456     450     468     471      35
     456     450     468     474      35     456     450     468     477      35
     453     450     456     459      36     453     450     456     462      36
     453     450     456     465      36     453     450     468     471      36
     453     450     468     474      36     453     450     468     477      36
     447     441     435     480      20     447     441     450     453      36
     447     441     450     456      35     447     441     450     468      35
     444     441     435     480      20     444     441     450     453      36
     444     441     450     456      35     444     441     450     468      35
     441     450     456     459      35     441     450     456     462      35
     441     450     456     465      35     441     450     468     471      35
     441     450     468     474      35     441     450     468     477      35
     438     435     441     444      20     438     435     441     447      20
     438     435     441     450      20     438     435     480     483       4
     438     435    -480     483       3     438     435    -480     483      21
     438     435     480     504       3     435     441     450     453      35
     435     480     504     528       2     432     429     435     438       3
     432     429     435     441       3     432     429     435     480       3
     429     435     441     444      20     429     435     441     447      20
     519     498     501     522      85     519     498     501     525      85
     516     498     501     522      85     516     498     501     525      85
     504     492     495     507      89     504     492     495     510      89
     504     492     495     513      89     504     492     498     516      89
     504     492     498     519      89     498     492     495     507      84
     498     492     495     510      84     498     492     495     513      84
     498     492     504     528       3     495     492     498     516      84
     495     492     498     519      84     495     492     504     528       3
     492     486     531     534       2     492     498     501     522      84
     492     498     501     525      84     489     486     531     534       1
     489     486    -531     534       2     486     492     495     507      20
     486     492     495     510      20     486     492     495     513      20
     486     492     498     516      20     486     492     498     519      20
     486     492     504     528       3     486     531     537     540       3
     561     558     564     567       1     561     558    -564     567       2
     558     564     570     573       3     549     543     537     558      20
     549     543     552     555      49     546     543     537     558      20
     546     543     552     555      49     540     537     543     546      20
     540     537     543     549      20     540     537     543     552      44
     540     537    -543     552       5     540     537     558     561       4
     540     537    -558     561       3     540     537    -558     561      21
     540     537     558     564       3     537     543     552     555     117
     537     543    -552     555     118     537     543    -552     555     119
     537     543    -552     555     120     537     558     564     567       2
     534     531     537     540       3     534     531     537     543       3
     534     531     537     558       3     531     537     543     546      20
     531     537     543     549      20     633     630     636     639       1
     633     630    -636     639       2     630     636     642     645       3
     618     612     609     621      58     618     612    -609     621       6
     615     612     609     621      58     615     612    -609     621       6
     612     609     621     624      58     612     609    -621     624       6
     612     609     621     627      58     612     609    -621     627       6
     606     603     609     612      58     606     603    -609     612       6
     606     603     609     621      58     606     603    -609     621       6
     603     609     612     615      58     603     609    -612     615       6
     603     609     612     618      58     603     609    -612     618       6
     603     609     621     624      58     603     609    -621     624       6
     603     609     621     627      58     603     609    -621     627       6
     600     594     603     606       5     600     594     603     609       5
     597     594     603     606       5     597     594     603     609       5
     591     585     594     597      20     591     585     594     600      20
     591     585     594     603      20     588     585     594     597      20
     588     585     594     600      20     588     585     594     603      20
     585     594     603     606       5     582     576     570     630      20
     582     576     585     588      36     582     576     585     591      36
     582     576     585     594      35     579     576     570     630      20
     579     576     585     588      36     579     576     585     591      36
     579     576     585     594      35     576     585     594     597      20
     576     585     594     600      20     573     570     576     579      20
     573     570     576     582      20     573     570     576     585      20
     573     570     630     633       4     573     570    -630     633       3
     573     570    -630     633      21     573     570     630     636       3
     570     576     585     588      35     570     576     585     591      35
     570     630     636     639       2     567     564     570     573       3
     567     564     570     576       3     567     564     570     630       3
     564     570     576     579      20     564     570     576     582      20
     666     663     669     672       1     666     663    -669     672       2
     663     669     675     678       3     663     669     675     681       3
     654     648     642     663      20     654     648     657     660      49
     651     648     642     663      20     651     648     657     660      49
     645     642     648     651      20     645     642     648     654      20
     645     642     648     657      44     645     642    -648     657       5
     645     642     663     666       4     645     642    -663     666       3
     645     642    -663     666      21     645     642     663     669       3
     642     648     657     660     117     642     648    -657     660     118
     642     648    -657     660     119     642     648    -657     660     120
     642     663     669     672       2     639     636     642     645       3
     639     636     642     648       3     639     636     642     663       3
     636     642     648     651      20     636     642     648     654      20
     687     684     690     693       1     687     684    -690     693       2
     684     690     696     699       3     684     690     696     702       3
     681     675     684     687       4     681     675    -684     687       3
     681     675    -684     687      21     681     675     684     690       3
     678     675     684     687       4     678     675    -684     687       3
     678     675    -684     687      21     678     675     684     690       3
     675     684     690     693       2     672     669     675     678       3
     672     669     675     681       3     672     669     675     684       3
     708     705     711     714       1     708     705    -711     714       2
     705     711     717     720       3     702     696     705     708       4
     702     696    -705     708       3     702     696    -705     708      21
     702     696     705     711       3     699     696     705     708       4
     699     696    -705     708       3     699     696    -705     708      21
     699     696     705     711       3     696     705     711     714       2
     693     690     696     699       3     693     690     696     702       3
     693     690     696     705       3     756     753     759     762       1
     756     753    -759     762       2     753     759     765     768       3
     738     729     723     741      35     735     729     723     741      35
     732     729     723     741      35     729     723     741     744      35
     729     723     741     747      35     729     723     741     750      35
     726     723     717     753      20     726     723     729     732      36
     726     723     729     735      36     726     723     729     738      36
     726     723     741     744      36     726     723     741     747      36
     726     723     741     750      36     720     717     723     726      20
     720     717     723     729      20     720     717     723     741      20
     720     717     753     756       4     720     717    -753     756       3
     720     717    -753     756      21     720     717     753     759       3
     717     723     729     732      35     717     723     729     735      35
     717     723     729     738      35     717     723     741     744      35
     717     723     741     747      35     717     723     741     750      35
     717     753     759     762       2     714     711     717     720       3
     714     711     717     723       3     714     711     717     753       3
     711     717     723     726      20     804     801     807     810       1
     804     801    -807     810       2     801     807     813     816       3
     786     777     771     789      35     783     777     771     789      35
     780     777     771     789      35     777     771     789     792      35
     777     771     789     795      35     777     771     789     798      35
     774     771     765     801      20     774     771     777     780      36
     774     771     777     783      36     774     771     777     786      36
     774     771     789     792      36     774     771     789     795      36
     774     771     789     798      36     768     765     771     774      20
     768     765     771     777      20     768     765     771     789      20
     768     765     801     804       4     768     765    -801     804       3
     768     765    -801     804      21     768     765     801     807       3
     765     771     777     780      35     765     771     777     783      35
     765     771     777     786      35     765     771     789     792      35
     765     771     789     795      35     765     771     789     798      35
     765     801     807     810       2     762     759     765     768       3
     762     759     765     771       3     762     759     765     801       3
     759     765     771     774      20     870     867     873     876       1
     870     867    -873     876       2     867     873     879     882       3
     852     846     855     858      20     852     846     855     861      20
     852     846     855     864      20     849     846     855     858      20
     849     846     855     861      20     849     846     855     864      20
     843     837     846     849      20     843     837     846     852      20
     843     837     846     855      20     840     837     846     849      20
     840     837     846     852      20     840     837     846     855      20
     837     846     855     858      20     837     846     855     861      20
     837     846     855     864      20     834     828     837     840      36
     834     828     837     843      36     834     828     837     846      35
     831     828     837     840      36     831     828     837     843      36
     831     828     837     846      35     828     837     846     849      20
     828     837     846     852      20     825     819     813     867      20
     825     819     828     831      36     825     819     828     834      36
     825     819     828     837      35     822     819     813     867      20
     822     819     828     831      36     822     819     828     834      36
     822     819     828     837      35     819     828     837     840      35
     819     828     837     843      35     816     813     819     822      20
     816     813     819     825      20     816     813     819     828      20
     816     813     867     870       4     816     813    -867     870       3
     816     813    -867     870      21     816     813     867     873       3
     813     819     828     831      35     813     819     828     834      35
     813     867     873     876       2     810     807     813     816       3
     810     807     813     819       3     810     807     813     867       3
     807     813     819     822      20     807     813     819     825      20
     912     909     915     918       1     912     909    -915     918       2
     909     915     921     924       3     897     894     900     903       1
     897     894    -900     903       2     897     894     900     906       1
     897     894    -900     906       2     891     885     879     909      20
     891     885     894     897       7     891     885    -894     897       3
     891     885    -894     897       8     891     885     894     900       3
     888     885     879     909      20     888     885     894     897       7
     888     885    -894     897       3     888     885    -894     897       8
     888     885     894     900       3     885     894     900     903       2
     885     894     900     906       2     882     879     885     888      20
     882     879     885     891      20     882     879     885     894      20
     882     879     909     912       4     882     879    -909     912       3
     882     879    -909     912      21     882     879     909     915       3
     879     909     915     918       2     876     873     879     882       3
     876     873     879     885       3     876     873     879     909       3
     873     879     885     888      20     873     879     885     891      20
     954     951     957     960       1     954     951    -957     960       2
     951     957     963     966       3     939     936     942     945       1
     939     936    -942     945       2     939     936     942     948       1
     939     936    -942     948       2     933     927     921     951      20
     933     927     936     939       7     933     927    -936     939       3
     933     927    -936     939       8     933     927     936     942       3
     930     927     921     951      20     930     927     936     939       7
     930     927    -936     939       3     930     927    -936     939       8
     930     927     936     942       3     927     936     942     945       2
     927     936     942     948       2     924     921     927     930      20
     924     921     927     933      20     924     921     927     936      20
     924     921     951     954       4     924     921    -951     954       3
     924     921    -951     954      21     924     921     951     957       3
     921     951     957     960       2     918     915     921     924       3
     918     915     921     927       3     918     915     921     951       3
     915     921     927     930      20     915     921     927     933      20
    1014    1011    1017    1020       1    1014    1011   -1017    1020       2
    1011    1017    1023    1026       3    1002     999    1005    1008       9
     996     993     999    1002       9     996     993     999    1005       9
     993     999    1005    1008       9     990     987     993     996       9
     990     987     993     999       9     987     993     999    1002       9
     984     981     978    1005       9     984     981     987     990       9
     984     981     987     993       9     981     978    1005    1008       9
     981     987     993     996       9     978     981     987     990       9
     978    1005     999    1002       9     975     969     963    1011      20
     975     969     978     981       3     975     969     978    1005       3
     972     969     963    1011      20     972     969     978     981       3
     972     969     978    1005       3     969     978     981     984       9
     969     978    1005    1008       9     966     963     969     972      20
     966     963     969     975      20     966     963     969     978      20
     966     963    1011    1014       4     966     963   -1011    1014       3
     966     963   -1011    1014      21     966     963    1011    1017       3
     963    1011    1017    1020       2     960     957     963     966       3
     960     957     963     969       3     960     957     963    1011       3
     957     963     969     972      20     957     963     969     975      20
    1059    1065    1068    1071       3    1059    1065    1068    1074       3
    1059    1065    1095    1098       3    1044    1035    1029    1047      35
    1041    1035    1029    1047      35    1038    1035    1029    1047      35
    1035    1029    1047    1050      35    1035    1029    1047    1053      35
    1035    1029    1047    1056      35    1032    1029    1023    1059      20
    1032    1029    1035    1038      36    1032    1029    1035    1041      36
    1032    1029    1035    1044      36    1032    1029    1047    1050      36
    1032    1029    1047    1053      36    1032    1029    1047    1056      36
    1026    1023    1029    1032      20    1026    1023    1029    1035      20
    1026    1023    1029    1047      20    1026    1023    1059    1062       4
    1026    1023   -1059    1062       3    1026    1023   -1059    1062      21
    1026    1023    1059    1065       3    1023    1029    1035    1038      35
    1023    1029    1035    1041      35    1023    1029    1035    1044      35
    1023    1029    1047    1050      35    1023    1029    1047    1053      35
    1023    1029    1047    1056      35    1020    1017    1023    1026       3
    1020    1017    1023    1029       3    1020    1017    1023    1059       3
    1017    1023    1029    1032      20    1104    1101    1107    1110       1
    1104    1101   -1107    1110       2    1101    1107    1113    1116       3
    1098    1095    1101    1104       4    1098    1095   -1101    1104       3
    1098    1095   -1101    1104      21    1098    1095    1101    1107       3
    1095    1101    1107    1110       2    1092    1086    1095    1098      20
    1092    1086    1095    1101      20    1089    1086    1095    1098      20
    1089    1086    1095    1101      20    1083    1077    1086    1089      36
    1083    1077    1086    1092      36    1083    1077    1086    1095      35
    1080    1077    1086    1089      36    1080    1077    1086    1092      36
    1080    1077    1086    1095      35    1077    1086    1095    1098      20
    1074    1068    1065    1095       3    1074    1068    1077    1080      20
    1074    1068    1077    1083      20    1074    1068    1077    1086      20
    1071    1068    1065    1095       3    1071    1068    1077    1080      20
    1071    1068    1077    1083      20    1071    1068    1077    1086      20
    1068    1065    1095    1098       3    1068    1077    1086    1089      35
    1068    1077    1086    1092      35    1065    1068    1077    1080      20
    1065    1068    1077    1083      20    1065    1095    1086    1089      20
    1065    1095    1086    1092      20    1146    1143    1149    1152       1
    1146    1143   -1149    1152       2    1143    1149    1155    1158       3
    1134    1125    1119    1137      44    1134    1125   -1119    1137       5
    1131    1125    1119    1137      44    1131    1125   -1119    1137       5
    1128    1125    1119    1137      44    1128    1125   -1119    1137       5
    1125    1119    1137    1140      45    1125    1119   -1137    1140      46
    1125    1119   -1137    1140      47    1125    1119   -1137    1140      48
    1122    1119    1113    1143      20    1122    1119    1125    1128      20
    1122    1119    1125    1131      20    1122    1119    1125    1134      20
    1122    1119    1137    1140      49    1116    1113    1119    1122      20
    1116    1113    1119    1125      20    1116    1113    1119    1137      44
    1116    1113   -1119    1137       5    1116    1113    1143    1146       4
    1116    1113   -1143    1146       3    1116    1113   -1143    1146      21
    1116    1113    1143    1149       3    1113    1119    1125    1128      35
    1113    1119    1125    1131      35    1113    1119    1125    1134      35
    1113    1119    1137    1140      50    1113    1119   -1137    1140      51
    1113    1119   -1137    1140      47    1113    1119   -1137    1140      52
    1113    1143    1149    1152       2    1110    1107    1113    1116       3
    1110    1107    1113    1119       3    1110    1107    1113    1143       3
    1107    1113    1119    1122      20    1182    1179    1185    1188       1
    1182    1179   -1185    1188       2    1179    1185    1191    1194       3
    1167    1161    1155    1179      20    1167    1161    1170    1173       3
    1167    1161    1170    1176       3    1164    1161    1155    1179      20
    1164    1161    1170    1173       3    1164    1161    1170    1176       3
    1158    1155    1161    1164      20    1158    1155    1161    1167      20
    1158    1155    1161    1170      20    1158    1155    1179    1182       4
    1158    1155   -1179    1182       3    1158    1155   -1179    1182      21
    1158    1155    1179    1185       3    1155    1179    1185    1188       2
    1152    1149    1155    1158       3    1152    1149    1155    1161       3
    1152    1149    1155    1179       3    1149    1155    1161    1164      20
    1149    1155    1161    1167      20    1230    1227    1233    1236       1
    1230    1227   -1233    1236       2    1227    1233    1239    1242       3
    1227    1233    1239    1245       3    1212    1203    1197    1215      35
    1209    1203    1197    1215      35    1206    1203    1197    1215      35
    1203    1197    1215    1218      35    1203    1197    1215    1221      35
    1203    1197    1215    1224      35    1200    1197    1191    1227      20
    1200    1197    1203    1206      36    1200    1197    1203    1209      36
    1200    1197    1203    1212      36    1200    1197    1215    1218      36
    1200    1197    1215    1221      36    1200    1197    1215    1224      36
    1194    1191    1197    1200      20    1194    1191    1197    1203      20
    1194    1191    1197    1215      20    1194    1191    1227    1230       4
    1194    1191   -1227    1230       3    1194    1191   -1227    1230      21
    1194    1191    1227    1233       3    1191    1197    1203    1206      35
    1191    1197    1203    1209      35    1191    1197    1203    1212      35
    1191    1197    1215    1218      35    1191    1197    1215    1221      35
    1191    1197    1215    1224      35    1191    1227    1233    1236       2
    1188    1185    1191    1194       3    1188    1185    1191    1197       3
    1188    1185    1191    1227       3    1185    1191    1197    1200      20
    1248    1254    1257    1260       3    1248    1254    1257    1263       3
    1248    1254    1284    1287       3    1245    1239    1248    1251       4
    1245    1239   -1248    1251       3    1245    1239   -1248    1251      21
    1245    1239    1248    1254       3    1242    1239    1248    1251       4
    1242    1239   -1248    1251       3    1242    1239   -1248    1251      21
    1242    1239    1248    1254       3    1236    1233    1239    1242       3
    1236    1233    1239    1245       3    1236    1233    1239    1248       3
    1293    1290    1296    1299       1    1293    1290   -1296    1299       2
    1290    1296    1302    1305       3    1287    1284    1290    1293       4
    1287    1284   -1290    1293       3    1287    1284   -1290    1293      21
    1287    1284    1290    1296       3    1284    1290    1296    1299       2
    1281    1275    1284    1287      20    1281    1275    1284    1290      20
    1278    1275    1284    1287      20    1278    1275    1284    1290      20
    1272    1266    1275    1278      36    1272    1266    1275    1281      36
    1272    1266    1275    1284      35    1269    1266    1275    1278      36
    1269    1266    1275    1281      36    1269    1266    1275    1284      35
    1266    1275    1284    1287      20    1263    1257    1254    1284       3
    1263    1257    1266    1269      20    1263    1257    1266    1272      20
    1263    1257    1266    1275      20    1260    1257    1254    1284       3
    1260    1257    1266    1269      20    1260    1257    1266    1272      20
    1260    1257    1266    1275      20    1257    1254    1284    1287       3
    1257    1266    1275    1278      35    1257    1266    1275    1281      35
    1254    1257    1266    1269      20    1254    1257    1266    1272      20
    1254    1284    1275    1278      20    1254    1284    1275    1281      20
    1353    1350    1356    1359       1    1353    1350   -1356    1359       2
    1350    1356    1362    1365       3    1341    1338    1344    1347       9
    1335    1332    1338    1341       9    1335    1332    1338    1344       9
    1332    1338    1344    1347       9    1329    1326    1332    1335       9
    1329    1326    1332    1338       9    1326    1332    1338    1341       9
    1323    1320    1317    1344       9    1323    1320    1326    1329       9
    1323    1320    1326    1332       9    1320    1317    1344    1347       9
    1320    1326    1332    1335       9    1317    1320    1326    1329       9
    1317    1344    1338    1341       9    1314    1308    1302    1350      20
    1314    1308    1317    1320       3    1314    1308    1317    1344       3
    1311    1308    1302    1350      20    1311    1308    1317    1320       3
    1311    1308    1317    1344       3    1308    1317    1320    1323       9
    1308    1317    1344    1347       9    1305    1302    1308    1311      20
    1305    1302    1308    1314      20    1305    1302    1308    1317      20
    1305    1302    1350    1353       4    1305    1302   -1350    1353       3
    1305    1302   -1350    1353      21    1305    1302    1350    1356       3
    1302    1350    1356    1359       2    1299    1296    1302    1305       3
    1299    1296    1302    1308       3    1299    1296    1302    1350       3
    1296    1302    1308    1311      20    1296    1302    1308    1314      20
    1383    1380    1386    1389       1    1383    1380   -1386    1389       2
    1380    1386    1392    1395       3    1377    1368    1362    1380      20
    1374    1368    1362    1380      20    1371    1368    1362    1380      20
    1365    1362    1368    1371      20    1365    1362    1368    1374      20
    1365    1362    1368    1377      20    1365    1362    1380    1383       4
    1365    1362   -1380    1383       3    1365    1362   -1380    1383      21
    1365    1362    1380    1386       3    1362    1380    1386    1389       2
    1359    1356    1362    1365       3    1359    1356    1362    1368       3
    1359    1356    1362    1380       3    1356    1362    1368    1371      20
    1356    1362    1368    1374      20    1356    1362    1368    1377      20
    1443    1440    1446    1449       1    1443    1440   -1446    1449       2
    1443    1440    1446    1452       1    1443    1440   -1446    1452       2
    1431    1428    1434    1437       9    1425    1422    1428    1431       9
    1425    1422    1428    1434       9    1422    1428    1434    1437       9
    1419    1416    1422    1425       9    1419    1416    1422    1428       9
    1416    1422    1428    1431       9    1413    1410    1407    1434       9
    1413    1410    1416    1419       9    1413    1410    1416    1422       9
    1410    1407    1434    1437       9    1410    1416    1422    1425       9
    1407    1410    1416    1419       9    1407    1434    1428    1431       9
    1404    1398    1392    1440      20    1404    1398    1407    1410       3
    1404    1398    1407    1434       3    1401    1398    1392    1440      20
    1401    1398    1407    1410       3    1401    1398    1407    1434       3
    1398    1407    1410    1413       9    1398    1407    1434    1437       9
    1395    1392    1398    1401      20    1395    1392    1398    1404      20
    1395    1392    1398    1407      20    1395    1392    1440    1443       4
    1395    1392   -1440    1443       3    1395    1392   -1440    1443      21
    1395    1392    1440    1446       3    1392    1440    1446    1449       2
    1392    1440    1446    1452       2    1389    1386    1392    1395       3
    1389    1386    1392    1398       3    1389    1386    1392    1440       3
    1386    1392    1398    1401      20    1386    1392    1398    1404      20
      69      81     -75     -78     155      63      75     -69     -72     155
      57      69     -63     -66     155      54      63     -57     -60     155
      42      54     -48     -51     156      39      48     -42     -45     155
      12      24     -18     -21     155      84      93     -90     -96     155
     132     141    -138    -144     155     201     216    -219    -222     155
     204     216    -210    -213     155     201     210    -204    -207     156
     174     183    -180    -186     155     276     291    -288    -294     156
     276     282    -279    -285     156     261     276    -270    -273     156
     225     234    -231    -237     155     297     309    -333    -375     155
     324     330    -327    -366     155     327     321    -324    -363     155
     303     381    -378    -384     155     402     411    -408    -414     155
     423     432    -429    -435     155     480     492    -504    -528     155
     486     534    -531    -537     155     609     624    -621    -627     156
     609     615    -612    -618     156     594     609    -603    -606     156
     558     567    -564    -570     155     630     639    -636    -642     155
     663     672    -669    -675     155     684     693    -690    -696     155
     705     714    -711    -717     155     753     762    -759    -765     155
     801     810    -807    -813     155     894     903    -900    -906     156
     867     876    -873    -879     155     936     945    -942    -948     156
     909     918    -915    -921     155     978     999   -1005   -1008     155
     993    1005    -999   -1002     155     987     999    -993    -996     155
     981     993    -987    -990     155     978     987    -981    -984     155
     951     960    -957    -963     155    1011    1020   -1017   -1023     155
    1101    1110   -1107   -1113     155    1143    1152   -1149   -1155     155
    1179    1188   -1185   -1191     155    1227    1236   -1233   -1239     155
    1317    1338   -1344   -1347     155    1332    1344   -1338   -1341     155
    1326    1338   -1332   -1335     155    1320    1332   -1326   -1329     155
    1317    1326   -1320   -1323     155    1290    1299   -1296   -1302     155
    1350    1359   -1356   -1362     155    1407    1428   -1434   -1437     155
    1422    1434   -1428   -1431     155    1416    1428   -1422   -1425     155
    1410    1422   -1416   -1419     155    1407    1416   -1410   -1413     155
    1380    1389   -1386   -1392     155    1440    1449   -1446   -1452     156
%FLAG DIHEDRALS_WITHOUT_HYDROGEN                                                
%FORMAT(10I8)                                                                   
      15      12      18      24       2      12      18      24      30       4
      12      18     -24      30       3      12      18     -24      30       5
      12      18     -24      30       6      12      18      24      84       4
      12      18     -24      84       3      12      18     -24      84       5
      12      18     -24      84       6       3      12      18      24       2
      87      84      90      96       2      84      90      96     102       4
      84      90     -96     102       3      84      90     -96     102       5
      84      90     -96     102       6      84      90      96     132       4
      84      90     -96     132       3      84      90     -96     132       5
      84      90     -96     132       6      63      57      54      81       9
      63      69     -75      81       9      57      54      81      75      10
      57      63     -69      75       9      54      57      63      69       9
      54      81     -75      69      11      48      42     -39      81      13
      48      54      57      63       9      48      54      81      75      10
      42      39     -81      54      15      42      39      81      75      15
      42      48      54      57      12      42      48     -54      81      12
      39      30      24      84      16      39      30     -24      84      17
      39      30     -24      84      18      39      30     -24      84      19
      39      42     -48      54      14      39      81     -54      48      10
      39      81      54      57      10      39      81      75      69      11
      30      24      84      87       3      30      24      84      90       4
      30      24     -84      90       3      30      24     -84      90       5
      30      24     -84      90       6      30      39      42      48      13
      30      39      81      54      15      30      39      81      75      15
      24      30      39      42       4      24      30     -39      42       3
      24      30     -39      42       5      24      30     -39      42       6
      24      30      39      81      22      24      30     -39      81      23
      24      30     -39      81      24      24      30     -39      81      25
      24      84      90      96       2      18      24      30      39      26
      18      24     -30      39      27      18      24     -30      39      18
      18      24     -30      39      28      18      24      84      87       3
      18      24      84      90      29      18      24     -84      90      30
      18      24     -84      90      21      18      24     -84      90       6
     135     132     138     144       2     132     138     144     150       4
     132     138    -144     150       3     132     138    -144     150       5
     132     138    -144     150       6     132     138     144     174       4
     132     138    -144     174       3     132     138    -144     174       5
     132     138    -144     174       6     120     102      96     132      31
     120     102     -96     132      32     120     102     -96     132      33
     120     102     -96     132      34     108     102      96     132      31
     108     102     -96     132      32     108     102     -96     132      33
     108     102     -96     132      34     102      96     132     135       3
     102      96     132     138       4     102      96    -132     138       3
     102      96    -132     138       5     102      96    -132     138       6
      96     132     138     144       2      90      96     102     108      37
      90      96    -102     108      38      90      96    -102     108      33
      90      96    -102     108      39      90      96     102     120      37
      90      96    -102     120      38      90      96    -102     120      33
      90      96    -102     120      39      90      96     132     135       3
      90      96     132     138      29      90      96    -132     138      30
      90      96    -132     138      21      90      96    -132     138       6
     177     174     180     186       2     174     180     186     192       4
     174     180    -186     192       3     174     180    -186     192       5
     174     180    -186     192       6     174     180     186     225       4
     174     180    -186     225       3     174     180    -186     225       5
     174     180    -186     225       6     168     150     144     174      40
     168     150    -144     174      41     168     150    -144     174      42
     168     150    -144     174      43     156     150     144     174      31
     156     150    -144     174      32     156     150    -144     174      33
     156     150    -144     174      34     150     144     174     177       3
     150     144     174     180       4     150     144    -174     180       3
     150     144    -174     180       5     150     144    -174     180       6
     144     174     180     186       2     138     144     150     156      37
     138     144    -150     156      38     138     144    -150     156      33
     138     144    -150     156      39     138     144     150     168      53
     138     144    -150     168      54     138     144    -150     168      42
     138     144    -150     168      55     138     144     174     177       3
     138     144     174     180      29     138     144    -174     180      30
     138     144    -174     180      21     138     144    -174     180       6
     228     225     231     237       2     225     231     237     243       4
     225     231    -237     243       3     225     231    -237     243       5
     225     231    -237     243       6     225     231     237     297       4
     225     231    -237     297       3     225     231    -237     297       5
     225     231    -237     297       6     210     204    -201     219      57
     204     201    -219     216      60     204     210    -216     219      56
     201     192     186     225      61     201     192    -186     225      62
     201     192    -186     225      63     201     192    -186     225      64
     201     204    -210     216      59     201     219    -216     210      58
     192     186     225     228       3     192     186     225     231       4
     192     186    -225     231       3     192     186    -225     231       5
     192     186    -225     231       6     192     201     204     210      57
     192     201     219     216      60     186     192     201     204      65
     186     192    -201     204      66     186     192    -201     204      67
     186     192    -201     204      68     186     192     201     219      69
     186     192    -201     219      70     186     192    -201     219      71
     186     192    -201     219      72     186     225     231     237       2
     180     186     192     201      73     180     186    -192     201      74
     180     186    -192     201      63     180     186    -192     201      75
     180     186     225     228       3     180     186     225     231      29
     180     186    -225     231      30     180     186    -225     231      21
     180     186    -225     231       6     300     297     333     309       2
     297     333     309     303      76     297     333    -309     303      77
     297     333     309     312      78     297     333    -309     312      79
     297     333    -309     312      80     297     333     309     315      78
     297     333    -309     315      79     297     333    -309     315      80
     261     270     276     279      58     261     270    -276     279       6
     261     270     276     288      58     261     270    -276     288       6
     252     243     237     297      20     252     261     270     276       4
     252     261    -270     276       5     243     237     297     300       3
     243     237     297     333       4     243     237    -297     333       3
     243     237    -297     333       5     243     237    -297     333       6
     243     252     261     270      20     237     243     252     261      81
     237     243    -252     261      82     237     243    -252     261      83
     237     297     333     309       2     231     237     243     252      20
     231     237     297     300       3     231     237     297     333      29
     231     237    -297     333      30     231     237    -297     333      21
     231     237    -297     333       6     333     309     303     378      87
     333     309    -303     378      88     330     501     498     492      91
     330     501    -498     492      92     330     501    -498     492      93
     327     330     501     498      95     324     327     330     501      97
     321     324     327     330      90     318     315     309     333      98
     318     321     324     327      97     315     309     303     378      99
     315     309    -303     378     100     315     318     321     324      95
     312     309     303     378      99     312     309    -303     378     100
     312     309     315     318      91     312     309    -315     318      92
     312     309    -315     318      93     309     303     378     384       2
     309     315     318     321      91     309     315    -318     321      92
     309     315    -318     321      93     306     303     309     312     101
     306     303     309     315     101     306     303     309     333      30
     306     303     378     384       2     303     309     315     318      98
     303     378     384     390       4     303     378    -384     390       3
     303     378    -384     390       5     303     378    -384     390       6
     303     378     384     402       4     303     378    -384     402       3
     303     378    -384     402       5     303     378    -384     402       6
     405     402     408     414       2     402     408     414     423       4
     402     408    -414     423       3     402     408    -414     423       5
     402     408    -414     423       6     390     384     402     405       3
     390     384     402     408       4     390     384    -402     408       3
     390     384    -402     408       5     390     384    -402     408       6
     384     402     408     414       2     378     384     402     405       3
     378     384     402     408      29     378     384    -402     408      30
     378     384    -402     408      21     378     384    -402     408       6
     426     423     429     435       2     423     429     435     441       4
     423     429    -435     441       3     423     429    -435     441       5
     423     429    -435     441       6     423     429     435     480       4
     423     429    -435     480       3     423     429    -435     480       5
     423     429    -435     480       6     414     423     429     435       2
     408     414     423     426       3     408     414     423     429      29
     408     414    -423     429      30     408     414    -423     429      21
     408     414    -423     429       6     483     480     504     492       2
     480     504     492     486      76     480     504    -492     486      77
     480     504     492     495      78     480     504    -492     495      79
     480     504    -492     495      80     480     504     492     498      78
     480     504    -492     498      79     480     504    -492     498      80
     450     441     435     480     102     450     441    -435     480     103
     450     441    -435     480     104     450     441    -435     480     105
     441     435     480     483       3     441     435     480     504       4
     441     435    -480     504       3     441     435    -480     504       5
     441     435    -480     504       6     435     441     450     456     106
     435     441    -450     456     107     435     441    -450     456     108
     435     441    -450     456     109     435     441     450     468     106
     435     441    -450     468     107     435     441    -450     468     108
     435     441    -450     468     109     435     480     504     492       2
     429     435     441     450     110     429     435    -441     450     111
     429     435    -441     450     104     429     435    -441     450     112
     429     435     480     483       3     429     435     480     504      29
     429     435    -480     504      30     429     435    -480     504      21
     429     435    -480     504       6     504     492     486     531      87
     504     492    -486     531      88     501     498     492     504      98
     498     492     486     531      99     498     492    -486     531     100
     495     492     486     531      99     495     492    -486     531     100
     495     492     498     501      91     495     492    -498     501      92
     495     492    -498     501      93     492     486     531     537       2
     489     486     492     495     101     489     486     492     498     101
     489     486     492     504      30     489     486     531     537       2
     486     492     498     501      98     486     531     537     543       4
     486     531    -537     543       3     486     531    -537     543       5
     486     531    -537     543       6     486     531     537     558       4
     486     531    -537     558       3     486     531    -537     558       5
     486     531    -537     558       6     561     558     564     570       2
     558     564     570     576       4     558     564    -570     576       3
     558     564    -570     576       5     558     564    -570     576       6
     558     564     570     630       4     558     564    -570     630       3
     558     564    -570     630       5     558     564    -570     630       6
     552     543     537     558     113     552     543    -537     558     114
     552     543    -537     558     115     552     543    -537     558     116
     543     537     558     561       3     543     537     558     564       4
     543     537    -558     564       3     543     537    -558     564       5
     543     537    -558     564       6     537     558     564     570       2
     531     537     543     552     121     531     537    -543     552     122
     531     537    -543     552     115     531     537    -543     552     123
     531     537     558     561       3     531     537     558     564      29
     531     537    -558     564      30     531     537    -558     564      21
     531     537    -558     564       6     633     630     636     642       2
     630     636     642     648       4     630     636    -642     648       3
     630     636    -642     648       5     630     636    -642     648       6
     630     636     642     663       4     630     636    -642     663       3
     630     636    -642     663       5     630     636    -642     663       6
     594     603     609     612      58     594     603    -609     612       6
     594     603     609     621      58     594     603    -609     621       6
     585     576     570     630      20     585     594     603     609       4
     585     594    -603     609       5     576     570     630     633       3
     576     570     630     636       4     576     570    -630     636       3
     576     570    -630     636       5     576     570    -630     636       6
     576     585     594     603      20     570     576     585     594      81
     570     576    -585     594      82     570     576    -585     594      83
     570     630     636     642       2     564     570     576     585      20
     564     570     630     633       3     564     570     630     636      29
     564     570    -630     636      30     564     570    -630     636      21
     564     570    -630     636       6     666     663     669     675       2
     663     669     675     684       4     663     669    -675     684       3
     663     669    -675     684       5     663     669    -675     684       6
     657     648     642     663     113     657     648    -642     663     114
     657     648    -642     663     115     657     648    -642     663     116
     648     642     663     666       3     648     642     663     669       4
     648     642    -663     669       3     648     642    -663     669       5
     648     642    -663     669       6     642     663     669     675       2
     636     642     648     657     121     636     642    -648     657     122
     636     642    -648     657     115     636     642    -648     657     123
     636     642     663     666       3     636     642     663     669      29
     636     642    -663     669      30     636     642    -663     669      21
     636     642    -663     669       6     687     684     690     696       2
     684     690     696     705       4     684     690    -696     705       3
     684     690    -696     705       5     684     690    -696     705       6
     675     684     690     696       2     669     675     684     687       3
     669     675     684     690      29     669     675    -684     690      30
     669     675    -684     690      21     669     675    -684     690       6
     708     705     711     717       2     705     711     717     723       4
     705     711    -717     723       3     705     711    -717     723       5
     705     711    -717     723       6     705     711     717     753       4
     705     711    -717     753       3     705     711    -717     753       5
     705     711    -717     753       6     696     705     711     717       2
     690     696     705     708       3     690     696     705     711      29
     690     696    -705     711      30     690     696    -705     711      21
     690     696    -705     711       6     756     753     759     765       2
     753     759     765     771       4     753     759    -765     771       3
     753     759    -765     771       5     753     759    -765     771       6
     753     759     765     801       4     753     759    -765     801       3
     753     759    -765     801       5     753     759    -765     801       6
     741     723     717     753      31     741     723    -717     753      32
     741     723    -717     753      33     741     723    -717     753      34
     729     723     717     753      31     729     723    -717     753      32
     729     723    -717     753      33     729     723    -717     753      34
     723     717     753     756       3     723     717     753     759       4
     723     717    -753     759       3     723     717    -753     759       5
     723     717    -753     759       6     717     753     759     765       2
     711     717     723     729      37     711     717    -723     729      38
     711     717    -723     729      33     711     717    -723     729      39
     711     717     723     741      37     711     717    -723     741      38
     711     717    -723     741      33     711     717    -723     741      39
     711     717     753     756       3     711     717     753     759      29
     711     717    -753     759      30     711     717    -753     759      21
     711     717    -753     759       6     804     801     807     813       2
     801     807     813     819       4     801     807    -813     819       3
     801     807    -813     819       5     801     807    -813     819       6
     801     807     813     867       4     801     807    -813     867       3
     801     807    -813     867       5     801     807    -813     867       6
     789     771     765     801      31     789     771    -765     801      32
     789     771    -765     801      33     789     771    -765     801      34
     777     771     765     801      31     777     771    -765     801      32
     777     771    -765     801      33     777     771    -765     801      34
     771     765     801     804       3     771     765     801     807       4
     771     765    -801     807       3     771     765    -801     807       5
     771     765    -801     807       6     765     801     807     813       2
     759     765     771     777      37     759     765    -771     777      38
     759     765    -771     777      33     759     765    -771     777      39
     759     765     771     789      37     759     765    -771     789      38
     759     765    -771     789      33     759     765    -771     789      39
     759     765     801     804       3     759     765     801     807      29
     759     765    -801     807      30     759     765    -801     807      21
     759     765    -801     807       6     870     867     873     879       2
     867     873     879     885       4     867     873    -879     885       3
     867     873    -879     885       5     867     873    -879     885       6
     867     873     879     909       4     867     873    -879     909       3
     867     873    -879     909       5     867     873    -879     909       6
     828     819     813     867      20     828     837     846     855      20
     819     813     867     870       3     819     813     867     873       4
     819     813    -867     873       3     819     813    -867     873       5
     819     813    -867     873       6     819     828     837     846      81
     819     828    -837     846      82     819     828    -837     846      83
     813     819     828     837      81     813     819    -828     837      82
     813     819    -828     837      83     813     867     873     879       2
     807     813     819     828      20     807     813     867     870       3
     807     813     867     873      29     807     813    -867     873      30
     807     813    -867     873      21     807     813    -867     873       6
     912     909     915     921       2     909     915     921     927       4
     909     915    -921     927       3     909     915    -921     927       5
     909     915    -921     927       6     909     915     921     951       4
     909     915    -921     951       3     909     915    -921     951       5
     909     915    -921     951       6     894     885     879     909     124
     894     885    -879     909     125     894     885    -879     909     126
     894     885    -879     909     127     885     879     909     912       3
     885     879     909     915       4     885     879    -909     915       3
     885     879    -909     915       5     885     879    -909     915       6
     879     885     894     897       4     879     885     894     900     128
     879     885    -894     900     129     879     885    -894     900     130
     879     885    -894     900     131     879     909     915     921       2
     873     879     885     894     132     873     879    -885     894     133
     873     879    -885     894     126     873     879    -885     894     134
     873     879     909     912       3     873     879     909     915      29
     873     879    -909     915      30     873     879    -909     915      21
     873     879    -909     915       6     954     951     957     963       2
     951     957     963     969       4     951     957    -963     969       3
     951     957    -963     969       5     951     957    -963     969       6
     951     957     963    1011       4     951     957    -963    1011       3
     951     957    -963    1011       5     951     957    -963    1011       6
     936     927     921     951     124     936     927    -921     951     125
     936     927    -921     951     126     936     927    -921     951     127
     927     921     951     954       3     927     921     951     957       4
     927     921    -951     957       3     927     921    -951     957       5
     927     921    -951     957       6     921     927     936     939       4
     921     927     936     942     128     921     927    -936     942     129
     921     927    -936     942     130     921     927    -936     942     131
     921     951     957     963       2     915     921     927     936     132
     915     921    -927     936     133     915     921    -927     936     126
     915     921    -927     936     134     915     921     951     954       3
     915     921     951     957      29     915     921    -951     957      30
     915     921    -951     957      21     915     921    -951     957       6
    1014    1011    1017    1023       2    1011    1017    1023    1029       4
    1011    1017   -1023    1029       3    1011    1017   -1023    1029       5
    1011    1017   -1023    1029       6    1011    1017    1023    1059       4
    1011    1017   -1023    1059       3    1011    1017   -1023    1059       5
    1011    1017   -1023    1059       6     987     981     978    1005       9
     987     993    -999    1005       9     981     978    1005     999       9
     981     987    -993     999       9     978     969     963    1011     135
     978     969    -963    1011     136     978     969    -963    1011     137
     978     969    -963    1011     138     978     981     987     993       9
     978    1005    -999     993       9     969     963    1011    1014       3
     969     963    1011    1017       4     969     963   -1011    1017       3
     969     963   -1011    1017       5     969     963   -1011    1017       6
     969     978     981     987       9     969     978    1005     999       9
     963     969     978     981       4     963     969    -978     981     139
     963     969    -978     981       5     963     969    -978     981     140
     963     969     978    1005       4     963     969    -978    1005     139
     963     969    -978    1005       5     963     969    -978    1005     140
     963    1011    1017    1023       2     957     963     969     978     141
     957     963    -969     978      92     957     963    -969     978     137
     957     963    -969     978     142     957     963    1011    1014       3
     957     963    1011    1017      29     957     963   -1011    1017      30
     957     963   -1011    1017      21     957     963   -1011    1017       6
    1062    1059    1065    1068       2    1062    1059    1065    1095       2
    1059    1065    1068    1077       1    1059    1065   -1068    1077     143
    1059    1065   -1068    1077     144    1059    1065   -1068    1077       6
    1059    1065    1095    1086       4    1059    1065   -1095    1086       3
    1059    1065   -1095    1086       5    1059    1065   -1095    1086       6
    1059    1065    1095    1101       4    1059    1065   -1095    1101       3
    1059    1065   -1095    1101       5    1059    1065   -1095    1101       6
    1047    1029    1023    1059      31    1047    1029   -1023    1059      32
    1047    1029   -1023    1059      33    1047    1029   -1023    1059      34
    1035    1029    1023    1059      31    1035    1029   -1023    1059      32
    1035    1029   -1023    1059      33    1035    1029   -1023    1059      34
    1029    1023    1059    1062       3    1029    1023    1059    1065       4
    1029    1023   -1059    1065       3    1029    1023   -1059    1065       5
    1029    1023   -1059    1065       6    1023    1059    1065    1068       2
    1023    1059    1065    1095       2    1017    1023    1029    1035      37
    1017    1023   -1029    1035      38    1017    1023   -1029    1035      33
    1017    1023   -1029    1035      39    1017    1023    1029    1047      37
    1017    1023   -1029    1047      38    1017    1023   -1029    1047      33
    1017    1023   -1029    1047      39    1017    1023    1059    1062       3
    1017    1023    1059    1065      29    1017    1023   -1059    1065      30
    1017    1023   -1059    1065      21    1017    1023   -1059    1065       6
    1104    1101    1107    1113       2    1101    1107    1113    1119       4
    1101    1107   -1113    1119       3    1101    1107   -1113    1119       5
    1101    1107   -1113    1119       6    1101    1107    1113    1143       4
    1101    1107   -1113    1143       3    1101    1107   -1113    1143       5
    1101    1107   -1113    1143       6    1095    1101    1107    1113       2
    1086    1095    1101    1104       3    1086    1095    1101    1107       4
    1086    1095   -1101    1107       3    1086    1095   -1101    1107       5
    1086    1095   -1101    1107       6    1077    1068   -1065    1095       3
    1077    1086    1095    1101      20    1068    1065   -1095    1086       3
    1068    1065    1095    1101       3    1068    1077   -1086    1095      81
    1068    1077   -1086    1095      82    1068    1077   -1086    1095      83
    1065    1068   -1077    1086      20    1065    1095   -1086    1077      20
    1065    1095    1101    1104       3    1065    1095    1101    1107      29
    1065    1095   -1101    1107      30    1065    1095   -1101    1107      21
    1065    1095   -1101    1107       6    1146    1143    1149    1155       2
    1143    1149    1155    1161       4    1143    1149   -1155    1161       3
    1143    1149   -1155    1161       5    1143    1149   -1155    1161       6
    1143    1149    1155    1179       4    1143    1149   -1155    1179       3
    1143    1149   -1155    1179       5    1143    1149   -1155    1179       6
    1137    1119    1113    1143      40    1137    1119   -1113    1143      41
    1137    1119   -1113    1143      42    1137    1119   -1113    1143      43
    1125    1119    1113    1143      31    1125    1119   -1113    1143      32
    1125    1119   -1113    1143      33    1125    1119   -1113    1143      34
    1119    1113    1143    1146       3    1119    1113    1143    1149       4
    1119    1113   -1143    1149       3    1119    1113   -1143    1149       5
    1119    1113   -1143    1149       6    1113    1143    1149    1155       2
    1107    1113    1119    1125      37    1107    1113   -1119    1125      38
    1107    1113   -1119    1125      33    1107    1113   -1119    1125      39
    1107    1113    1119    1137      53    1107    1113   -1119    1137      54
    1107    1113   -1119    1137      42    1107    1113   -1119    1137      55
    1107    1113    1143    1146       3    1107    1113    1143    1149      29
    1107    1113   -1143    1149      30    1107    1113   -1143    1149      21
    1107    1113   -1143    1149       6    1182    1179    1185    1191       2
    1179    1185    1191    1197       4    1179    1185   -1191    1197       3
    1179    1185   -1191    1197       5    1179    1185   -1191    1197       6
    1179    1185    1191    1227       4    1179    1185   -1191    1227       3
    1179    1185   -1191    1227       5    1179    1185   -1191    1227       6
    1170    1161    1155    1179     145    1170    1161   -1155    1179     146
    1170    1161   -1155    1179     147    1170    1161   -1155    1179     148
    1161    1155    1179    1182       3    1161    1155    1179    1185       4
    1161    1155   -1179    1185       3    1161    1155   -1179    1185       5
    1161    1155   -1179    1185       6    1155    1161    1170    1173       4
    1155    1161   -1170    1173     149    1155    1161   -1170    1173       5
    1155    1161   -1170    1173     150    1155    1161    1170    1176       4
    1155    1161   -1170    1176     149    1155    1161   -1170    1176       5
    1155    1161   -1170    1176     150    1155    1179    1185    1191       2
    1149    1155    1161    1170     151    1149    1155   -1161    1170     152
    1149    1155   -1161    1170     147    1149    1155   -1161    1170      75
    1149    1155    1179    1182       3    1149    1155    1179    1185      29
    1149    1155   -1179    1185      30    1149    1155   -1179    1185      21
    1149    1155   -1179    1185       6    1230    1227    1233    1239       2
    1227    1233    1239    1248       4    1227    1233   -1239    1248       3
    1227    1233   -1239    1248       5    1227    1233   -1239    1248       6
    1215    1197    1191    1227      31    1215    1197   -1191    1227      32
    1215    1197   -1191    1227      33    1215    1197   -1191    1227      34
    1203    1197    1191    1227      31    1203    1197   -1191    1227      32
    1203    1197   -1191    1227      33    1203    1197   -1191    1227      34
    1197    1191    1227    1230       3    1197    1191    1227    1233       4
    1197    1191   -1227    1233       3    1197    1191   -1227    1233       5
    1197    1191   -1227    1233       6    1191    1227    1233    1239       2
    1185    1191    1197    1203      37    1185    1191   -1197    1203      38
    1185    1191   -1197    1203      33    1185    1191   -1197    1203      39
    1185    1191    1197    1215      37    1185    1191   -1197    1215      38
    1185    1191   -1197    1215      33    1185    1191   -1197    1215      39
    1185    1191    1227    1230       3    1185    1191    1227    1233      29
    1185    1191   -1227    1233      30    1185    1191   -1227    1233      21
    1185    1191   -1227    1233       6    1251    1248    1254    1257       2
    1251    1248    1254    1284       2    1248    1254    1257    1266       1
    1248    1254   -1257    1266     143    1248    1254   -1257    1266     144
    1248    1254   -1257    1266       6    1248    1254    1284    1275       4
    1248    1254   -1284    1275       3    1248    1254   -1284    1275       5
    1248    1254   -1284    1275       6    1248    1254    1284    1290       4
    1248    1254   -1284    1290       3    1248    1254   -1284    1290       5
    1248    1254   -1284    1290       6    1239    1248    1254    1257       2
    1239    1248    1254    1284       2    1233    1239    1248    1251       3
    1233    1239    1248    1254      29    1233    1239   -1248    1254      30
    1233    1239   -1248    1254      21    1233    1239   -1248    1254       6
    1293    1290    1296    1302       2    1290    1296    1302    1308       4
    1290    1296   -1302    1308       3    1290    1296   -1302    1308       5
    1290    1296   -1302    1308       6    1290    1296    1302    1350       4
    1290    1296   -1302    1350       3    1290    1296   -1302    1350       5
    1290    1296   -1302    1350       6    1284    1290    1296    1302       2
    1275    1284    1290    1293       3    1275    1284    1290    1296       4
    1275    1284   -1290    1296       3    1275    1284   -1290    1296       5
    1275    1284   -1290    1296       6    1266    1257   -1254    1284       3
    1266    1275    1284    1290      20    1257    1254   -1284    1275       3
    1257    1254    1284    1290       3    1257    1266   -1275    1284      81
    1257    1266   -1275    1284      82    1257    1266   -1275    1284      83
    1254    1257   -1266    1275      20    1254    1284   -1275    1266      20
    1254    1284    1290    1293       3    1254    1284    1290    1296      29
    1254    1284   -1290    1296      30    1254    1284   -1290    1296      21
    1254    1284   -1290    1296       6    1353    1350    1356    1362       2
    1350    1356    1362    1368       4    1350    1356   -1362    1368       3
    1350    1356   -1362    1368       5    1350    1356   -1362    1368       6
    1350    1356    1362    1380       4    1350    1356   -1362    1380       3
    1350    1356   -1362    1380       5    1350    1356   -1362    1380       6
    1326    1320    1317    1344       9    1326    1332   -1338    1344       9
    1320    1317    1344    1338       9    1320    1326   -1332    1338       9
    1317    1308    1302    1350     135    1317    1308   -1302    1350     136
    1317    1308   -1302    1350     137    1317    1308   -1302    1350     138
    1317    1320    1326    1332       9    1317    1344   -1338    1332       9
    1308    1302    1350    1353       3    1308    1302    1350    1356       4
    1308    1302   -1350    1356       3    1308    1302   -1350    1356       5
    1308    1302   -1350    1356       6    1308    1317    1320    1326       9
    1308    1317    1344    1338       9    1302    1308    1317    1320       4
    1302    1308   -1317    1320     139    1302    1308   -1317    1320       5
    1302    1308   -1317    1320     140    1302    1308    1317    1344       4
    1302    1308   -1317    1344     139    1302    1308   -1317    1344       5
    1302    1308   -1317    1344     140    1302    1350    1356    1362       2
    1296    1302    1308    1317     141    1296    1302   -1308    1317      92
    1296    1302   -1308    1317     137    1296    1302   -1308    1317     142
    1296    1302    1350    1353       3    1296    1302    1350    1356      29
    1296    1302   -1350    1356      30    1296    1302   -1350    1356      21
    1296    1302   -1350    1356       6    1383    1380    1386    1392       2
    1380    1386    1392    1398       4    1380    1386   -1392    1398       3
    1380    1386   -1392    1398       5    1380    1386   -1392    1398       6
    1380    1386    1392    1440       4    1380    1386   -1392    1440       3
    1380    1386   -1392    1440       5    1380    1386   -1392    1440       6
    1368    1362    1380    1383       3    1368    1362    1380    1386       4
    1368    1362   -1380    1386       3    1368    1362   -1380    1386       5
    1368    1362   -1380    1386       6    1362    1380    1386    1392       2
    1356    1362    1380    1383       3    1356    1362    1380    1386      29
    1356    1362   -1380    1386      30    1356    1362   -1380    1386      21
    1356    1362   -1380    1386       6    1416    1410    1407    1434       9
    1416    1422   -1428    1434       9    1410    1407    1434    1428       9
    1410    1416   -1422    1428       9    1407    1398    1392    1440     135
    1407    1398   -1392    1440     136    1407    1398   -1392    1440     137
    1407    1398   -1392    1440     138    1407    1410    1416    1422       9
    1407    1434   -1428    1422       9    1398    1392    1440    1443       3
    1398    1392    1440    1446       4    1398    1392   -1440    1446       3
    1398    1392   -1440    1446       5    1398    1392   -1440    1446       6
    1398    1407    1410    1416       9    1398    1407    1434    1428       9
    1392    1398    1407    1410       4    1392    1398   -1407    1410     139
    1392    1398   -1407    1410       5    1392    1398   -1407    1410     140
    1392    1398    1407    1434       4    1392    1398   -1407    1434     139
    1392    1398   -1407    1434       5    1392    1398   -1407    1434     140
    1386    1392    1398    1407     141    1386    1392   -1398    1407      92
    1386    1392   -1398    1407     137    1386    1392   -1398    1407     142
    1386    1392    1440    1443       3    1386    1392    1440    1446      29
    1386    1392   -1440    1446      30    1386    1392   -1440    1446      21
    1386    1392   -1440    1446       6       3      18     -12     -15     153
      24      90     -84     -87     153      39      54     -81     -75     154
      48      57     -54     -81     154      81      30     -39     -42     155
      96     138    -132    -135     153     144     180    -174    -177     153
     186     231    -225    -228     153     192     219    -201    -204     155
     237     333    -297    -300     153     270     279    -276    -288     153
     309     378    -303    -306     155     384     408    -402    -405     153
     414     429    -423    -426     153     435     504    -480    -483     153
     492     531    -486    -489     155     537     564    -558    -561     153
     570     636    -630    -633     153     603     612    -609    -621     153
     642     669    -663    -666     153     675     690    -684    -687     153
     696     711    -705    -708     153     717     759    -753    -756     153
     765     807    -801    -804     153     813     873    -867    -870     153
     879     915    -909    -912     153     885     900    -894    -897     153
     921     957    -951    -954     153     927     942    -936    -939     153
     963    1017   -1011   -1014     153     981    1005    -978    -969     155
    1023    1065   -1059   -1062     153    1095    1107   -1101   -1104     153
    1059    1068   -1065   -1095     156    1113    1149   -1143   -1146     153
    1155    1185   -1179   -1182     153    1161    1173   -1170   -1176     153
    1191    1233   -1227   -1230     153    1239    1254   -1248   -1251     153
    1284    1296   -1290   -1293     153    1248    1257   -1254   -1284     156
    1302    1356   -1350   -1353     153    1320    1344   -1317   -1308     155
    1362    1386   -1380   -1383     153    1392    1446   -1440   -1443     153
    1410    1434   -1407   -1398     155
%FLAG EXCLUDED_ATOMS_LIST                                                       
%FORMAT(10I8)                                                                   
       2       3       4       5       6       7       3       4       5       6
       7       8       9       4       5       6       7       5       6       7
       6       7       8       9      10      11      29       7       8       9
       8       9      10      11      12      13      14      29      30      31
       9      10      11      29      10      11      12      13      14      15
      28      29      30      31      32      33      11      12      13      14
      29      30      31      12      13      14      15      16      17      19
      26      28      29      30      31      13      14      15      28      29
      14      15      28      29      15      16      17      18      19      20
      24      26      27      28      29      16      17      18      19      20
      26      28      17      18      19      28      18      19      20      21
      22      26      28      19      20      28      20      21      22      23
      24      26      27      28      21      22      23      24      25      26
      28      22      23      24      28      23      24      25      26      27
      28      24      25      26      25      26      27      28      26      27
      28      27      28      28       0      30      31      32      33      34
      35      45      31      32      33      32      33      34      35      36
      37      41      45      46      47      33      34      35      45      34
      35      36      37      38      39      40      41      42      43      44
      45      46      47      48      49      35      36      37      41      45
      46      47      36      37      38      39      40      41      42      43
      44      45      46      47      37      38      39      40      41      42
      43      44      45      38      39      40      41      42      43      44
      45      39      40      41      40      41      41      42      43      44
      45      43      44      44       0      46      47      48      49      50
      51      59      47      48      49      48      49      50      51      52
      53      57      59      60      61      49      50      51      59      50
      51      52      53      54      55      56      57      58      59      60
      61      62      63      51      52      53      57      59      60      61
      52      53      54      55      56      57      58      59      60      61
      53      54      55      56      57      58      59      54      55      56
      57      58      59      55      56      57      56      57      57      58
      59       0      60      61      62      63      64      65      76      61
      62      63      62      63      64      65      66      67      68      76
      77      78      63      64      65      76      64      65      66      67
      68      69      74      76      77      78      79      80      65      66
      67      68      76      77      78      66      67      68      69      70
      71      73      74      75      76      77      78      67      68      69
      74      76      68      69      74      76      69      70      71      72
      73      74      75      76      70      71      72      73      74      75
      71      72      73      74      72      73      74      75      73      74
      74      75      75       0      77      78      79      80      81      82
     100      78      79      80      79      80      81      82      83      84
      85     100     101     112      80      81      82     100      81      82
      83      84      85      86      87      88     100     101     104     112
     126      82      83      84      85     100     101     112      83      84
      85      86      87      88      89      90      91     100     101     112
      84      85      86      87      88     100      85      86      87      88
     100      86      87      88      89      90      91      92      93     100
      87      88      89      90      91      88      89      90      91      89
      90      91      92      93      94      97      90      91      92      93
      91      92      93      92      93      94      95      96      97      98
      99      93      94      97      94      95      96      97      98      99
      95      96      97      98      99      96      97      97      98      99
      99       0     101     102     104     105     106     112     126     104
     112     126     103     104     105     106     107     112     113     114
     115     116     117     126     127     128     129     130     131     135
     104     105     106     112     127     128     129     105     106     107
     108     112     113     114     115     116     117     118     119     126
     127     128     129     106     107     112     113     114     115     116
     117     126     127     107     108     109     112     113     114     115
     116     117     118     119     120     121     126     127     108     109
     110     112     116     117     118     119     120     121     122     109
     110     111     116     117     118     119     120     121     122     123
     110     111     118     119     120     121     122     123     124     125
     168     111     120     121     122     123     124     125     167     168
     175     176     122     123     124     125     165     167     168     173
     174     175     176     113     114     115     116     117     126     127
     114     115     115       0     117     118     119     118     119     119
     120     121     120     121     121     122     122     123     124     125
     168     125     167     168     175     176     167     168     175     176
       0     128     129     130     131     132     133     134     135     136
     137     129     130     131     135     130     131     132     133     134
     135     136     137     138     139     131     132     133     134     135
     136     137     132     133     134     135     136     137     133     134
     135     134     135     135     136     137     138     139     140     141
     142     137     138     139     138     139     140     141     142     143
     144     139     140     141     142     140     141     142     143     144
     145     146     141     142     143     144     142     143     144     143
     144     145     146     147     148     161     144     145     146     145
     146     147     148     149     150     151     161     162     169     146
     147     148     161     147     148     149     150     151     152     153
     157     161     162     165     169     177     148     149     150     151
     161     162     169     149     150     151     152     153     154     155
     156     157     158     159     160     161     162     169     150     151
     152     153     157     161     151     152     153     157     161     152
     153     154     155     156     157     158     159     160     161     153
     154     155     156     157     158     159     160     154     155     156
     157     158     159     160     155     156     157     156     157     157
     158     159     160     159     160     160       0     162     163     165
     166     167     169     177     165     169     177     164     165     166
     167     168     169     170     171     172     173     174     177     178
     179     180     181     182     187     165     166     167     169     178
     179     180     166     167     168     169     170     171     172     173
     174     175     176     177     178     179     180     167     168     169
     170     171     172     173     174     177     178     168     169     170
     171     172     173     174     175     176     177     178     169     173
     174     175     176     170     171     172     173     174     177     178
     171     172     172       0     174     175     176     175     176     176
       0       0     179     180     181     182     183     184     185     187
     188     189     180     181     182     187     181     182     183     184
     185     186     187     188     189     190     191     182     183     184
     185     187     188     189     183     184     185     186     187     188
     189     184     185     186     187     185     186     187     186     187
       0     188     189     190     191     192     193     211     189     190
     191     190     191     192     193     194     195     196     211     212
     213     191     192     193     211     192     193     194     195     196
     197     198     199     211     212     213     214     215     193     194
     195     196     211     212     213     194     195     196     197     198
     199     200     201     202     211     212     213     195     196     197
     198     199     211     196     197     198     199     211     197     198
     199     200     201     202     203     204     211     198     199     200
     201     202     199     200     201     202     200     201     202     203
     204     205     208     201     202     203     204     202     203     204
     203     204     205     206     207     208     209     210     204     205
     208     205     206     207     208     209     210     206     207     208
     209     210     207     208     208     209     210     210       0     212
     213     214     215     216     217     222     213     214     215     214
     215     216     217     218     219     220     222     223     224     215
     216     217     222     216     217     218     219     220     221     222
     223     224     225     226     217     218     219     220     222     223
     224     218     219     220     221     222     223     224     219     220
     221     222     220     221     222     221     222       0     223     224
     225     226     227     228     229     224     225     226     225     226
     227     228     229     230     231     226     227     228     229     227
     228     229     230     231     232     233     228     229     230     231
     229     230     231     230     231     232     233     234     235     236
     231     232     233     232     233     234     235     236     237     238
     233     234     235     236     234     235     236     237     238     239
     240     235     236     237     238     236     237     238     237     238
     239     240     241     242     252     238     239     240     239     240
     241     242     243     244     248     252     253     254     240     241
     242     252     241     242     243     244     245     246     247     248
     249     250     251     252     253     254     255     256     242     243
     244     248     252     253     254     243     244     245     246     247
     248     249     250     251     252     253     254     244     245     246
     247     248     249     250     251     252     245     246     247     248
     249     250     251     252     246     247     248     247     248     248
     249     250     251     252     250     251     251       0     253     254
     255     256     257     258     268     254     255     256     255     256
     257     258     259     260     264     268     269     270     256     257
     258     268     257     258     259     260     261     262     263     264
     265     266     267     268     269     270     271     272     258     259
     260     264     268     269     270     259     260     261     262     263
     264     265     266     267     268     269     270     260     261     262
     263     264     265     266     267     268     261     262     263     264
     265     266     267     268     262     263     264     263     264     264
     265     266     267     268     266     267     267       0     269     270
     271     272     273     274     290     270     271     272     271     272
     273     274     275     276     277     290     291     292     272     273
     274     290     273     274     275     276     277     278     279     280
     290     291     292     293     294     274     275     276     277     290
     291     292     275     276     277     278     279     280     281     282
     283     290     291     292     276     277     278     279     280     290
     277     278     279     280     290     278     279     280     281     282
     283     284     285     286     290     279     280     281     282     283
     280     281     282     283     281     282     283     284     285     286
     287     288     289     282     283     284     285     286     283     284
     285     286     284     285     286     287     288     289     285     286
     287     288     289     286     287     288     289     287     288     289
     288     289     289       0     291     292     293     294     295     296
     304     292     293     294     293     294     295     296     297     298
     299     304     305     306     294     295     296     304     295     296
     297     298     299     300     301     304     305     306     307     308
     296     297     298     299     304     305     306     297     298     299
     300     301     302     303     304     305     306     298     299     300
     301     304     299     300     301     304     300     301     302     303
     304     301     302     303     302     303     303       0     305     306
     307     308     309     310     318     306     307     308     307     308
     309     310     311     312     313     318     319     320     308     309
     310     318     309     310     311     312     313     314     315     318
     319     320     321     322     310     311     312     313     318     319
     320     311     312     313     314     315     316     317     318     319
     320     312     313     314     315     318     313     314     315     318
     314     315     316     317     318     315     316     317     316     317
     317       0     319     320     321     322     323     324     338     320
     321     322     321     322     323     324     325     326     327     338
     339     340     322     323     324     338     323     324     325     326
     327     328     336     338     339     340     341     342     324     325
     326     327     338     339     340     325     326     327     328     329
     330     334     336     337     338     339     340     326     327     328
     336     338     327     328     336     338     328     329     330     331
     332     334     335     336     337     338     329     330     331     332
     333     334     336     337     330     331     332     336     331     332
     333     334     335     336     332     333     334     333     334     335
     336     337     334     335     336     335     336     337     336     337
     337       0     339     340     341     342     343     344     354     340
     341     342     341     342     343     344     345     346     350     354
     355     356     342     343     344     354     343     344     345     346
     347     348     349     350     351     352     353     354     355     356
     357     366     344     345     346     350     354     355     356     345
     346     347     348     349     350     351     352     353     354     355
     356     346     347     348     349     350     351     352     353     354
     347     348     349     350     351     352     353     354     348     349
     350     349     350     350     351     352     353     354     352     353
     353       0     355     356     357     358     359     360     363     366
     367     368     356     357     366     357     358     359     360     361
     362     363     364     365     366     367     368     369     370     358
     359     360     361     362     363     364     365     366     367     368
     359     360     361     362     363     366     360     361     362     363
     366     361     362     363     364     365     366     367     368     362
     363     364     365     366     363     364     365     366     364     365
     366     367     368     369     370     365     366     367     368     366
     367     368     367     368     369     370     371     372     368     369
     370     369     370     371     372     373     374     382     370     371
     372     371     372     373     374     375     376     380     382     383
     384     372     373     374     382     373     374     375     376     377
     378     379     380     381     382     383     384     385     386     374
     375     376     380     382     383     384     375     376     377     378
     379     380     381     382     383     384     376     377     378     379
     380     381     382     377     378     379     380     381     382     378
     379     380     379     380     380     381     382       0     383     384
     385     386     387     388     394     384     385     386     385     386
     387     388     389     390     391     394     395     396     386     387
     388     394     387     388     389     390     391     392     393     394
     395     396     397     398     388     389     390     391     394     395
     396     389     390     391     392     393     394     395     396     390
     391     392     393     394     391     392     393     394     392     393
     394     393       0     395     396     397     398     399     400     410
     396     397     398     397     398     399     400     401     402     406
     410     411     412     398     399     400     410     399     400     401
     402     403     404     405     406     407     408     409     410     411
     412     413     414     400     401     402     406     410     411     412
     401     402     403     404     405     406     407     408     409     410
     411     412     402     403     404     405     406     407     408     409
     410     403     404     405     406     407     408     409     410     404
     405     406     405     406     406     407     408     409     410     408
     409     409       0     411     412     413     414     415     416     417
     412     413     414     413     414     415     416     417     418     419
     414     415     416     417     415     416     417     418     419     420
     429     416     417     418     419     417     418     419     418     419
     420     421     422     423     426     429     430     431     419     420
     429     420     421     422     423     424     425     426     427     428
     429     430     431     432     433     421     422     423     424     425
     426     427     428     429     430     431     422     423     424     425
     426     429     423     424     425     426     429     424     425     426
     427     428     429     430     431     425     426     427     428     429
     426     427     428     429     427     428     429     430     431     432
     433     428     429     430     431     429     430     431     430     431
     432     433     434     435     431     432     433     432     433     434
     435     436     437     451     433     434     435     434     435     436
     437     438     439     440     451     452     453     435     436     437
     451     436     437     438     439     440     441     449     451     452
     453     454     455     437     438     439     440     451     452     453
     438     439     440     441     442     443     447     449     450     451
     452     453     439     440     441     449     451     440     441     449
     451     441     442     443     444     445     447     448     449     450
     451     442     443     444     445     446     447     449     450     443
     444     445     449     444     445     446     447     448     449     445
     446     447     446     447     448     449     450     447     448     449
     448     449     450     449     450     450       0     452     453     454
     455     456     457     461     453     454     455     454     455     456
     457     458     459     460     461     462     463     455     456     457
     461     456     457     458     459     460     461     462     463     464
     465     457     458     459     460     461     462     463     458     459
     460     461     462     463     459     460     461     460     461     461
     462     463     464     465     466     467     481     463     464     465
     464     465     466     467     468     469     470     481     482     483
     465     466     467     481     466     467     468     469     470     471
     479     481     482     483     484     485     467     468     469     470
     481     482     483     468     469     470     471     472     473     477
     479     480     481     482     483     469     470     471     479     481
     470     471     479     481     471     472     473     474     475     477
     478     479     480     481     472     473     474     475     476     477
     479     480     473     474     475     479     474     475     476     477
     478     479     475     476     477     476     477     478     479     480
     477     478     479     478     479     480     479     480     480       0
     482     483     484     485     483     484     485     484     485     485
       0       0       0       0       0       0       0       0       0       0
       0       0       0       0       0       0       0       0       0       0
       0       0       0       0       0       0       0       0       0       0
       0       0       0       0       0       0       0       0       0       0
       0       0       0     529     530     531     530     531     531       0
     533     534     535     534     535     535       0     537     538     539
     538     539     539       0     541     542     543     542     543     543
       0     545     546     547     546     547     547       0     549     550
     551     550     551     551       0     553     554     555     554     555
     555       0     557     558     559     558     559     559       0     561
     562     563     562     563     563       0     565     566     567     566
     567     567       0     569     570     571     570     571     571       0
     573     574     575     574     575     575       0     577     578     579
     578     579     579       0     581     582     583     582     583     583
       0     585     586     587     586     587     587       0     589     590
     591     590     591     591       0     593     594     595     594     595
     595       0     597     598     599     598     599     599       0     601
     602     603     602     603     603       0     605     606     607     606
     607     607       0     609     610     611     610     611     611       0
     613     614     615     614     615     615       0     617     618     619
     618     619     619       0     621     622     623     622     623     623
       0     625     626     627     626     627     627       0     629     630
     631     630     631     631       0     633     634     635     634     635
     635       0     637     638     639     638     639     639       0     641
     642     643     642     643     643       0     645     646     647     646
     647     647       0     649     650     651     650     651     651       0
     653     654     655     654     655     655       0     657     658     659
     658     659     659       0     661     662     663     662     663     663
       0     665     666     667     666     667     667       0     669     670
     671     670     671     671       0     673     674     675     674     675
     675       0     677     678     679     678     679     679       0     681
     682     683     682     683     683       0     685     686     687     686
     687     687       0     689     690     691     690     691     691       0
     693     694     695     694     695     695       0     697     698     699
     698     699     699       0     701     702     703     702     703     703
       0     705     706     707     706     707     707       0     709     710
     711     710     711     711       0     713     714     715     714     715
     715       0     717     718     719     718     719     719       0     721
     722     723     722     723     723       0     725     726     727     726
     727     727       0     729     730     731     730     731     731       0
     733     734     735     734     735     735       0     737     738     739
     738     739     739       0     741     742     743     742     743     743
       0     745     746     747     746     747     747       0     749     750
     751     750     751     751       0     753     754     755     754     755
     755       0     757     758     759     758     759     759       0     761
     762     763     762     763     763       0     765     766     767     766
     767     767       0     769     770     771     770     771     771       0
     773     774     775     774     775     775       0     777     778     779
     778     779     779       0     781     782     783     782     783     783
       0     785     786     787     786     787     787       0     789     790
     791     790     791     791       0     793     794     795     794     795
     795       0     797     798     799     798     799     799       0     801
     802     803     802     803     803       0     805     806     807     806
     807     807       0     809     810     811     810     811     811       0
     813     814     815     814     815     815       0     817     818     819
     818     819     819       0     821     822     823     822     823     823
       0     825     826     827     826     827     827       0     829     830
     831     830     831     831       0     833     834     835     834     835
     835       0     837     838     839     838     839     839       0     841
     842     843     842     843     843       0     845     846     847     846
     847     847       0     849     850     851     850     851     851       0
     853     854     855     854     855     855       0     857     858     859
     858     859     859       0     861     862     863     862     863     863
       0     865     866     867     866     867     867       0     869     870
     871     870     871     871       0     873     874     875     874     875
     875       0     877     878     879     878     879     879       0     881
     882     883     882     883     883       0     885     886     887     886
     887     887       0     889     890     891     890     891     891       0
     893     894     895     894     895     895       0     897     898     899
     898     899     899       0     901     902     903     902     903     903
       0     905     906     907     906     907     907       0     909     910
     911     910     911     911       0     913     914     915     914     915
     915       0     917     918     919     918     919     919       0     921
     922     923     922     923     923       0     925     926     927     926
     927     927       0     929     930     931     930     931     931       0
     933     934     935     934     935     935       0     937     938     939
     938     939     939       0     941     942     943     942     943     943
       0     945     946     947     946     947     947       0     949     950
     951     950     951     951       0     953     954     955     954     955
     955       0     957     958     959     958     959     959       0     961
     962     963     962     963     963       0     965     966     967     966
     967     967       0     969     970     971     970     971     971       0
     973     974     975     974     975     975       0     977     978     979
     978     979     979       0     981     982     983     982     983     983
       0     985     986     987     986     987     987       0     989     990
     991     990     991     991       0     993     994     995     994     995
     995       0     997     998     999     998     999     999       0    1001
    1002    1003    1002    1003    1003       0    1005    1006    1007    1006
    1007    1007       0    1009    1010    1011    1010    1011    1011       0
    1013    1014    1015    1014    1015    1015       0    1017    1018    1019
    1018    1019    1019       0    1021    1022    1023    1022    1023    1023
       0    1025    1026    1027    1026    1027    1027       0    1029    1030
    1031    1030    1031    1031       0    1033    1034    1035    1034    1035
    1035       0    1037    1038    1039    1038    1039    1039       0    1041
    1042    1043    1042    1043    1043       0    1045    1046    1047    1046
    1047    1047       0    1049    1050    1051    1050    1051    1051       0
    1053    1054    1055    1054    1055    1055       0    1057    1058    1059
    1058    1059    1059       0    1061    1062    1063    1062    1063    1063
       0    1065    1066    1067    1066    1067    1067       0    1069    1070
    1071    1070    1071    1071       0    1073    1074    1075    1074    1075
    1075       0    1077    1078    1079    1078    1079    1079       0    1081
    1082    1083    1082    1083    1083       0    1085    1086    1087    1086
    1087    1087       0    1089    1090    1091    1090    1091    1091       0
    1093    1094    1095    1094    1095    1095       0    1097    1098    1099
    1098    1099    1099       0    1101    1102    1103    1102    1103    1103
       0    1105    1106    1107    1106    1107    1107       0    1109    1110
    1111    1110    1111    1111       0    1113    1114    1115    1114    1115
    1115       0    1117    1118    1119    1118    1119    1119       0    1121
    1122    1123    1122    1123    1123       0    1125    1126    1127    1126
    1127    1127       0    1129    1130    1131    1130    1131    1131       0
    1133    1134    1135    1134    1135    1135       0    1137    1138    1139
    1138    1139    1139       0    1141    1142    1143    1142    1143    1143
       0    1145    1146    1147    1146    1147    1147       0    1149    1150
    1151    1150    1151    1151       0    1153    1154    1155    1154    1155
    1155       0    1157    1158    1159    1158    1159    1159       0    1161
    1162    1163    1162    1163    1163       0    1165    1166    1167    1166
    1167    1167       0    1169    1170    1171    1170    1171    1171       0
    1173    1174    1175    1174    1175    1175       0    1177    1178    1179
    1178    1179    1179       0    1181    1182    1183    1182    1183    1183
       0    1185    1186    1187    1186    1187    1187       0    1189    1190
    1191    1190    1191    1191       0    1193    1194    1195    1194    1195
    1195       0    1197    1198    1199    1198    1199    1199       0    1201
    1202    1203    1202    1203    1203       0    1205    1206    1207    1206
    1207    1207       0    1209    1210    1211    1210    1211    1211       0
    1213    1214    1215    1214    1215    1215       0    1217    1218    1219
    1218    1219    1219       0    1221    1222    1223    1222    1223    1223
       0    1225    1226    1227    1226    1227    1227       0    1229    1230
    1231    1230    1231    1231       0    1233    1234    1235    1234    1235
    1235       0    1237    1238    1239    1238    1239    1239       0    1241
    1242    1243    1242    1243    1243       0    1245    1246    1247    1246
    1247    1247       0    1249    1250    1251    1250    1251    1251       0
    1253    1254    1255    1254    1255    1255       0    1257    1258    1259
    1258    1259    1259       0    1261    1262    1263    1262    1263    1263
       0    1265    1266    1267    1266    1267    1267       0    1269    1270
    1271    1270    1271    1271       0    1273    1274    1275    1274    1275
    1275       0    1277    1278    1279    1278    1279    1279       0    1281
    1282    1283    1282    1283    1283       0    1285    1286    1287    1286
    1287    1287       0    1289    1290    1291    1290    1291    1291       0
    1293    1294    1295    1294    1295    1295       0    1297    1298    1299
    1298    1299    1299       0    1301    1302    1303    1302    1303    1303
       0    1305    1306    1307    1306    1307    1307       0    1309    1310
    1311    1310    1311    1311       0    1313    1314    1315    1314    1315
    1315       0    1317    1318    1319    1318    1319    1319       0    1321
    1322    1323    1322    1323    1323       0    1325    1326    1327    1326
    1327    1327       0    1329    1330    1331    1330    1331    1331       0
    1333    1334    1335    1334    1335    1335       0    1337    1338    1339
    1338    1339    1339       0    1341    1342    1343    1342    1343    1343
       0    1345    1346    1347    1346    1347    1347       0    1349    1350
    1351    1350    1351    1351       0    1353    1354    1355    1354    1355
    1355       0    1357    1358    1359    1358    1359    1359       0    1361
    1362    1363    1362    1363    1363       0    1365    1366    1367    1366
    1367    1367       0    1369    1370    1371    1370    1371    1371       0
    1373    1374    1375    1374    1375    1375       0    1377    1378    1379
    1378    1379    1379       0    1381    1382    1383    1382    1383    1383
       0    1385    1386    1387    1386    1387    1387       0    1389    1390
    1391    1390    1391    1391       0    1393    1394    1395    1394    1395
    1395       0    1397    1398    1399    1398    1399    1399       0    1401
    1402    1403    1402    1403    1403       0    1405    1406    1407    1406
    1407    1407       0    1409    1410    1411    1410    1411    1411       0
    1413    1414    1415    1414    1415    1415       0    1417    1418    1419
    1418    1419    1419       0    1421    1422    1423    1422    1423    1423
       0    1425    1426    1427    1426    1427    1427       0    1429    1430
    1431    1430    1431    1431       0    1433    1434    1435    1434    1435
    1435       0    1437    1438    1439    1438    1439    1439       0    1441
    1442    1443    1442    1443    1443       0    1445    1446    1447    1446
    1447    1447       0    1449    1450    1451    1450    1451    1451       0
    1453    1454    1455    1454    1455    1455       0    1457    1458    1459
    1458    1459    1459       0    1461    1462    1463    1462    1463    1463
       0    1465    1466    1467    1466    1467    1467       0    1469    1470
    1471    1470    1471    1471       0    1473    1474    1475    1474    1475
    1475       0    1477    1478    1479    1478    1479    1479       0    1481
    1482    1483    1482    1483    1483       0    1485    1486    1487    1486
    1487    1487       0    1489    1490    1491    1490    1491    1491       0
    1493    1494    1495    1494    1495    1495       0    1497    1498    1499
    1498    1499    1499       0    1501    1502    1503    1502    1503    1503
       0    1505    1506    1507    1506    1507    1507       0    1509    1510
    1511    1510    1511    1511       0    1513    1514    1515    1514    1515
    1515       0    1517    1518    1519    1518    1519    1519       0    1521
    1522    1523    1522    1523    1523       0    1525    1526    1527    1526
    1527    1527       0    1529    1530    1531    1530    1531    1531       0
    1533    1534    1535    1534    1535    1535       0    1537    1538    1539
    1538    1539    1539       0    1541    1542    1543    1542    1543    1543
       0    1545    1546    1547    1546    1547    1547       0    1549    1550
    1551    1550    1551    1551       0    1553    1554    1555    1554    1555
    1555       0    1557    1558    1559    1558    1559    1559       0    1561
    1562    1563    1562    1563    1563       0    1565    1566    1567    1566
    1567    1567       0    1569    1570    1571    1570    1571    1571       0
    1573    1574    1575    1574    1575    1575       0    1577    1578    1579
    1578    1579    1579       0    1581    1582    1583    1582    1583    1583
       0    1585    1586    1587    1586    1587    1587       0    1589    1590
    1591    1590    1591    1591       0    1593    1594    1595    1594    1595
    1595       0    1597    1598    1599    1598    1599    1599       0    1601
    1602    1603    1602    1603    1603       0    1605    1606    1607    1606
    1607    1607       0    1609    1610    1611    1610    1611    1611       0
    1613    1614    1615    1614    1615    1615       0    1617    1618    1619
    1618    1619    1619       0    1621    1622    1623    1622    1623    1623
       0    1625    1626    1627    1626    1627    1627       0    1629    1630
    1631    1630    1631    1631       0    1633    1634    1635    1634    1635
    1635       0    1637    1638    1639    1638    1639    1639       0    1641
    1642    1643    1642    1643    1643       0    1645    1646    1647    1646
    1647    1647       0    1649    1650    1651    1650    1651    1651       0
    1653    1654    1655    1654    1655    1655       0    1657    1658    1659
    1658    1659    1659       0    1661    1662    1663    1662    1663    1663
       0    1665    1666    1667    1666    1667    1667       0    1669    1670
    1671    1670    1671    1671       0    1673    1674    1675    1674    1675
    1675       0    1677    1678    1679    1678    1679    1679       0    1681
    1682    1683    1682    1683    1683       0    1685    1686    1687    1686
    1687    1687       0    1689    1690    1691    1690    1691    1691       0
    1693    1694    1695    1694    1695    1695       0    1697    1698    1699
    1698    1699    1699       0    1701    1702    1703    1702    1703    1703
       0    1705    1706    1707    1706    1707    1707       0    1709    1710
    1711    1710    1711    1711       0    1713    1714    1715    1714    1715
    1715       0    1717    1718    1719    1718    1719    1719       0    1721
    1722    1723    1722    1723    1723       0    1725    1726    1727    1726
    1727    1727       0    1729    1730    1731    1730    1731    1731       0
    1733    1734    1735    1734    1735    1735       0    1737    1738    1739
    1738    1739    1739       0    1741    1742    1743    1742    1743    1743
       0    1745    1746    1747    1746    1747    1747       0    1749    1750
    1751    1750    1751    1751       0    1753    1754    1755    1754    1755
    1755       0    1757    1758    1759    1758    1759    1759       0    1761
    1762    1763    1762    1763    1763       0    1765    1766    1767    1766
    1767    1767       0    1769    1770    1771    1770    1771    1771       0
    1773    1774    1775    1774    1775    1775       0    1777    1778    1779
    1778    1779    1779       0    1781    1782    1783    1782    1783    1783
       0    1785    1786    1787    1786    1787    1787       0    1789    1790
    1791    1790    1791    1791       0    1793    1794    1795    1794    1795
    1795       0    1797    1798    1799    1798    1799    1799       0    1801
    1802    1803    1802    1803    1803       0    1805    1806    1807    1806
    1807    1807       0    1809    1810    1811    1810    1811    1811       0
    1813    1814    1815    1814    1815    1815       0    1817    1818    1819
    1818    1819    1819       0    1821    1822    1823    1822    1823    1823
       0    1825    1826    1827    1826    1827    1827       0    1829    1830
    1831    1830    1831    1831       0    1833    1834    1835    1834    1835
    1835       0    1837    1838    1839    1838    1839    1839       0    1841
    1842    1843    1842    1843    1843       0    1845    1846    1847    1846
    1847    1847       0    1849    1850    1851    1850    1851    1851       0
    1853    1854    1855    1854    1855    1855       0    1857    1858    1859
    1858    1859    1859       0    1861    1862    1863    1862    1863    1863
       0    1865    1866    1867    1866    1867    1867       0    1869    1870
    1871    1870    1871    1871       0    1873    1874    1875    1874    1875
    1875       0    1877    1878    1879    1878    1879    1879       0    1881
    1882    1883    1882    1883    1883       0    1885    1886    1887    1886
    1887    1887       0    1889    1890    1891    1890    1891    1891       0
    1893    1894    1895    1894    1895    1895       0    1897    1898    1899
    1898    1899    1899       0    1901    1902    1903    1902    1903    1903
       0    1905    1906    1907    1906    1907    1907       0    1909    1910
    1911    1910    1911    1911       0    1913    1914    1915    1914    1915
    1915       0    1917    1918    1919    1918    1919    1919       0    1921
    1922    1923    1922    1923    1923       0    1925    1926    1927    1926
    1927    1927       0    1929    1930    1931    1930    1931    1931       0
    1933    1934    1935    1934    1935    1935       0    1937    1938    1939
    1938    1939    1939       0    1941    1942    1943    1942    1943    1943
       0    1945    1946    1947    1946    1947    1947       0    1949    1950
    1951    1950    1951    1951       0    1953    1954    1955    1954    1955
    1955       0    1957    1958    1959    1958    1959    1959       0    1961
    1962    1963    1962    1963    1963       0    1965    1966    1967    1966
    1967    1967       0    1969    1970    1971    1970    1971    1971       0
    1973    1974    1975    1974    1975    1975       0    1977    1978    1979
    1978    1979    1979       0    1981    1982    1983    1982    1983    1983
       0    1985    1986    1987    1986    1987    1987       0    1989    1990
    1991    1990    1991    1991       0    1993    1994    1995    1994    1995
    1995       0    1997    1998    1999    1998    1999    1999       0    2001
    2002    2003    2002    2003    2003       0    2005    2006    2007    2006
    2007    2007       0    2009    2010    2011    2010    2011    2011       0
    2013    2014    2015    2014    2015    2015       0    2017    2018    2019
    2018    2019    2019       0    2021    2022    2023    2022    2023    2023
       0    2025    2026    2027    2026    2027    2027       0    2029    2030
    2031    2030    2031    2031       0    2033    2034    2035    2034    2035
    2035       0    2037    2038    2039    2038    2039    2039       0    2041
    2042    2043    2042    2043    2043       0    2045    2046    2047    2046
    2047    2047       0    2049    2050    2051    2050    2051    2051       0
    2053    2054    2055    2054    2055    2055       0    2057    2058    2059
    2058    2059    2059       0    2061    2062    2063    2062    2063    2063
       0    2065    2066    2067    2066    2067    2067       0    2069    2070
    2071    2070    2071    2071       0    2073    2074    2075    2074    2075
    2075       0    2077    2078    2079    2078    2079    2079       0    2081
    2082    2083    2082    2083    2083       0    2085    2086    2087    2086
    2087    2087       0    2089    2090    2091    2090    2091    2091       0
    2093    2094    2095    2094    2095    2095       0    2097    2098    2099
    2098    2099    2099       0    2101    2102    2103    2102    2103    2103
       0    2105    2106    2107    2106    2107    2107       0    2109    2110
    2111    2110    2111    2111       0    2113    2114    2115    2114    2115
    2115       0    2117    2118    2119    2118    2119    2119       0    2121
    2122    2123    2122    2123    2123       0    2125    2126    2127    2126
    2127    2127       0    2129    2130    2131    2130    2131    2131       0
    2133    2134    2135    2134    2135    2135       0    2137    2138    2139
    2138    2139    2139       0    2141    2142    2143    2142    2143    2143
       0    2145    2146    2147    2146    2147    2147       0    2149    2150
    2151    2150    2151    2151       0    2153    2154    2155    2154    2155
    2155       0    2157    2158    2159    2158    2159    2159       0    2161
    2162    2163    2162    2163    2163       0    2165    2166    2167    2166
    2167    2167       0    2169    2170    2171    2170    2171    2171       0
    2173    2174    2175    2174    2175    2175       0    2177    2178    2179
    2178    2179    2179       0    2181    2182    2183    2182    2183    2183
       0    2185    2186    2187    2186    2187    2187       0    2189    2190
    2191    2190    2191    2191       0    2193    2194    2195    2194    2195
    2195       0    2197    2198    2199    2198    2199    2199       0    2201
    2202    2203    2202    2203    2203       0    2205    2206    2207    2206
    2207    2207       0    2209    2210    2211    2210    2211    2211       0
    2213    2214    2215    2214    2215    2215       0    2217    2218    2219
    2218    2219    2219       0    2221    2222    2223    2222    2223    2223
       0    2225    2226    2227    2226    2227    2227       0    2229    2230
    2231    2230    2231    2231       0    2233    2234    2235    2234    2235
    2235       0    2237    2238    2239    2238    2239    2239       0    2241
    2242    2243    2242    2243    2243       0    2245    2246    2247    2246
    2247    2247       0    2249    2250    2251    2250    2251    2251       0
    2253    2254    2255    2254    2255    2255       0    2257    2258    2259
    2258    2259    2259       0    2261    2262    2263    2262    2263    2263
       0    2265    2266    2267    2266    2267    2267       0    2269    2270
    2271    2270    2271    2271       0    2273    2274    2275    2274    2275
    2275       0    2277    2278    2279    2278    2279    2279       0    2281
    2282    2283    2282    2283    2283       0    2285    2286    2287    2286
    2287    2287       0    2289    2290    2291    2290    2291    2291       0
    2293    2294    2295    2294    2295    2295       0    2297    2298    2299
    2298    2299    2299       0    2301    2302    2303    2302    2303    2303
       0    2305    2306    2307    2306    2307    2307       0    2309    2310
    2311    2310    2311    2311       0    2313    2314    2315    2314    2315
    2315       0    2317    2318    2319    2318    2319    2319       0    2321
    2322    2323    2322    2323    2323       0    2325    2326    2327    2326
    2327    2327       0    2329    2330    2331    2330    2331    2331       0
    2333    2334    2335    2334    2335    2335       0    2337    2338    2339
    2338    2339    2339       0    2341    2342    2343    2342    2343    2343
       0    2345    2346    2347    2346    2347    2347       0    2349    2350
    2351    2350    2351    2351       0    2353    2354    2355    2354    2355
    2355       0    2357    2358    2359    2358    2359    2359       0    2361
    2362    2363    2362    2363    2363       0    2365    2366    2367    2366
    2367    2367       0    2369    2370    2371    2370    2371    2371       0
    2373    2374    2375    2374    2375    2375       0    2377    2378    2379
    2378    2379    2379       0    2381    2382    2383    2382    2383    2383
       0    2385    2386    2387    2386    2387    2387       0    2389    2390
    2391    2390    2391    2391       0    2393    2394    2395    2394    2395
    2395       0    2397    2398    2399    2398    2399    2399       0    2401
    2402    2403    2402    2403    2403       0    2405    2406    2407    2406
    2407    2407       0    2409    2410    2411    2410    2411    2411       0
    2413    2414    2415    2414    2415    2415       0    2417    2418    2419
    2418    2419    2419       0    2421    2422    2423    2422    2423    2423
       0    2425    2426    2427    2426    2427    2427       0    2429    2430
    2431    2430    2431    2431       0    2433    2434    2435    2434    2435
    2435       0    2437    2438    2439    2438    2439    2439       0    2441
    2442    2443    2442    2443    2443       0    2445    2446    2447    2446
    2447    2447       0    2449    2450    2451    2450    2451    2451       0
    2453    2454    2455    2454    2455    2455       0    2457    2458    2459
    2458    2459    2459       0    2461    2462    2463    2462    2463    2463
       0    2465    2466    2467    2466    2467    2467       0    2469    2470
    2471    2470    2471    2471       0    2473    2474    2475    2474    2475
    2475       0    2477    2478    2479    2478    2479    2479       0    2481
    2482    2483    2482    2483    2483       0    2485    2486    2487    2486
    2487    2487       0    2489    2490    2491    2490    2491    2491       0
    2493    2494    2495    2494    2495    2495       0    2497    2498    2499
    2498    2499    2499       0    2501    2502    2503    2502    2503    2503
       0    2505    2506    2507    2506    2507    2507       0    2509    2510
    2511    2510    2511    2511       0    2513    2514    2515    2514    2515
    2515       0    2517    2518    2519    2518    2519    2519       0    2521
    2522    2523    2522    2523    2523       0    2525    2526    2527    2526
    2527    2527       0    2529    2530    2531    2530    2531    2531       0
    2533    2534    2535    2534    2535    2535       0    2537    2538    2539
    2538    2539    2539       0    2541    2542    2543    2542    2543    2543
       0    2545    2546    2547    2546    2547    2547       0    2549    2550
    2551    2550    2551    2551       0    2553    2554    2555    2554    2555
    2555       0    2557    2558    2559    2558    2559    2559       0    2561
    2562    2563    2562    2563    2563       0    2565    2566    2567    2566
    2567    2567       0    2569    2570    2571    2570    2571    2571       0
    2573    2574    2575    2574    2575    2575       0    2577    2578    2579
    2578    2579    2579       0    2581    2582    2583    2582    2583    2583
       0    2585    2586    2587    2586    2587    2587       0    2589    2590
    2591    2590    2591    2591       0    2593    2594    2595    2594    2595
    2595       0    2597    2598    2599    2598    2599    2599       0    2601
    2602    2603    2602    2603    2603       0    2605    2606    2607    2606
    2607    2607       0    2609    2610    2611    2610    2611    2611       0
    2613    2614    2615    2614    2615    2615       0    2617    2618    2619
    2618    2619    2619       0    2621    2622    2623    2622    2623    2623
       0    2625    2626    2627    2626    2627    2627       0    2629    2630
    2631    2630    2631    2631       0    2633    2634    2635    2634    2635
    2635       0    2637    2638    2639    2638    2639    2639       0    2641
    2642    2643    2642    2643    2643       0    2645    2646    2647    2646
    2647    2647       0    2649    2650    2651    2650    2651    2651       0
    2653    2654    2655    2654    2655    2655       0    2657    2658    2659
    2658    2659    2659       0    2661    2662    2663    2662    2663    2663
       0    2665    2666    2667    2666    2667    2667       0    2669    2670
    2671    2670    2671    2671       0    2673    2674    2675    2674    2675
    2675       0    2677    2678    2679    2678    2679    2679       0    2681
    2682    2683    2682    2683    2683       0    2685    2686    2687    2686
    2687    2687       0    2689    2690    2691    2690    2691    2691       0
    2693    2694    2695    2694    2695    2695       0    2697    2698    2699
    2698    2699    2699       0    2701    2702    2703    2702    2703    2703
       0    2705    2706    2707    2706    2707    2707       0    2709    2710
    2711    2710    2711    2711       0    2713    2714    2715    2714    2715
    2715       0    2717    2718    2719    2718    2719    2719       0    2721
    2722    2723    2722    2723    2723       0    2725    2726    2727    2726
    2727    2727       0    2729    2730    2731    2730    2731    2731       0
    2733    2734    2735    2734    2735    2735       0    2737    2738    2739
    2738    2739    2739       0    2741    2742    2743    2742    2743    2743
       0    2745    2746    2747    2746    2747    2747       0    2749    2750
    2751    2750    2751    2751       0    2753    2754    2755    2754    2755
    2755       0    2757    2758    2759    2758    2759    2759       0    2761
    2762    2763    2762    2763    2763       0    2765    2766    2767    2766
    2767    2767       0    2769    2770    2771    2770    2771    2771       0
    2773    2774    2775    2774    2775    2775       0    2777    2778    2779
    2778    2779    2779       0    2781    2782    2783    2782    2783    2783
       0    2785    2786    2787    2786    2787    2787       0    2789    2790
    2791    2790    2791    2791       0    2793    2794    2795    2794    2795
    2795       0    2797    2798    2799    2798    2799    2799       0    2801
    2802    2803    2802    2803    2803       0    2805    2806    2807    2806
    2807    2807       0    2809    2810    2811    2810    2811    2811       0
    2813    2814    2815    2814    2815    2815       0    2817    2818    2819
    2818    2819    2819       0    2821    2822    2823    2822    2823    2823
       0    2825    2826    2827    2826    2827    2827       0    2829    2830
    2831    2830    2831    2831       0    2833    2834    2835    2834    2835
    2835       0    2837    2838    2839    2838    2839    2839       0    2841
    2842    2843    2842    2843    2843       0    2845    2846    2847    2846
    2847    2847       0    2849    2850    2851    2850    2851    2851       0
    2853    2854    2855    2854    2855    2855       0    2857    2858    2859
    2858    2859    2859       0    2861    2862    2863    2862    2863    2863
       0    2865    2866    2867    2866    2867    2867       0    2869    2870
    2871    2870    2871    2871       0    2873    2874    2875    2874    2875
    2875       0    2877    2878    2879    2878    2879    2879       0    2881
    2882    2883    2882    2883    2883       0    2885    2886    2887    2886
    2887    2887       0    2889    2890    2891    2890    2891    2891       0
    2893    2894    2895    2894    2895    2895       0    2897    2898    2899
    2898    2899    2899       0    2901    2902    2903    2902    2903    2903
       0    2905    2906    2907    2906    2907    2907       0    2909    2910
    2911    2910    2911    2911       0    2913    2914    2915    2914    2915
    2915       0    2917    2918    2919    2918    2919    2919       0    2921
    2922    2923    2922    2923    2923       0    2925    2926    2927    2926
    2927    2927       0    2929    2930    2931    2930    2931    2931       0
    2933    2934    2935    2934    2935    2935       0    2937    2938    2939
    2938    2939    2939       0    2941    2942    2943    2942    2943    2943
       0    2945    2946    2947    2946    2947    2947       0    2949    2950
    2951    2950    2951    2951       0    2953    2954    2955    2954    2955
    2955       0    2957    2958    2959    2958    2959    2959       0    2961
    2962    2963    2962    2963    2963       0    2965    2966    2967    2966
    2967    2967       0    2969    2970    2971    2970    2971    2971       0
    2973    2974    2975    2974    2975    2975       0    2977    2978    2979
    2978    2979    2979       0    2981    2982    2983    2982    2983    2983
       0    2985    2986    2987    2986    2987    2987       0    2989    2990
    2991    2990    2991    2991       0    2993    2994    2995    2994    2995
    2995       0    2997    2998    2999    2998    2999    2999       0    3001
    3002    3003    3002    3003    3003       0    3005    3006    3007    3006
    3007    3007       0    3009    3010    3011    3010    3011    3011       0
    3013    3014    3015    3014    3015    3015       0    3017    3018    3019
    3018    3019    3019       0    3021    3022    3023    3022    3023    3023
       0    3025    3026    3027    3026    3027    3027       0    3029    3030
    3031    3030    3031    3031       0    3033    3034    3035    3034    3035
    3035       0    3037    3038    3039    3038    3039    3039       0    3041
    3042    3043    3042    3043    3043       0    3045    3046    3047    3046
    3047    3047       0    3049    3050    3051    3050    3051    3051       0
    3053    3054    3055    3054    3055    3055       0    3057    3058    3059
    3058    3059    3059       0    3061    3062    3063    3062    3063    3063
       0    3065    3066    3067    3066    3067    3067       0    3069    3070
    3071    3070    3071    3071       0    3073    3074    3075    3074    3075
    3075       0    3077    3078    3079    3078    3079    3079       0    3081
    3082    3083    3082    3083    3083       0    3085    3086    3087    3086
    3087    3087       0    3089    3090    3091    3090    3091    3091       0
    3093    3094    3095    3094    3095    3095       0    3097    3098    3099
    3098    3099    3099       0    3101    3102    3103    3102    3103    3103
       0    3105    3106    3107    3106    3107    3107       0    3109    3110
    3111    3110    3111    3111       0    3113    3114    3115    3114    3115
    3115       0    3117    3118    3119    3118    3119    3119       0    3121
    3122    3123    3122    3123    3123       0    3125    3126    3127    3126
    3127    3127       0    3129    3130    3131    3130    3131    3131       0
    3133    3134    3135    3134    3135    3135       0    3137    3138    3139
    3138    3139    3139       0    3141    3142    3143    3142    3143    3143
       0    3145    3146    3147    3146    3147    3147       0    3149    3150
    3151    3150    3151    3151       0    3153    3154    3155    3154    3155
    3155       0    3157    3158    3159    3158    3159    3159       0    3161
    3162    3163    3162    3163    3163       0    3165    3166    3167    3166
    3167    3167       0    3169    3170    3171    3170    3171    3171       0
    3173    3174    3175    3174    3175    3175       0    3177    3178    3179
    3178    3179    3179       0    3181    3182    3183    3182    3183    3183
       0    3185    3186    3187    3186    3187    3187       0    3189    3190
    3191    3190    3191    3191       0    3193    3194    3195    3194    3195
    3195       0    3197    3198    3199    3198    3199    3199       0    3201
    3202    3203    3202    3203    3203       0    3205    3206    3207    3206
    3207    3207       0    3209    3210    3211    3210    3211    3211       0
    3213    3214    3215    3214    3215    3215       0    3217    3218    3219
    3218    3219    3219       0    3221    3222    3223    3222    3223    3223
       0    3225    3226    3227    3226    3227    3227       0    3229    3230
    3231    3230    3231    3231       0    3233    3234    3235    3234    3235
    3235       0    3237    3238    3239    3238    3239    3239       0    3241
    3242    3243    3242    3243    3243       0    3245    3246    3247    3246
    3247    3247       0    3249    3250    3251    3250    3251    3251       0
    3253    3254    3255    3254    3255    3255       0    3257    3258    3259
    3258    3259    3259       0    3261    3262    3263    3262    3263    3263
       0    3265    3266    3267    3266    3267    3267       0    3269    3270
    3271    3270    3271    3271       0    3273    3274    3275    3274    3275
    3275       0    3277    3278    3279    3278    3279    3279       0    3281
    3282    3283    3282    3283    3283       0    3285    3286    3287    3286
    3287    3287       0    3289    3290    3291    3290    3291    3291       0
    3293    3294    3295    3294    3295    3295       0    3297    3298    3299
    3298    3299    3299       0    3301    3302    3303    3302    3303    3303
       0    3305    3306    3307    3306    3307    3307       0    3309    3310
    3311    3310    3311    3311       0    3313    3314    3315    3314    3315
    3315       0    3317    3318    3319    3318    3319    3319       0    3321
    3322    3323    3322    3323    3323       0    3325    3326    3327    3326
    3327    3327       0    3329    3330    3331    3330    3331    3331       0
    3333    3334    3335    3334    3335    3335       0    3337    3338    3339
    3338    3339    3339       0    3341    3342    3343    3342    3343    3343
       0    3345    3346    3347    3346    3347    3347       0    3349    3350
    3351    3350    3351    3351       0    3353    3354    3355    3354    3355
    3355       0    3357    3358    3359    3358    3359    3359       0    3361
    3362    3363    3362    3363    3363       0    3365    3366    3367    3366
    3367    3367       0    3369    3370    3371    3370    3371    3371       0
    3373    3374    3375    3374    3375    3375       0    3377    3378    3379
    3378    3379    3379       0    3381    3382    3383    3382    3383    3383
       0    3385    3386    3387    3386    3387    3387       0    3389    3390
    3391    3390    3391    3391       0    3393    3394    3395    3394    3395
    3395       0    3397    3398    3399    3398    3399    3399       0    3401
    3402    3403    3402    3403    3403       0    3405    3406    3407    3406
    3407    3407       0    3409    3410    3411    3410    3411    3411       0
    3413    3414    3415    3414    3415    3415       0    3417    3418    3419
    3418    3419    3419       0    3421    3422    3423    3422    3423    3423
       0    3425    3426    3427    3426    3427    3427       0    3429    3430
    3431    3430    3431    3431       0    3433    3434    3435    3434    3435
    3435       0    3437    3438    3439    3438    3439    3439       0    3441
    3442    3443    3442    3443    3443       0    3445    3446    3447    3446
    3447    3447       0    3449    3450    3451    3450    3451    3451       0
    3453    3454    3455    3454    3455    3455       0    3457    3458    3459
    3458    3459    3459       0    3461    3462    3463    3462    3463    3463
       0    3465    3466    3467    3466    3467    3467       0    3469    3470
    3471    3470    3471    3471       0    3473    3474    3475    3474    3475
    3475       0    3477    3478    3479    3478    3479    3479       0    3481
    3482    3483    3482    3483    3483       0    3485    3486    3487    3486
    3487    3487       0    3489    3490    3491    3490    3491    3491       0
    3493    3494    3495    3494    3495    3495       0    3497    3498    3499
    3498    3499    3499       0    3501    3502    3503    3502    3503    3503
       0    3505    3506    3507    3506    3507    3507       0    3509    3510
    3511    3510    3511    3511       0    3513    3514    3515    3514    3515
    3515       0    3517    3518    3519    3518    3519    3519       0    3521
    3522    3523    3522    3523    3523       0    3525    3526    3527    3526
    3527    3527       0    3529    3530    3531    3530    3531    3531       0
    3533    3534    3535    3534    3535    3535       0    3537    3538    3539
    3538    3539    3539       0    3541    3542    3543    3542    3543    3543
       0    3545    3546    3547    3546    3547    3547       0    3549    3550
    3551    3550    3551    3551       0    3553    3554    3555    3554    3555
    3555       0    3557    3558    3559    3558    3559    3559       0    3561
    3562    3563    3562    3563    3563       0    3565    3566    3567    3566
    3567    3567       0    3569    3570    3571    3570    3571    3571       0
    3573    3574    3575    3574    3575    3575       0    3577    3578    3579
    3578    3579    3579       0    3581    3582    3583    3582    3583    3583
       0    3585    3586    3587    3586    3587    3587       0    3589    3590
    3591    3590    3591    3591       0    3593    3594    3595    3594    3595
    3595       0    3597    3598    3599    3598    3599    3599       0    3601
    3602    3603    3602    3603    3603       0    3605    3606    3607    3606
    3607    3607       0    3609    3610    3611    3610    3611    3611       0
    3613    3614    3615    3614    3615    3615       0    3617    3618    3619
    3618    3619    3619       0    3621    3622    3623    3622    3623    3623
       0    3625    3626    3627    3626    3627    3627       0    3629    3630
    3631    3630    3631    3631       0    3633    3634    3635    3634    3635
    3635       0    3637    3638    3639    3638    3639    3639       0    3641
    3642    3643    3642    3643    3643       0    3645    3646    3647    3646
    3647    3647       0    3649    3650    3651    3650    3651    3651       0
    3653    3654    3655    3654    3655    3655       0    3657    3658    3659
    3658    3659    3659       0    3661    3662    3663    3662    3663    3663
       0    3665    3666    3667    3666    3667    3667       0    3669    3670
    3671    3670    3671    3671       0    3673    3674    3675    3674    3675
    3675       0    3677    3678    3679    3678    3679    3679       0    3681
    3682    3683    3682    3683    3683       0    3685    3686    3687    3686
    3687    3687       0    3689    3690    3691    3690    3691    3691       0
    3693    3694    3695    3694    3695    3695       0    3697    3698    3699
    3698    3699    3699       0    3701    3702    3703    3702    3703    3703
       0    3705    3706    3707    3706    3707    3707       0    3709    3710
    3711    3710    3711    3711       0    3713    3714    3715    3714    3715
    3715       0    3717    3718    3719    3718    3719    3719       0    3721
    3722    3723    3722    3723    3723       0    3725    3726    3727    3726
    3727    3727       0    3729    3730    3731    3730    3731    3731       0
    3733    3734    3735    3734    3735    3735       0    3737    3738    3739
    3738    3739    3739       0    3741    3742    3743    3742    3743    3743
       0    3745    3746    3747    3746    3747    3747       0    3749    3750
    3751    3750    3751    3751       0    3753    3754    3755    3754    3755
    3755       0    3757    3758    3759    3758    3759    3759       0    3761
    3762    3763    3762    3763    3763       0    3765    3766    3767    3766
    3767    3767       0    3769    3770    3771    3770    3771    3771       0
    3773    3774    3775    3774    3775    3775       0    3777    3778    3779
    3778    3779    3779       0    3781    3782    3783    3782    3783    3783
       0    3785    3786    3787    3786    3787    3787       0    3789    3790
    3791    3790    3791    3791       0    3793    3794    3795    3794    3795
    3795       0    3797    3798    3799    3798    3799    3799       0    3801
    3802    3803    3802    3803    3803       0    3805    3806    3807    3806
    3807    3807       0    3809    3810    3811    3810    3811    3811       0
    3813    3814    3815    3814    3815    3815       0    3817    3818    3819
    3818    3819    3819       0    3821    3822    3823    3822    3823    3823
       0    3825    3826    3827    3826    3827    3827       0    3829    3830
    3831    3830    3831    3831       0    3833    3834    3835    3834    3835
    3835       0    3837    3838    3839    3838    3839    3839       0    3841
    3842    3843    3842    3843    3843       0    3845    3846    3847    3846
    3847    3847       0    3849    3850    3851    3850    3851    3851       0
    3853    3854    3855    3854    3855    3855       0    3857    3858    3859
    3858    3859    3859       0    3861    3862    3863    3862    3863    3863
       0    3865    3866    3867    3866    3867    3867       0    3869    3870
    3871    3870    3871    3871       0    3873    3874    3875    3874    3875
    3875       0    3877    3878    3879    3878    3879    3879       0    3881
    3882    3883    3882    3883    3883       0    3885    3886    3887    3886
    3887    3887       0    3889    3890    3891    3890    3891    3891       0
    3893    3894    3895    3894    3895    3895       0    3897    3898    3899
    3898    3899    3899       0    3901    3902    3903    3902    3903    3903
       0    3905    3906    3907    3906    3907    3907       0    3909    3910
    3911    3910    3911    3911       0    3913    3914    3915    3914    3915
    3915       0    3917    3918    3919    3918    3919    3919       0    3921
    3922    3923    3922    3923    3923       0    3925    3926    3927    3926
    3927    3927       0    3929    3930    3931    3930    3931    3931       0
    3933    3934    3935    3934    3935    3935       0    3937    3938    3939
    3938    3939    3939       0    3941    3942    3943    3942    3943    3943
       0    3945    3946    3947    3946    3947    3947       0    3949    3950
    3951    3950    3951    3951       0    3953    3954    3955    3954    3955
    3955       0    3957    3958    3959    3958    3959    3959       0    3961
    3962    3963    3962    3963    3963       0    3965    3966    3967    3966
    3967    3967       0    3969    3970    3971    3970    3971    3971       0
    3973    3974    3975    3974    3975    3975       0    3977    3978    3979
    3978    3979    3979       0    3981    3982    3983    3982    3983    3983
       0    3985    3986    3987    3986    3987    3987       0    3989    3990
    3991    3990    3991    3991       0    3993    3994    3995    3994    3995
    3995       0    3997    3998    3999    3998    3999    3999       0    4001
    4002    4003    4002    4003    4003       0    4005    4006    4007    4006
    4007    4007       0    4009    4010    4011    4010    4011    4011       0
    4013    4014    4015    4014    4015    4015       0    4017    4018    4019
    4018    4019    4019       0    4021    4022    4023    4022    4023    4023
       0    4025    4026    4027    4026    4027    4027       0    4029    4030
    4031    4030    4031    4031       0    4033    4034    4035    4034    4035
    4035       0    4037    4038    4039    4038    4039    4039       0    4041
    4042    4043    4042    4043    4043       0    4045    4046    4047    4046
    4047    4047       0    4049    4050    4051    4050    4051    4051       0
    4053    4054    4055    4054    4055    4055       0    4057    4058    4059
    4058    4059    4059       0    4061    4062    4063    4062    4063    4063
       0    4065    4066    4067    4066    4067    4067       0    4069    4070
    4071    4070    4071    4071       0    4073    4074    4075    4074    4075
    4075       0    4077    4078    4079    4078    4079    4079       0    4081
    4082    4083    4082    4083    4083       0    4085    4086    4087    4086
    4087    4087       0    4089    4090    4091    4090    4091    4091       0
    4093    4094    4095    4094    4095    4095       0    4097    4098    4099
    4098    4099    4099       0    4101    4102    4103    4102    4103    4103
       0    4105    4106    4107    4106    4107    4107       0    4109    4110
    4111    4110    4111    4111       0    4113    4114    4115    4114    4115
    4115       0    4117    4118    4119    4118    4119    4119       0    4121
    4122    4123    4122    4123    4123       0    4125    4126    4127    4126
    4127    4127       0    4129    4130    4131    4130    4131    4131       0
    4133    4134    4135    4134    4135    4135       0    4137    4138    4139
    4138    4139    4139       0    4141    4142    4143    4142    4143    4143
       0    4145    4146    4147    4146    4147    4147       0    4149    4150
    4151    4150    4151    4151       0    4153    4154    4155    4154    4155
    4155       0    4157    4158    4159    4158    4159    4159       0    4161
    4162    4163    4162    4163    4163       0    4165    4166    4167    4166
    4167    4167       0    4169    4170    4171    4170    4171    4171       0
    4173    4174    4175    4174    4175    4175       0    4177    4178    4179
    4178    4179    4179       0    4181    4182    4183    4182    4183    4183
       0    4185    4186    4187    4186    4187    4187       0    4189    4190
    4191    4190    4191    4191       0    4193    4194    4195    4194    4195
    4195       0    4197    4198    4199    4198    4199    4199       0    4201
    4202    4203    4202    4203    4203       0    4205    4206    4207    4206
    4207    4207       0    4209    4210    4211    4210    4211    4211       0
    4213    4214    4215    4214    4215    4215       0    4217    4218    4219
    4218    4219    4219       0    4221    4222    4223    4222    4223    4223
       0    4225    4226    4227    4226    4227    4227       0    4229    4230
    4231    4230    4231    4231       0    4233    4234    4235    4234    4235
    4235       0    4237    4238    4239    4238    4239    4239       0    4241
    4242    4243    4242    4243    4243       0    4245    4246    4247    4246
    4247    4247       0    4249    4250    4251    4250    4251    4251       0
    4253    4254    4255    4254    4255    4255       0    4257    4258    4259
    4258    4259    4259       0    4261    4262    4263    4262    4263    4263
       0    4265    4266    4267    4266    4267    4267       0    4269    4270
    4271    4270    4271    4271       0    4273    4274    4275    4274    4275
    4275       0    4277    4278    4279    4278    4279    4279       0    4281
    4282    4283    4282    4283    4283       0    4285    4286    4287    4286
    4287    4287       0    4289    4290    4291    4290    4291    4291       0
    4293    4294    4295    4294    4295    4295       0    4297    4298    4299
    4298    4299    4299       0    4301    4302    4303    4302    4303    4303
       0    4305    4306    4307    4306    4307    4307       0    4309    4310
    4311    4310    4311    4311       0    4313    4314    4315    4314    4315
    4315       0    4317    4318    4319    4318    4319    4319       0    4321
    4322    4323    4322    4323    4323       0    4325    4326    4327    4326
    4327    4327       0    4329    4330    4331    4330    4331    4331       0
    4333    4334    4335    4334    4335    4335       0    4337    4338    4339
    4338    4339    4339       0    4341    4342    4343    4342    4343    4343
       0    4345    4346    4347    4346    4347    4347       0    4349    4350
    4351    4350    4351    4351       0    4353    4354    4355    4354    4355
    4355       0    4357    4358    4359    4358    4359    4359       0    4361
    4362    4363    4362    4363    4363       0    4365    4366    4367    4366
    4367    4367       0    4369    4370    4371    4370    4371    4371       0
    4373    4374    4375    4374    4375    4375       0    4377    4378    4379
    4378    4379    4379       0    4381    4382    4383    4382    4383    4383
       0    4385    4386    4387    4386    4387    4387       0    4389    4390
    4391    4390    4391    4391       0    4393    4394    4395    4394    4395
    4395       0    4397    4398    4399    4398    4399    4399       0    4401
    4402    4403    4402    4403    4403       0    4405    4406    4407    4406
    4407    4407       0    4409    4410    4411    4410    4411    4411       0
    4413    4414    4415    4414    4415    4415       0    4417    4418    4419
    4418    4419    4419       0    4421    4422    4423    4422    4423    4423
       0    4425    4426    4427    4426    4427    4427       0    4429    4430
    4431    4430    4431    4431       0    4433    4434    4435    4434    4435
    4435       0    4437    4438    4439    4438    4439    4439       0    4441
    4442    4443    4442    4443    4443       0    4445    4446    4447    4446
    4447    4447       0    4449    4450    4451    4450    4451    4451       0
    4453    4454    4455    4454    4455    4455       0    4457    4458    4459
    4458    4459    4459       0    4461    4462    4463    4462    4463    4463
       0    4465    4466    4467    4466    4467    4467       0    4469    4470
    4471    4470    4471    4471       0    4473    4474    4475    4474    4475
    4475       0    4477    4478    4479    4478    4479    4479       0    4481
    4482    4483    4482    4483    4483       0    4485    4486    4487    4486
    4487    4487       0    4489    4490    4491    4490    4491    4491       0
    4493    4494    4495    4494    4495    4495       0    4497    4498    4499
    4498    4499    4499       0    4501    4502    4503    4502    4503    4503
       0    4505    4506    4507    4506    4507    4507       0    4509    4510
    4511    4510    4511    4511       0    4513    4514    4515    4514    4515
    4515       0    4517    4518    4519    4518    4519    4519       0    4521
    4522    4523    4522    4523    4523       0    4525    4526    4527    4526
    4527    4527       0    4529    4530    4531    4530    4531    4531       0
    4533    4534    4535    4534    4535    4535       0    4537    4538    4539
    4538    4539    4539       0    4541    4542    4543    4542    4543    4543
       0    4545    4546    4547    4546    4547    4547       0    4549    4550
    4551    4550    4551    4551       0    4553    4554    4555    4554    4555
    4555       0    4557    4558    4559    4558    4559    4559       0    4561
    4562    4563    4562    4563    4563       0    4565    4566    4567    4566
    4567    4567       0    4569    4570    4571    4570    4571    4571       0
    4573    4574    4575    4574    4575    4575       0    4577    4578    4579
    4578    4579    4579       0    4581    4582    4583    4582    4583    4583
       0    4585    4586    4587    4586    4587    4587       0    4589    4590
    4591    4590    4591    4591       0    4593    4594    4595    4594    4595
    4595       0    4597    4598    4599    4598    4599    4599       0    4601
    4602    4603    4602    4603    4603       0    4605    4606    4607    4606
    4607    4607       0    4609    4610    4611    4610    4611    4611       0
    4613    4614    4615    4614    4615    4615       0    4617    4618    4619
    4618    4619    4619       0    4621    4622    4623    4622    4623    4623
       0    4625    4626    4627    4626    4627    4627       0    4629    4630
    4631    4630    4631    4631       0    4633    4634    4635    4634    4635
    4635       0    4637    4638    4639    4638    4639    4639       0    4641
    4642    4643    4642    4643    4643       0    4645    4646    4647    4646
    4647    4647       0    4649    4650    4651    4650    4651    4651       0
    4653    4654    4655    4654    4655    4655       0    4657    4658    4659
    4658    4659    4659       0    4661    4662    4663    4662    4663    4663
       0    4665    4666    4667    4666    4667    4667       0    4669    4670
    4671    4670    4671    4671       0    4673    4674    4675    4674    4675
    4675       0    4677    4678    4679    4678    4679    4679       0    4681
    4682    4683    4682    4683    4683       0    4685    4686    4687    4686
    4687    4687       0    4689    4690    4691    4690    4691    4691       0
    4693    4694    4695    4694    4695    4695       0    4697    4698    4699
    4698    4699    4699       0    4701    4702    4703    4702    4703    4703
       0    4705    4706    4707    4706    4707    4707       0    4709    4710
    4711    4710    4711    4711       0    4713    4714    4715    4714    4715
    4715       0    4717    4718    4719    4718    4719    4719       0    4721
    4722    4723    4722    4723    4723       0    4725    4726    4727    4726
    4727    4727       0    4729    4730    4731    4730    4731    4731       0
    4733    4734    4735    4734    4735    4735       0    4737    4738    4739
    4738    4739    4739       0    4741    4742    4743    4742    4743    4743
       0    4745    4746    4747    4746    4747    4747       0    4749    4750
    4751    4750    4751    4751       0    4753    4754    4755    4754    4755
    4755       0    4757    4758    4759    4758    4759    4759       0    4761
    4762    4763    4762    4763    4763       0    4765    4766    4767    4766
    4767    4767       0    4769    4770    4771    4770    4771    4771       0
    4773    4774    4775    4774    4775    4775       0    4777    4778    4779
    4778    4779    4779       0    4781    4782    4783    4782    4783    4783
       0    4785    4786    4787    4786    4787    4787       0    4789    4790
    4791    4790    4791    4791       0    4793    4794    4795    4794    4795
    4795       0    4797    4798    4799    4798    4799    4799       0    4801
    4802    4803    4802    4803    4803       0    4805    4806    4807    4806
    4807    4807       0    4809    4810    4811    4810    4811    4811       0
    4813    4814    4815    4814    4815    4815       0    4817    4818    4819
    4818    4819    4819       0    4821    4822    4823    4822    4823    4823
       0    4825    4826    4827    4826    4827    4827       0    4829    4830
    4831    4830    4831    4831       0    4833    4834    4835    4834    4835
    4835       0    4837    4838    4839    4838    4839    4839       0    4841
    4842    4843    4842    4843    4843       0    4845    4846    4847    4846
    4847    4847       0    4849    4850    4851    4850    4851    4851       0
    4853    4854    4855    4854    4855    4855       0    4857    4858    4859
    4858    4859    4859       0    4861    4862    4863    4862    4863    4863
       0    4865    4866    4867    4866    4867    4867       0    4869    4870
    4871    4870    4871    4871       0    4873    4874    4875    4874    4875
    4875       0    4877    4878    4879    4878    4879    4879       0    4881
    4882    4883    4882    4883    4883       0    4885    4886    4887    4886
    4887    4887       0    4889    4890    4891    4890    4891    4891       0
    4893    4894    4895    4894    4895    4895       0    4897    4898    4899
    4898    4899    4899       0    4901    4902    4903    4902    4903    4903
       0    4905    4906    4907    4906    4907    4907       0    4909    4910
    4911    4910    4911    4911       0    4913    4914    4915    4914    4915
    4915       0    4917    4918    4919    4918    4919    4919       0    4921
    4922    4923    4922    4923    4923       0    4925    4926    4927    4926
    4927    4927       0    4929    4930    4931    4930    4931    4931       0
    4933    4934    4935    4934    4935    4935       0    4937    4938    4939
    4938    4939    4939       0    4941    4942    4943    4942    4943    4943
       0    4945    4946    4947    4946    4947    4947       0    4949    4950
    4951    4950    4951    4951       0    4953    4954    4955    4954    4955
    4955       0    4957    4958    4959    4958    4959    4959       0    4961
    4962    4963    4962    4963    4963       0    4965    4966    4967    4966
    4967    4967       0    4969    4970    4971    4970    4971    4971       0
    4973    4974    4975    4974    4975    4975       0    4977    4978    4979
    4978    4979    4979       0    4981    4982    4983    4982    4983    4983
       0    4985    4986    4987    4986    4987    4987       0    4989    4990
    4991    4990    4991    4991       0    4993    4994    4995    4994    4995
    4995       0    4997    4998    4999    4998    4999    4999       0    5001
    5002    5003    5002    5003    5003       0    5005    5006    5007    5006
    5007    5007       0    5009    5010    5011    5010    5011    5011       0
    5013    5014    5015    5014    5015    5015       0    5017    5018    5019
    5018    5019    5019       0    5021    5022    5023    5022    5023    5023
       0    5025    5026    5027    5026    5027    5027       0    5029    5030
    5031    5030    5031    5031       0    5033    5034    5035    5034    5035
    5035       0    5037    5038    5039    5038    5039    5039       0    5041
    5042    5043    5042    5043    5043       0    5045    5046    5047    5046
    5047    5047       0    5049    5050    5051    5050    5051    5051       0
    5053    5054    5055    5054    5055    5055       0    5057    5058    5059
    5058    5059    5059       0    5061    5062    5063    5062    5063    5063
       0    5065    5066    5067    5066    5067    5067       0    5069    5070
    5071    5070    5071    5071       0    5073    5074    5075    5074    5075
    5075       0    5077    5078    5079    5078    5079    5079       0    5081
    5082    5083    5082    5083    5083       0    5085    5086    5087    5086
    5087    5087       0    5089    5090    5091    5090    5091    5091       0
    5093    5094    5095    5094    5095    5095       0    5097    5098    5099
    5098    5099    5099       0    5101    5102    5103    5102    5103    5103
       0    5105    5106    5107    5106    5107    5107       0    5109    5110
    5111    5110    5111    5111       0    5113    5114    5115    5114    5115
    5115       0    5117    5118    5119    5118    5119    5119       0    5121
    5122    5123    5122    5123    5123       0    5125    5126    5127    5126
    5127    5127       0    5129    5130    5131    5130    5131    5131       0
    5133    5134    5135    5134    5135    5135       0    5137    5138    5139
    5138    5139    5139       0    5141    5142    5143    5142    5143    5143
       0    5145    5146    5147    5146    5147    5147       0    5149    5150
    5151    5150    5151    5151       0    5153    5154    5155    5154    5155
    5155       0    5157    5158    5159    5158    5159    5159       0    5161
    5162    5163    5162    5163    5163       0    5165    5166    5167    5166
    5167    5167       0    5169    5170    5171    5170    5171    5171       0
    5173    5174    5175    5174    5175    5175       0    5177    5178    5179
    5178    5179    5179       0    5181    5182    5183    5182    5183    5183
       0    5185    5186    5187    5186    5187    5187       0    5189    5190
    5191    5190    5191    5191       0    5193    5194    5195    5194    5195
    5195       0    5197    5198    5199    5198    5199    5199       0    5201
    5202    5203    5202    5203    5203       0    5205    5206    5207    5206
    5207    5207       0    5209    5210    5211    5210    5211    5211       0
    5213    5214    5215    5214    5215    5215       0    5217    5218    5219
    5218    5219    5219       0    5221    5222    5223    5222    5223    5223
       0    5225    5226    5227    5226    5227    5227       0    5229    5230
    5231    5230    5231    5231       0    5233    5234    5235    5234    5235
    5235       0    5237    5238    5239    5238    5239    5239       0    5241
    5242    5243    5242    5243    5243       0    5245    5246    5247    5246
    5247    5247       0    5249    5250    5251    5250    5251    5251       0
    5253    5254    5255    5254    5255    5255       0    5257    5258    5259
    5258    5259    5259       0    5261    5262    5263    5262    5263    5263
       0    5265    5266    5267    5266    5267    5267       0    5269    5270
    5271    5270    5271    5271       0    5273    5274    5275    5274    5275
    5275       0    5277    5278    5279    5278    5279    5279       0    5281
    5282    5283    5282    5283    5283       0    5285    5286    5287    5286
    5287    5287       0    5289    5290    5291    5290    5291    5291       0
    5293    5294    5295    5294    5295    5295       0    5297    5298    5299
    5298    5299    5299       0    5301    5302    5303    5302    5303    5303
       0    5305    5306    5307    5306    5307    5307       0    5309    5310
    5311    5310    5311    5311       0    5313    5314    5315    5314    5315
    5315       0    5317    5318    5319    5318    5319    5319       0    5321
    5322    5323    5322    5323    5323       0    5325    5326    5327    5326
    5327    5327       0    5329    5330    5331    5330    5331    5331       0
    5333    5334    5335    5334    5335    5335       0    5337    5338    5339
    5338    5339    5339       0    5341    5342    5343    5342    5343    5343
       0    5345    5346    5347    5346    5347    5347       0    5349    5350
    5351    5350    5351    5351       0    5353    5354    5355    5354    5355
    5355       0    5357    5358    5359    5358    5359    5359       0    5361
    5362    5363    5362    5363    5363       0    5365    5366    5367    5366
    5367    5367       0    5369    5370    5371    5370    5371    5371       0
    5373    5374    5375    5374    5375    5375       0    5377    5378    5379
    5378    5379    5379       0    5381    5382    5383    5382    5383    5383
       0    5385    5386    5387    5386    5387    5387       0    5389    5390
    5391    5390    5391    5391       0    5393    5394    5395    5394    5395
    5395       0    5397    5398    5399    5398    5399    5399       0    5401
    5402    5403    5402    5403    5403       0    5405    5406    5407    5406
    5407    5407       0    5409    5410    5411    5410    5411    5411       0
    5413    5414    5415    5414    5415    5415       0    5417    5418    5419
    5418    5419    5419       0    5421    5422    5423    5422    5423    5423
       0    5425    5426    5427    5426    5427    5427       0    5429    5430
    5431    5430    5431    5431       0    5433    5434    5435    5434    5435
    5435       0    5437    5438    5439    5438    5439    5439       0    5441
    5442    5443    5442    5443    5443       0    5445    5446    5447    5446
    5447    5447       0    5449    5450    5451    5450    5451    5451       0
    5453    5454    5455    5454    5455    5455       0    5457    5458    5459
    5458    5459    5459       0    5461    5462    5463    5462    5463    5463
       0    5465    5466    5467    5466    5467    5467       0    5469    5470
    5471    5470    5471    5471       0    5473    5474    5475    5474    5475
    5475       0    5477    5478    5479    5478    5479    5479       0    5481
    5482    5483    5482    5483    5483       0    5485    5486    5487    5486
    5487    5487       0    5489    5490    5491    5490    5491    5491       0
    5493    5494    5495    5494    5495    5495       0    5497    5498    5499
    5498    5499    5499       0    5501    5502    5503    5502    5503    5503
       0    5505    5506    5507    5506    5507    5507       0    5509    5510
    5511    5510    5511    5511       0    5513    5514    5515    5514    5515
    5515       0    5517    5518    5519    5518    5519    5519       0    5521
    5522    5523    5522    5523    5523       0    5525    5526    5527    5526
    5527    5527       0    5529    5530    5531    5530    5531    5531       0
    5533    5534    5535    5534    5535    5535       0    5537    5538    5539
    5538    5539    5539       0    5541    5542    5543    5542    5543    5543
       0    5545    5546    5547    5546    5547    5547       0    5549    5550
    5551    5550    5551    5551       0    5553    5554    5555    5554    5555
    5555       0    5557    5558    5559    5558    5559    5559       0    5561
    5562    5563    5562    5563    5563       0    5565    5566    5567    5566
    5567    5567       0    5569    5570    5571    5570    5571    5571       0
    5573    5574    5575    5574    5575    5575       0    5577    5578    5579
    5578    5579    5579       0    5581    5582    5583    5582    5583    5583
       0    5585    5586    5587    5586    5587    5587       0    5589    5590
    5591    5590    5591    5591       0    5593    5594    5595    5594    5595
    5595       0    5597    5598    5599    5598    5599    5599       0    5601
    5602    5603    5602    5603    5603       0    5605    5606    5607    5606
    5607    5607       0    5609    5610    5611    5610    5611    5611       0
    5613    5614    5615    5614    5615    5615       0    5617    5618    5619
    5618    5619    5619       0    5621    5622    5623    5622    5623    5623
       0    5625    5626    5627    5626    5627    5627       0    5629    5630
    5631    5630    5631    5631       0    5633    5634    5635    5634    5635
    5635       0    5637    5638    5639    5638    5639    5639       0    5641
    5642    5643    5642    5643    5643       0    5645    5646    5647    5646
    5647    5647       0    5649    5650    5651    5650    5651    5651       0
    5653    5654    5655    5654    5655    5655       0    5657    5658    5659
    5658    5659    5659       0    5661    5662    5663    5662    5663    5663
       0    5665    5666    5667    5666    5667    5667       0    5669    5670
    5671    5670    5671    5671       0    5673    5674    5675    5674    5675
    5675       0    5677    5678    5679    5678    5679    5679       0    5681
    5682    5683    5682    5683    5683       0    5685    5686    5687    5686
    5687    5687       0    5689    5690    5691    5690    5691    5691       0
    5693    5694    5695    5694    5695    5695       0    5697    5698    5699
    5698    5699    5699       0    5701    5702    5703    5702    5703    5703
       0    5705    5706    5707    5706    5707    5707       0    5709    5710
    5711    5710    5711    5711       0    5713    5714    5715    5714    5715
    5715       0    5717    5718    5719    5718    5719    5719       0    5721
    5722    5723    5722    5723    5723       0    5725    5726    5727    5726
    5727    5727       0    5729    5730    5731    5730    5731    5731       0
    5733    5734    5735    5734    5735    5735       0    5737    5738    5739
    5738    5739    5739       0    5741    5742    5743    5742    5743    5743
       0    5745    5746    5747    5746    5747    5747       0    5749    5750
    5751    5750    5751    5751       0    5753    5754    5755    5754    5755
    5755       0    5757    5758    5759    5758    5759    5759       0    5761
    5762    5763    5762    5763    5763       0    5765    5766    5767    5766
    5767    5767       0    5769    5770    5771    5770    5771    5771       0
    5773    5774    5775    5774    5775    5775       0    5777    5778    5779
    5778    5779    5779       0    5781    5782    5783    5782    5783    5783
       0    5785    5786    5787    5786    5787    5787       0    5789    5790
    5791    5790    5791    5791       0    5793    5794    5795    5794    5795
    5795       0    5797    5798    5799    5798    5799    5799       0    5801
    5802    5803    5802    5803    5803       0    5805    5806    5807    5806
    5807    5807       0    5809    5810    5811    5810    5811    5811       0
    5813    5814    5815    5814    5815    5815       0    5817    5818    5819
    5818    5819    5819       0    5821    5822    5823    5822    5823    5823
       0    5825    5826    5827    5826    5827    5827       0    5829    5830
    5831    5830    5831    5831       0    5833    5834    5835    5834    5835
    5835       0    5837    5838    5839    5838    5839    5839       0    5841
    5842    5843    5842    5843    5843       0    5845    5846    5847    5846
    5847    5847       0    5849    5850    5851    5850    5851    5851       0
    5853    5854    5855    5854    5855    5855       0    5857    5858    5859
    5858    5859    5859       0    5861    5862    5863    5862    5863    5863
       0    5865    5866    5867    5866    5867    5867       0    5869    5870
    5871    5870    5871    5871       0    5873    5874    5875    5874    5875
    5875       0    5877    5878    5879    5878    5879    5879       0    5881
    5882    5883    5882    5883    5883       0    5885    5886    5887    5886
    5887    5887       0    5889    5890    5891    5890    5891    5891       0
    5893    5894    5895    5894    5895    5895       0    5897    5898    5899
    5898    5899    5899       0    5901    5902    5903    5902    5903    5903
       0    5905    5906    5907    5906    5907    5907       0    5909    5910
    5911    5910    5911    5911       0    5913    5914    5915    5914    5915
    5915       0    5917    5918    5919    5918    5919    5919       0    5921
    5922    5923    5922    5923    5923       0    5925    5926    5927    5926
    5927    5927       0    5929    5930    5931    5930    5931    5931       0
    5933    5934    5935    5934    5935    5935       0    5937    5938    5939
    5938    5939    5939       0    5941    5942    5943    5942    5943    5943
       0    5945    5946    5947    5946    5947    5947       0    5949    5950
    5951    5950    5951    5951       0    5953    5954    5955    5954    5955
    5955       0    5957    5958    5959    5958    5959    5959       0    5961
    5962    5963    5962    5963    5963       0    5965    5966    5967    5966
    5967    5967       0    5969    5970    5971    5970    5971    5971       0
    5973    5974    5975    5974    5975    5975       0    5977    5978    5979
    5978    5979    5979       0    5981    5982    5983    5982    5983    5983
       0    5985    5986    5987    5986    5987    5987       0    5989    5990
    5991    5990    5991    5991       0    5993    5994    5995    5994    5995
    5995       0    5997    5998    5999    5998    5999    5999       0    6001
    6002    6003    6002    6003    6003       0    6005    6006    6007    6006
    6007    6007       0    6009    6010    6011    6010    6011    6011       0
    6013    6014    6015    6014    6015    6015       0    6017    6018    6019
    6018    6019    6019       0    6021    6022    6023    6022    6023    6023
       0    6025    6026    6027    6026    6027    6027       0    6029    6030
    6031    6030    6031    6031       0    6033    6034    6035    6034    6035
    6035       0    6037    6038    6039    6038    6039    6039       0    6041
    6042    6043    6042    6043    6043       0    6045    6046    6047    6046
    6047    6047       0    6049    6050    6051    6050    6051    6051       0
    6053    6054    6055    6054    6055    6055       0    6057    6058    6059
    6058    6059    6059       0    6061    6062    6063    6062    6063    6063
       0    6065    6066    6067    6066    6067    6067       0    6069    6070
    6071    6070    6071    6071       0    6073    6074    6075    6074    6075
    6075       0    6077    6078    6079    6078    6079    6079       0    6081
    6082    6083    6082    6083    6083       0    6085    6086    6087    6086
    6087    6087       0    6089    6090    6091    6090    6091    6091       0
    6093    6094    6095    6094    6095    6095       0    6097    6098    6099
    6098    6099    6099       0    6101    6102    6103    6102    6103    6103
       0    6105    6106    6107    6106    6107    6107       0    6109    6110
    6111    6110    6111    6111       0    6113    6114    6115    6114    6115
    6115       0    6117    6118    6119    6118    6119    6119       0    6121
    6122    6123    6122    6123    6123       0    6125    6126    6127    6126
    6127    6127       0    6129    6130    6131    6130    6131    6131       0
    6133    6134    6135    6134    6135    6135       0    6137    6138    6139
    6138    6139    6139       0    6141    6142    6143    6142    6143    6143
       0    6145    6146    6147    6146    6147    6147       0    6149    6150
    6151    6150    6151    6151       0    6153    6154    6155    6154    6155
    6155       0    6157    6158    6159    6158    6159    6159       0    6161
    6162    6163    6162    6163    6163       0    6165    6166    6167    6166
    6167    6167       0    6169    6170    6171    6170    6171    6171       0
    6173    6174    6175    6174    6175    6175       0    6177    6178    6179
    6178    6179    6179       0    6181    6182    6183    6182    6183    6183
       0    6185    6186    6187    6186    6187    6187       0    6189    6190
    6191    6190    6191    6191       0    6193    6194    6195    6194    6195
    6195       0    6197    6198    6199    6198    6199    6199       0    6201
    6202    6203    6202    6203    6203       0    6205    6206    6207    6206
    6207    6207       0    6209    6210    6211    6210    6211    6211       0
    6213    6214    6215    6214    6215    6215       0    6217    6218    6219
    6218    6219    6219       0    6221    6222    6223    6222    6223    6223
       0    6225    6226    6227    6226    6227    6227       0    6229    6230
    6231    6230    6231    6231       0    6233    6234    6235    6234    6235
    6235       0    6237    6238    6239    6238    6239    6239       0    6241
    6242    6243    6242    6243    6243       0    6245    6246    6247    6246
    6247    6247       0    6249    6250    6251    6250    6251    6251       0
    6253    6254    6255    6254    6255    6255       0    6257    6258    6259
    6258    6259    6259       0    6261    6262    6263    6262    6263    6263
       0    6265    6266    6267    6266    6267    6267       0    6269    6270
    6271    6270    6271    6271       0    6273    6274    6275    6274    6275
    6275       0    6277    6278    6279    6278    6279    6279       0    6281
    6282    6283    6282    6283    6283       0    6285    6286    6287    6286
    6287    6287       0    6289    6290    6291    6290    6291    6291       0
    6293    6294    6295    6294    6295    6295       0    6297    6298    6299
    6298    6299    6299       0    6301    6302    6303    6302    6303    6303
       0    6305    6306    6307    6306    6307    6307       0    6309    6310
    6311    6310    6311    6311       0    6313    6314    6315    6314    6315
    6315       0    6317    6318    6319    6318    6319    6319       0    6321
    6322    6323    6322    6323    6323       0    6325    6326    6327    6326
    6327    6327       0    6329    6330    6331    6330    6331    6331       0
    6333    6334    6335    6334    6335    6335       0    6337    6338    6339
    6338    6339    6339       0    6341    6342    6343    6342    6343    6343
       0    6345    6346    6347    6346    6347    6347       0    6349    6350
    6351    6350    6351    6351       0    6353    6354    6355    6354    6355
    6355       0    6357    6358    6359    6358    6359    6359       0    6361
    6362    6363    6362    6363    6363       0    6365    6366    6367    6366
    6367    6367       0    6369    6370    6371    6370    6371    6371       0
    6373    6374    6375    6374    6375    6375       0    6377    6378    6379
    6378    6379    6379       0    6381    6382    6383    6382    6383    6383
       0    6385    6386    6387    6386    6387    6387       0    6389    6390
    6391    6390    6391    6391       0    6393    6394    6395    6394    6395
    6395       0    6397    6398    6399    6398    6399    6399       0    6401
    6402    6403    6402    6403    6403       0    6405    6406    6407    6406
    6407    6407       0    6409    6410    6411    6410    6411    6411       0
    6413    6414    6415    6414    6415    6415       0    6417    6418    6419
    6418    6419    6419       0    6421    6422    6423    6422    6423    6423
       0    6425    6426    6427    6426    6427    6427       0    6429    6430
    6431    6430    6431    6431       0    6433    6434    6435    6434    6435
    6435       0    6437    6438    6439    6438    6439    6439       0    6441
    6442    6443    6442    6443    6443       0    6445    6446    6447    6446
    6447    6447       0    6449    6450    6451    6450    6451    6451       0
    6453    6454    6455    6454    6455    6455       0    6457    6458    6459
    6458    6459    6459       0    6461    6462    6463    6462    6463    6463
       0    6465    6466    6467    6466    6467    6467       0    6469    6470
    6471    6470    6471    6471       0    6473    6474    6475    6474    6475
    6475       0    6477    6478    6479    6478    6479    6479       0    6481
    6482    6483    6482    6483    6483       0    6485    6486    6487    6486
    6487    6487       0    6489    6490    6491    6490    6491    6491       0
    6493    6494    6495    6494    6495    6495       0    6497    6498    6499
    6498    6499    6499       0    6501    6502    6503    6502    6503    6503
       0    6505    6506    6507    6506    6507    6507       0    6509    6510
    6511    6510    6511    6511       0    6513    6514    6515    6514    6515
    6515       0    6517    6518    6519    6518    6519    6519       0    6521
    6522    6523    6522    6523    6523       0    6525    6526    6527    6526
    6527    6527       0    6529    6530    6531    6530    6531    6531       0
    6533    6534    6535    6534    6535    6535       0    6537    6538    6539
    6538    6539    6539       0    6541    6542    6543    6542    6543    6543
       0    6545    6546    6547    6546    6547    6547       0    6549    6550
    6551    6550    6551    6551       0    6553    6554    6555    6554    6555
    6555       0    6557    6558    6559    6558    6559    6559       0    6561
    6562    6563    6562    6563    6563       0    6565    6566    6567    6566
    6567    6567       0    6569    6570    6571    6570    6571    6571       0
    6573    6574    6575    6574    6575    6575       0    6577    6578    6579
    6578    6579    6579       0    6581    6582    6583    6582    6583    6583
       0    6585    6586    6587    6586    6587    6587       0    6589    6590
    6591    6590    6591    6591       0    6593    6594    6595    6594    6595
    6595       0    6597    6598    6599    6598    6599    6599       0    6601
    6602    6603    6602    6603    6603       0    6605    6606    6607    6606
    6607    6607       0    6609    6610    6611    6610    6611    6611       0
    6613    6614    6615    6614    6615    6615       0    6617    6618    6619
    6618    6619    6619       0    6621    6622    6623    6622    6623    6623
       0    6625    6626    6627    6626    6627    6627       0    6629    6630
    6631    6630    6631    6631       0    6633    6634    6635    6634    6635
    6635       0    6637    6638    6639    6638    6639    6639       0    6641
    6642    6643    6642    6643    6643       0    6645    6646    6647    6646
    6647    6647       0    6649    6650    6651    6650    6651    6651       0
    6653    6654    6655    6654    6655    6655       0    6657    6658    6659
    6658    6659    6659       0    6661    6662    6663    6662    6663    6663
       0    6665    6666    6667    6666    6667    6667       0    6669    6670
    6671    6670    6671    6671       0    6673    6674    6675    6674    6675
    6675       0    6677    6678    6679    6678    6679    6679       0    6681
    6682    6683    6682    6683    6683       0    6685    6686    6687    6686
    6687    6687       0    6689    6690    6691    6690    6691    6691       0
    6693    6694    6695    6694    6695    6695       0    6697    6698    6699
    6698    6699    6699       0    6701    6702    6703    6702    6703    6703
       0    6705    6706    6707    6706    6707    6707       0    6709    6710
    6711    6710    6711    6711       0    6713    6714    6715    6714    6715
    6715       0    6717    6718    6719    6718    6719    6719       0    6721
    6722    6723    6722    6723    6723       0    6725    6726    6727    6726
    6727    6727       0    6729    6730    6731    6730    6731    6731       0
    6733    6734    6735    6734    6735    6735       0    6737    6738    6739
    6738    6739    6739       0    6741    6742    6743    6742    6743    6743
       0    6745    6746    6747    6746    6747    6747       0    6749    6750
    6751    6750    6751    6751       0    6753    6754    6755    6754    6755
    6755       0    6757    6758    6759    6758    6759    6759       0    6761
    6762    6763    6762    6763    6763       0    6765    6766    6767    6766
    6767    6767       0    6769    6770    6771    6770    6771    6771       0
    6773    6774    6775    6774    6775    6775       0    6777    6778    6779
    6778    6779    6779       0    6781    6782    6783    6782    6783    6783
       0    6785    6786    6787    6786    6787    6787       0    6789    6790
    6791    6790    6791    6791       0    6793    6794    6795    6794    6795
    6795       0    6797    6798    6799    6798    6799    6799       0    6801
    6802    6803    6802    6803    6803       0    6805    6806    6807    6806
    6807    6807       0    6809    6810    6811    6810    6811    6811       0
    6813    6814    6815    6814    6815    6815       0    6817    6818    6819
    6818    6819    6819       0    6821    6822    6823    6822    6823    6823
       0    6825    6826    6827    6826    6827    6827       0    6829    6830
    6831    6830    6831    6831       0    6833    6834    6835    6834    6835
    6835       0    6837    6838    6839    6838    6839    6839       0    6841
    6842    6843    6842    6843    6843       0    6845    6846    6847    6846
    6847    6847       0    6849    6850    6851    6850    6851    6851       0
    6853    6854    6855    6854    6855    6855       0    6857    6858    6859
    6858    6859    6859       0    6861    6862    6863    6862    6863    6863
       0    6865    6866    6867    6866    6867    6867       0    6869    6870
    6871    6870    6871    6871       0    6873    6874    6875    6874    6875
    6875       0    6877    6878    6879    6878    6879    6879       0    6881
    6882    6883    6882    6883    6883       0    6885    6886    6887    6886
    6887    6887       0    6889    6890    6891    6890    6891    6891       0
    6893    6894    6895    6894    6895    6895       0    6897    6898    6899
    6898    6899    6899       0    6901    6902    6903    6902    6903    6903
       0    6905    6906    6907    6906    6907    6907       0    6909    6910
    6911    6910    6911    6911       0    6913    6914    6915    6914    6915
    6915       0    6917    6918    6919    6918    6919    6919       0    6921
    6922    6923    6922    6923    6923       0    6925    6926    6927    6926
    6927    6927       0    6929    6930    6931    6930    6931    6931       0
    6933    6934    6935    6934    6935    6935       0    6937    6938    6939
    6938    6939    6939       0    6941    6942    6943    6942    6943    6943
       0    6945    6946    6947    6946    6947    6947       0    6949    6950
    6951    6950    6951    6951       0    6953    6954    6955    6954    6955
    6955       0    6957    6958    6959    6958    6959    6959       0    6961
    6962    6963    6962    6963    6963       0    6965    6966    6967    6966
    6967    6967       0    6969    6970    6971    6970    6971    6971       0
    6973    6974    6975    6974    6975    6975       0    6977    6978    6979
    6978    6979    6979       0    6981    6982    6983    6982    6983    6983
       0    6985    6986    6987    6986    6987    6987       0    6989    6990
    6991    6990    6991    6991       0    6993    6994    6995    6994    6995
    6995       0    6997    6998    6999    6998    6999    6999       0    7001
    7002    7003    7002    7003    7003       0    7005    7006    7007    7006
    7007    7007       0    7009    7010    7011    7010    7011    7011       0
    7013    7014    7015    7014    7015    7015       0    7017    7018    7019
    7018    7019    7019       0    7021    7022    7023    7022    7023    7023
       0    7025    7026    7027    7026    7027    7027       0    7029    7030
    7031    7030    7031    7031       0    7033    7034    7035    7034    7035
    7035       0    7037    7038    7039    7038    7039    7039       0    7041
    7042    7043    7042    7043    7043       0    7045    7046    7047    7046
    7047    7047       0    7049    7050    7051    7050    7051    7051       0
    7053    7054    7055    7054    7055    7055       0    7057    7058    7059
    7058    7059    7059       0    7061    7062    7063    7062    7063    7063
       0    7065    7066    7067    7066    7067    7067       0    7069    7070
    7071    7070    7071    7071       0    7073    7074    7075    7074    7075
    7075       0    7077    7078    7079    7078    7079    7079       0    7081
    7082    7083    7082    7083    7083       0    7085    7086    7087    7086
    7087    7087       0    7089    7090    7091    7090    7091    7091       0
    7093    7094    7095    7094    7095    7095       0    7097    7098    7099
    7098    7099    7099       0    7101    7102    7103    7102    7103    7103
       0    7105    7106    7107    7106    7107    7107       0    7109    7110
    7111    7110    7111    7111       0    7113    7114    7115    7114    7115
    7115       0    7117    7118    7119    7118    7119    7119       0    7121
    7122    7123    7122    7123    7123       0    7125    7126    7127    7126
    7127    7127       0    7129    7130    7131    7130    7131    7131       0
    7133    7134    7135    7134    7135    7135       0    7137    7138    7139
    7138    7139    7139       0    7141    7142    7143    7142    7143    7143
       0    7145    7146    7147    7146    7147    7147       0    7149    7150
    7151    7150    7151    7151       0    7153    7154    7155    7154    7155
    7155       0    7157    7158    7159    7158    7159    7159       0    7161
    7162    7163    7162    7163    7163       0    7165    7166    7167    7166
    7167    7167       0    7169    7170    7171    7170    7171    7171       0
    7173    7174    7175    7174    7175    7175       0    7177    7178    7179
    7178    7179    7179       0    7181    7182    7183    7182    7183    7183
       0    7185    7186    7187    7186    7187    7187       0    7189    7190
    7191    7190    7191    7191       0    7193    7194    7195    7194    7195
    7195       0    7197    7198    7199    7198    7199    7199       0    7201
    7202    7203    7202    7203    7203       0    7205    7206    7207    7206
    7207    7207       0    7209    7210    7211    7210    7211    7211       0
    7213    7214    7215    7214    7215    7215       0    7217    7218    7219
    7218    7219    7219       0    7221    7222    7223    7222    7223    7223
       0    7225    7226    7227    7226    7227    7227       0    7229    7230
    7231    7230    7231    7231       0    7233    7234    7235    7234    7235
    7235       0    7237    7238    7239    7238    7239    7239       0    7241
    7242    7243    7242    7243    7243       0    7245    7246    7247    7246
    7247    7247       0    7249    7250    7251    7250    7251    7251       0
    7253    7254    7255    7254    7255    7255       0    7257    7258    7259
    7258    7259    7259       0    7261    7262    7263    7262    7263    7263
       0    7265    7266    7267    7266    7267    7267       0    7269    7270
    7271    7270    7271    7271       0    7273    7274    7275    7274    7275
    7275       0    7277    7278    7279    7278    7279    7279       0    7281
    7282    7283    7282    7283    7283       0    7285    7286    7287    7286
    7287    7287       0    7289    7290    7291    7290    7291    7291       0
    7293    7294    7295    7294    7295    7295       0    7297    7298    7299
    7298    7299    7299       0    7301    7302    7303    7302    7303    7303
       0    7305    7306    7307    7306    7307    7307       0    7309    7310
    7311    7310    7311    7311       0    7313    7314    7315    7314    7315
    7315       0    7317    7318    7319    7318    7319    7319       0    7321
    7322    7323    7322    7323    7323       0    7325    7326    7327    7326
    7327    7327       0    7329    7330    7331    7330    7331    7331       0
    7333    7334    7335    7334    7335    7335       0    7337    7338    7339
    7338    7339    7339       0    7341    7342    7343    7342    7343    7343
       0    7345    7346    7347    7346    7347    7347       0    7349    7350
    7351    7350    7351    7351       0    7353    7354    7355    7354    7355
    7355       0    7357    7358    7359    7358    7359    7359       0    7361
    7362    7363    7362    7363    7363       0    7365    7366    7367    7366
    7367    7367       0    7369    7370    7371    7370    7371    7371       0
    7373    7374    7375    7374    7375    7375       0    7377    7378    7379
    7378    7379    7379       0    7381    7382    7383    7382    7383    7383
       0    7385    7386    7387    7386    7387    7387       0    7389    7390
    7391    7390    7391    7391       0    7393    7394    7395    7394    7395
    7395       0    7397    7398    7399    7398    7399    7399       0    7401
    7402    7403    7402    7403    7403       0    7405    7406    7407    7406
    7407    7407       0    7409    7410    7411    7410    7411    7411       0
    7413    7414    7415    7414    7415    7415       0    7417    7418    7419
    7418    7419    7419       0    7421    7422    7423    7422    7423    7423
       0    7425    7426    7427    7426    7427    7427       0    7429    7430
    7431    7430    7431    7431       0    7433    7434    7435    7434    7435
    7435       0    7437    7438    7439    7438    7439    7439       0    7441
    7442    7443    7442    7443    7443       0    7445    7446    7447    7446
    7447    7447       0    7449    7450    7451    7450    7451    7451       0
    7453    7454    7455    7454    7455    7455       0    7457    7458    7459
    7458    7459    7459       0    7461    7462    7463    7462    7463    7463
       0    7465    7466    7467    7466    7467    7467       0    7469    7470
    7471    7470    7471    7471       0    7473    7474    7475    7474    7475
    7475       0    7477    7478    7479    7478    7479    7479       0    7481
    7482    7483    7482    7483    7483       0    7485    7486    7487    7486
    7487    7487       0    7489    7490    7491    7490    7491    7491       0
    7493    7494    7495    7494    7495    7495       0    7497    7498    7499
    7498    7499    7499       0    7501    7502    7503    7502    7503    7503
       0    7505    7506    7507    7506    7507    7507       0    7509    7510
    7511    7510    7511    7511       0    7513    7514    7515    7514    7515
    7515       0    7517    7518    7519    7518    7519    7519       0    7521
    7522    7523    7522    7523    7523       0    7525    7526    7527    7526
    7527    7527       0    7529    7530    7531    7530    7531    7531       0
    7533    7534    7535    7534    7535    7535       0    7537    7538    7539
    7538    7539    7539       0    7541    7542    7543    7542    7543    7543
       0    7545    7546    7547    7546    7547    7547       0    7549    7550
    7551    7550    7551    7551       0    7553    7554    7555    7554    7555
    7555       0    7557    7558    7559    7558    7559    7559       0    7561
    7562    7563    7562    7563    7563       0    7565    7566    7567    7566
    7567    7567       0    7569    7570    7571    7570    7571    7571       0
    7573    7574    7575    7574    7575    7575       0    7577    7578    7579
    7578    7579    7579       0    7581    7582    7583    7582    7583    7583
       0    7585    7586    7587    7586    7587    7587       0    7589    7590
    7591    7590    7591    7591       0    7593    7594    7595    7594    7595
    7595       0    7597    7598    7599    7598    7599    7599       0    7601
    7602    7603    7602    7603    7603       0    7605    7606    7607    7606
    7607    7607       0    7609    7610    7611    7610    7611    7611       0
    7613    7614    7615    7614    7615    7615       0    7617    7618    7619
    7618    7619    7619       0    7621    7622    7623    7622    7623    7623
       0    7625    7626    7627    7626    7627    7627       0    7629    7630
    7631    7630    7631    7631       0    7633    7634    7635    7634    7635
    7635       0    7637    7638    7639    7638    7639    7639       0    7641
    7642    7643    7642    7643    7643       0    7645    7646    7647    7646
    7647    7647       0    7649    7650    7651    7650    7651    7651       0
    7653    7654    7655    7654    7655    7655       0    7657    7658    7659
    7658    7659    7659       0    7661    7662    7663    7662    7663    7663
       0    7665    7666    7667    7666    7667    7667       0    7669    7670
    7671    7670    7671    7671       0    7673    7674    7675    7674    7675
    7675       0    7677    7678    7679    7678    7679    7679       0    7681
    7682    7683    7682    7683    7683       0    7685    7686    7687    7686
    7687    7687       0    7689    7690    7691    7690    7691    7691       0
    7693    7694    7695    7694    7695    7695       0    7697    7698    7699
    7698    7699    7699       0    7701    7702    7703    7702    7703    7703
       0    7705    7706    7707    7706    7707    7707       0    7709    7710
    7711    7710    7711    7711       0    7713    7714    7715    7714    7715
    7715       0    7717    7718    7719    7718    7719    7719       0    7721
    7722    7723    7722    7723    7723       0    7725    7726    7727    7726
    7727    7727       0    7729    7730    7731    7730    7731    7731       0
    7733    7734    7735    7734    7735    7735       0    7737    7738    7739
    7738    7739    7739       0    7741    7742    7743    7742    7743    7743
       0    7745    7746    7747    7746    7747    7747       0    7749    7750
    7751    7750    7751    7751       0    7753    7754    7755    7754    7755
    7755       0    7757    7758    7759    7758    7759    7759       0    7761
    7762    7763    7762    7763    7763       0    7765    7766    7767    7766
    7767    7767       0    7769    7770    7771    7770    7771    7771       0
    7773    7774    7775    7774    7775    7775       0    7777    7778    7779
    7778    7779    7779       0    7781    7782    7783    7782    7783    7783
       0    7785    7786    7787    7786    7787    7787       0    7789    7790
    7791    7790    7791    7791       0    7793    7794    7795    7794    7795
    7795       0    7797    7798    7799    7798    7799    7799       0    7801
    7802    7803    7802    7803    7803       0    7805    7806    7807    7806
    7807    7807       0    7809    7810    7811    7810    7811    7811       0
    7813    7814    7815    7814    7815    7815       0    7817    7818    7819
    7818    7819    7819       0    7821    7822    7823    7822    7823    7823
       0    7825    7826    7827    7826    7827    7827       0    7829    7830
    7831    7830    7831    7831       0    7833    7834    7835    7834    7835
    7835       0    7837    7838    7839    7838    7839    7839       0    7841
    7842    7843    7842    7843    7843       0    7845    7846    7847    7846
    7847    7847       0    7849    7850    7851    7850    7851    7851       0
    7853    7854    7855    7854    7855    7855       0    7857    7858    7859
    7858    7859    7859       0    7861    7862    7863    7862    7863    7863
       0    7865    7866    7867    7866    7867    7867       0    7869    7870
    7871    7870    7871    7871       0    7873    7874    7875    7874    7875
    7875       0    7877    7878    7879    7878    7879    7879       0    7881
    7882    7883    7882    7883    7883       0    7885    7886    7887    7886
    7887    7887       0    7889    7890    7891    7890    7891    7891       0
    7893    7894    7895    7894    7895    7895       0    7897    7898    7899
    7898    7899    7899       0    7901    7902    7903    7902    7903    7903
       0    7905    7906    7907    7906    7907    7907       0    7909    7910
    7911    7910    7911    7911       0    7913    7914    7915    7914    7915
    7915       0    7917    7918    7919    7918    7919    7919       0    7921
    7922    7923    7922    7923    7923       0    7925    7926    7927    7926
    7927    7927       0    7929    7930    7931    7930    7931    7931       0
    7933    7934    7935    7934    7935    7935       0    7937    7938    7939
    7938    7939    7939       0    7941    7942    7943    7942    7943    7943
       0    7945    7946    7947    7946    7947    7947       0    7949    7950
    7951    7950    7951    7951       0    7953    7954    7955    7954    7955
    7955       0    7957    7958    7959    7958    7959    7959       0    7961
    7962    7963    7962    7963    7963       0    7965    7966    7967    7966
    7967    7967       0    7969    7970    7971    7970    7971    7971       0
    7973    7974    7975    7974    7975    7975       0    7977    7978    7979
    7978    7979    7979       0    7981    7982    7983    7982    7983    7983
       0    7985    7986    7987    7986    7987    7987       0    7989    7990
    7991    7990    7991    7991       0    7993    7994    7995    7994    7995
    7995       0    7997    7998    7999    7998    7999    7999       0    8001
    8002    8003    8002    8003    8003       0    8005    8006    8007    8006
    8007    8007       0    8009    8010    8011    8010    8011    8011       0
    8013    8014    8015    8014    8015    8015       0    8017    8018    8019
    8018    8019    8019       0    8021    8022    8023    8022    8023    8023
       0    8025    8026    8027    8026    8027    8027       0    8029    8030
    8031    8030    8031    8031       0    8033    8034    8035    8034    8035
    8035       0    8037    8038    8039    8038    8039    8039       0    8041
    8042    8043    8042    8043    8043       0    8045    8046    8047    8046
    8047    8047       0    8049    8050    8051    8050    8051    8051       0
    8053    8054    8055    8054    8055    8055       0    8057    8058    8059
    8058    8059    8059       0    8061    8062    8063    8062    8063    8063
       0    8065    8066    8067    8066    8067    8067       0    8069    8070
    8071    8070    8071    8071       0    8073    8074    8075    8074    8075
    8075       0    8077    8078    8079    8078    8079    8079       0    8081
    8082    8083    8082    8083    8083       0    8085    8086    8087    8086
    8087    8087       0    8089    8090    8091    8090    8091    8091       0
    8093    8094    8095    8094    8095    8095       0    8097    8098    8099
    8098    8099    8099       0    8101    8102    8103    8102    8103    8103
       0    8105    8106    8107    8106    8107    8107       0    8109    8110
    8111    8110    8111    8111       0    8113    8114    8115    8114    8115
    8115       0    8117    8118    8119    8118    8119    8119       0    8121
    8122    8123    8122    8123    8123       0    8125    8126    8127    8126
    8127    8127       0    8129    8130    8131    8130    8131    8131       0
    8133    8134    8135    8134    8135    8135       0    8137    8138    8139
    8138    8139    8139       0    8141    8142    8143    8142    8143    8143
       0    8145    8146    8147    8146    8147    8147       0    8149    8150
    8151    8150    8151    8151       0    8153    8154    8155    8154    8155
    8155       0    8157    8158    8159    8158    8159    8159       0    8161
    8162    8163    8162    8163    8163       0    8165    8166    8167    8166
    8167    8167       0    8169    8170    8171    8170    8171    8171       0
    8173    8174    8175    8174    8175    8175       0    8177    8178    8179
    8178    8179    8179       0    8181    8182    8183    8182    8183    8183
       0    8185    8186    8187    8186    8187    8187       0    8189    8190
    8191    8190    8191    8191       0    8193    8194    8195    8194    8195
    8195       0    8197    8198    8199    8198    8199    8199       0    8201
    8202    8203    8202    8203    8203       0    8205    8206    8207    8206
    8207    8207       0    8209    8210    8211    8210    8211    8211       0
    8213    8214    8215    8214    8215    8215       0    8217    8218    8219
    8218    8219    8219       0    8221    8222    8223    8222    8223    8223
       0    8225    8226    8227    8226    8227    8227       0    8229    8230
    8231    8230    8231    8231       0    8233    8234    8235    8234    8235
    8235       0    8237    8238    8239    8238    8239    8239       0    8241
    8242    8243    8242    8243    8243       0    8245    8246    8247    8246
    8247    8247       0    8249    8250    8251    8250    8251    8251       0
    8253    8254    8255    8254    8255    8255       0    8257    8258    8259
    8258    8259    8259       0    8261    8262    8263    8262    8263    8263
       0    8265    8266    8267    8266    8267    8267       0    8269    8270
    8271    8270    8271    8271       0    8273    8274    8275    8274    8275
    8275       0    8277    8278    8279    8278    8279    8279       0    8281
    8282    8283    8282    8283    8283       0    8285    8286    8287    8286
    8287    8287       0    8289    8290    8291    8290    8291    8291       0
    8293    8294    8295    8294    8295    8295       0    8297    8298    8299
    8298    8299    8299       0    8301    8302    8303    8302    8303    8303
       0    8305    8306    8307    8306    8307    8307       0    8309    8310
    8311    8310    8311    8311       0    8313    8314    8315    8314    8315
    8315       0    8317    8318    8319    8318    8319    8319       0    8321
    8322    8323    8322    8323    8323       0    8325    8326    8327    8326
    8327    8327       0    8329    8330    8331    8330    8331    8331       0
    8333    8334    8335    8334    8335    8335       0    8337    8338    8339
    8338    8339    8339       0    8341    8342    8343    8342    8343    8343
       0    8345    8346    8347    8346    8347    8347       0    8349    8350
    8351    8350    8351    8351       0    8353    8354    8355    8354    8355
    8355       0    8357    8358    8359    8358    8359    8359       0    8361
    8362    8363    8362    8363    8363       0    8365    8366    8367    8366
    8367    8367       0    8369    8370    8371    8370    8371    8371       0
    8373    8374    8375    8374    8375    8375       0    8377    8378    8379
    8378    8379    8379       0    8381    8382    8383    8382    8383    8383
       0    8385    8386    8387    8386    8387    8387       0    8389    8390
    8391    8390    8391    8391       0    8393    8394    8395    8394    8395
    8395       0    8397    8398    8399    8398    8399    8399       0    8401
    8402    8403    8402    8403    8403       0    8405    8406    8407    8406
    8407    8407       0    8409    8410    8411    8410    8411    8411       0
    8413    8414    8415    8414    8415    8415       0    8417    8418    8419
    8418    8419    8419       0    8421    8422    8423    8422    8423    8423
       0    8425    8426    8427    8426    8427    8427       0    8429    8430
    8431    8430    8431    8431       0    8433    8434    8435    8434    8435
    8435       0    8437    8438    8439    8438    8439    8439       0    8441
    8442    8443    8442    8443    8443       0    8445    8446    8447    8446
    8447    8447       0    8449    8450    8451    8450    8451    8451       0
    8453    8454    8455    8454    8455    8455       0    8457    8458    8459
    8458    8459    8459       0    8461    8462    8463    8462    8463    8463
       0    8465    8466    8467    8466    8467    8467       0    8469    8470
    8471    8470    8471    8471       0    8473    8474    8475    8474    8475
    8475       0    8477    8478    8479    8478    8479    8479       0    8481
    8482    8483    8482    8483    8483       0    8485    8486    8487    8486
    8487    8487       0    8489    8490    8491    8490    8491    8491       0
    8493    8494    8495    8494    8495    8495       0    8497    8498    8499
    8498    8499    8499       0    8501    8502    8503    8502    8503    8503
       0    8505    8506    8507    8506    8507    8507       0    8509    8510
    8511    8510    8511    8511       0    8513    8514    8515    8514    8515
    8515       0    8517    8518    8519    8518    8519    8519       0    8521
    8522    8523    8522    8523    8523       0    8525    8526    8527    8526
    8527    8527       0    8529    8530    8531    8530    8531    8531       0
    8533    8534    8535    8534    8535    8535       0    8537    8538    8539
    8538    8539    8539       0    8541    8542    8543    8542    8543    8543
       0    8545    8546    8547    8546    8547    8547       0    8549    8550
    8551    8550    8551    8551       0    8553    8554    8555    8554    8555
    8555       0    8557    8558    8559    8558    8559    8559       0    8561
    8562    8563    8562    8563    8563       0    8565    8566    8567    8566
    8567    8567       0    8569    8570    8571    8570    8571    8571       0
    8573    8574    8575    8574    8575    8575       0    8577    8578    8579
    8578    8579    8579       0    8581    8582    8583    8582    8583    8583
       0    8585    8586    8587    8586    8587    8587       0    8589    8590
    8591    8590    8591    8591       0    8593    8594    8595    8594    8595
    8595       0    8597    8598    8599    8598    8599    8599       0    8601
    8602    8603    8602    8603    8603       0    8605    8606    8607    8606
    8607    8607       0    8609    8610    8611    8610    8611    8611       0
    8613    8614    8615    8614    8615    8615       0    8617    8618    8619
    8618    8619    8619       0    8621    8622    8623    8622    8623    8623
       0    8625    8626    8627    8626    8627    8627       0    8629    8630
    8631    8630    8631    8631       0    8633    8634    8635    8634    8635
    8635       0    8637    8638    8639    8638    8639    8639       0    8641
    8642    8643    8642    8643    8643       0    8645    8646    8647    8646
    8647    8647       0    8649    8650    8651    8650    8651    8651       0
    8653    8654    8655    8654    8655    8655       0    8657    8658    8659
    8658    8659    8659       0    8661    8662    8663    8662    8663    8663
       0    8665    8666    8667    8666    8667    8667       0    8669    8670
    8671    8670    8671    8671       0    8673    8674    8675    8674    8675
    8675       0    8677    8678    8679    8678    8679    8679       0    8681
    8682    8683    8682    8683    8683       0    8685    8686    8687    8686
    8687    8687       0    8689    8690    8691    8690    8691    8691       0
    8693    8694    8695    8694    8695    8695       0    8697    8698    8699
    8698    8699    8699       0    8701    8702    8703    8702    8703    8703
       0    8705    8706    8707    8706    8707    8707       0    8709    8710
    8711    8710    8711    8711       0    8713    8714    8715    8714    8715
    8715       0    8717    8718    8719    8718    8719    8719       0    8721
    8722    8723    8722    8723    8723       0    8725    8726    8727    8726
    8727    8727       0    8729    8730    8731    8730    8731    8731       0
    8733    8734    8735    8734    8735    8735       0    8737    8738    8739
    8738    8739    8739       0    8741    8742    8743    8742    8743    8743
       0    8745    8746    8747    8746    8747    8747       0    8749    8750
    8751    8750    8751    8751       0    8753    8754    8755    8754    8755
    8755       0    8757    8758    8759    8758    8759    8759       0    8761
    8762    8763    8762    8763    8763       0    8765    8766    8767    8766
    8767    8767       0    8769    8770    8771    8770    8771    8771       0
    8773    8774    8775    8774    8775    8775       0    8777    8778    8779
    8778    8779    8779       0    8781    8782    8783    8782    8783    8783
       0    8785    8786    8787    8786    8787    8787       0    8789    8790
    8791    8790    8791    8791       0    8793    8794    8795    8794    8795
    8795       0    8797    8798    8799    8798    8799    8799       0    8801
    8802    8803    8802    8803    8803       0    8805    8806    8807    8806
    8807    8807       0    8809    8810    8811    8810    8811    8811       0
    8813    8814    8815    8814    8815    8815       0    8817    8818    8819
    8818    8819    8819       0    8821    8822    8823    8822    8823    8823
       0    8825    8826    8827    8826    8827    8827       0    8829    8830
    8831    8830    8831    8831       0    8833    8834    8835    8834    8835
    8835       0    8837    8838    8839    8838    8839    8839       0    8841
    8842    8843    8842    8843    8843       0    8845    8846    8847    8846
    8847    8847       0    8849    8850    8851    8850    8851    8851       0
    8853    8854    8855    8854    8855    8855       0    8857    8858    8859
    8858    8859    8859       0    8861    8862    8863    8862    8863    8863
       0    8865    8866    8867    8866    8867    8867       0    8869    8870
    8871    8870    8871    8871       0    8873    8874    8875    8874    8875
    8875       0    8877    8878    8879    8878    8879    8879       0    8881
    8882    8883    8882    8883    8883       0    8885    8886    8887    8886
    8887    8887       0    8889    8890    8891    8890    8891    8891       0
    8893    8894    8895    8894    8895    8895       0    8897    8898    8899
    8898    8899    8899       0    8901    8902    8903    8902    8903    8903
       0    8905    8906    8907    8906    8907    8907       0    8909    8910
    8911    8910    8911    8911       0    8913    8914    8915    8914    8915
    8915       0    8917    8918    8919    8918    8919    8919       0    8921
    8922    8923    8922    8923    8923       0    8925    8926    8927    8926
    8927    8927       0    8929    8930    8931    8930    8931    8931       0
    8933    8934    8935    8934    8935    8935       0    8937    8938    8939
    8938    8939    8939       0    8941    8942    8943    8942    8943    8943
       0    8945    8946    8947    8946    8947    8947       0    8949    8950
    8951    8950    8951    8951       0    8953    8954    8955    8954    8955
    8955       0    8957    8958    8959    8958    8959    8959       0    8961
    8962    8963    8962    8963    8963       0    8965    8966    8967    8966
    8967    8967       0    8969    8970    8971    8970    8971    8971       0
    8973    8974    8975    8974    8975    8975       0    8977    8978    8979
    8978    8979    8979       0    8981    8982    8983    8982    8983    8983
       0    8985    8986    8987    8986    8987    8987       0    8989    8990
    8991    8990    8991    8991       0    8993    8994    8995    8994    8995
    8995       0    8997    8998    8999    8998    8999    8999       0    9001
    9002    9003    9002    9003    9003       0    9005    9006    9007    9006
    9007    9007       0    9009    9010    9011    9010    9011    9011       0
    9013    9014    9015    9014    9015    9015       0    9017    9018    9019
    9018    9019    9019       0    9021    9022    9023    9022    9023    9023
       0    9025    9026    9027    9026    9027    9027       0    9029    9030
    9031    9030    9031    9031       0    9033    9034    9035    9034    9035
    9035       0    9037    9038    9039    9038    9039    9039       0    9041
    9042    9043    9042    9043    9043       0    9045    9046    9047    9046
    9047    9047       0    9049    9050    9051    9050    9051    9051       0
    9053    9054    9055    9054    9055    9055       0    9057    9058    9059
    9058    9059    9059       0    9061    9062    9063    9062    9063    9063
       0    9065    9066    9067    9066    9067    9067       0    9069    9070
    9071    9070    9071    9071       0    9073    9074    9075    9074    9075
    9075       0    9077    9078    9079    9078    9079    9079       0    9081
    9082    9083    9082    9083    9083       0    9085    9086    9087    9086
    9087    9087       0    9089    9090    9091    9090    9091    9091       0
    9093    9094    9095    9094    9095    9095       0    9097    9098    9099
    9098    9099    9099       0    9101    9102    9103    9102    9103    9103
       0    9105    9106    9107    9106    9107    9107       0    9109    9110
    9111    9110    9111    9111       0    9113    9114    9115    9114    9115
    9115       0    9117    9118    9119    9118    9119    9119       0    9121
    9122    9123    9122    9123    9123       0    9125    9126    9127    9126
    9127    9127       0    9129    9130    9131    9130    9131    9131       0
    9133    9134    9135    9134    9135    9135       0    9137    9138    9139
    9138    9139    9139       0    9141    9142    9143    9142    9143    9143
       0    9145    9146    9147    9146    9147    9147       0    9149    9150
    9151    9150    9151    9151       0    9153    9154    9155    9154    9155
    9155       0    9157    9158    9159    9158    9159    9159       0    9161
    9162    9163    9162    9163    9163       0    9165    9166    9167    9166
    9167    9167       0    9169    9170    9171    9170    9171    9171       0
    9173    9174    9175    9174    9175    9175       0    9177    9178    9179
    9178    9179    9179       0    9181    9182    9183    9182    9183    9183
       0    9185    9186    9187    9186    9187    9187       0    9189    9190
    9191    9190    9191    9191       0    9193    9194    9195    9194    9195
    9195       0    9197    9198    9199    9198    9199    9199       0    9201
    9202    9203    9202    9203    9203       0    9205    9206    9207    9206
    9207    9207       0    9209    9210    9211    9210    9211    9211       0
    9213    9214    9215    9214    9215    9215       0    9217    9218    9219
    9218    9219    9219       0    9221    9222    9223    9222    9223    9223
       0    9225    9226    9227    9226    9227    9227       0    9229    9230
    9231    9230    9231    9231       0    9233    9234    9235    9234    9235
    9235       0    9237    9238    9239    9238    9239    9239       0    9241
    9242    9243    9242    9243    9243       0    9245    9246    9247    9246
    9247    9247       0    9249    9250    9251    9250    9251    9251       0
    9253    9254    9255    9254    9255    9255       0    9257    9258    9259
    9258    9259    9259       0    9261    9262    9263    9262    9263    9263
       0    9265    9266    9267    9266    9267    9267       0    9269    9270
    9271    9270    9271    9271       0    9273    9274    9275    9274    9275
    9275       0    9277    9278    9279    9278    9279    9279       0    9281
    9282    9283    9282    9283    9283       0    9285    9286    9287    9286
    9287    9287       0    9289    9290    9291    9290    9291    9291       0
    9293    9294    9295    9294    9295    9295       0    9297    9298    9299
    9298    9299    9299       0    9301    9302    9303    9302    9303    9303
       0    9305    9306    9307    9306    9307    9307       0    9309    9310
    9311    9310    9311    9311       0    9313    9314    9315    9314    9315
    9315       0    9317    9318    9319    9318    9319    9319       0    9321
    9322    9323    9322    9323    9323       0    9325    9326    9327    9326
    9327    9327       0    9329    9330    9331    9330    9331    9331       0
    9333    9334    9335    9334    9335    9335       0    9337    9338    9339
    9338    9339    9339       0    9341    9342    9343    9342    9343    9343
       0    9345    9346    9347    9346    9347    9347       0    9349    9350
    9351    9350    9351    9351       0    9353    9354    9355    9354    9355
    9355       0    9357    9358    9359    9358    9359    9359       0    9361
    9362    9363    9362    9363    9363       0    9365    9366    9367    9366
    9367    9367       0    9369    9370    9371    9370    9371    9371       0
    9373    9374    9375    9374    9375    9375       0    9377    9378    9379
    9378    9379    9379       0    9381    9382    9383    9382    9383    9383
       0    9385    9386    9387    9386    9387    9387       0    9389    9390
    9391    9390    9391    9391       0    9393    9394    9395    9394    9395
    9395       0    9397    9398    9399    9398    9399    9399       0    9401
    9402    9403    9402    9403    9403       0    9405    9406    9407    9406
    9407    9407       0    9409    9410    9411    9410    9411    9411       0
    9413    9414    9415    9414    9415    9415       0    9417    9418    9419
    9418    9419    9419       0    9421    9422    9423    9422    9423    9423
       0    9425    9426    9427    9426    9427    9427       0    9429    9430
    9431    9430    9431    9431       0    9433    9434    9435    9434    9435
    9435       0    9437    9438    9439    9438    9439    9439       0    9441
    9442    9443    9442    9443    9443       0    9445    9446    9447    9446
    9447    9447       0    9449    9450    9451    9450    9451    9451       0
    9453    9454    9455    9454    9455    9455       0    9457    9458    9459
    9458    9459    9459       0    9461    9462    9463    9462    9463    9463
       0    9465    9466    9467    9466    9467    9467       0    9469    9470
    9471    9470    9471    9471       0    9473    9474    9475    9474    9475
    9475       0    9477    9478    9479    9478    9479    9479       0    9481
    9482    9483    9482    9483    9483       0    9485    9486    9487    9486
    9487    9487       0    9489    9490    9491    9490    9491    9491       0
    9493    9494    9495    9494    9495    9495       0    9497    9498    9499
    9498    9499    9499       0    9501    9502    9503    9502    9503    9503
       0    9505    9506    9507    9506    9507    9507       0    9509    9510
    9511    9510    9511    9511       0    9513    9514    9515    9514    9515
    9515       0    9517    9518    9519    9518    9519    9519       0    9521
    9522    9523    9522    9523    9523       0    9525    9526    9527    9526
    9527    9527       0    9529    9530    9531    9530    9531    9531       0
    9533    9534    9535    9534    9535    9535       0    9537    9538    9539
    9538    9539    9539       0    9541    9542    9543    9542    9543    9543
       0    9545    9546    9547    9546    9547    9547       0    9549    9550
    9551    9550    9551    9551       0    9553    9554    9555    9554    9555
    9555       0    9557    9558    9559    9558    9559    9559       0    9561
    9562    9563    9562    9563    9563       0    9565    9566    9567    9566
    9567    9567       0    9569    9570    9571    9570    9571    9571       0
    9573    9574    9575    9574    9575    9575       0    9577    9578    9579
    9578    9579    9579       0    9581    9582    9583    9582    9583    9583
       0    9585    9586    9587    9586    9587    9587       0    9589    9590
    9591    9590    9591    9591       0    9593    9594    9595    9594    9595
    9595       0    9597    9598    9599    9598    9599    9599       0    9601
    9602    9603    9602    9603    9603       0    9605    9606    9607    9606
    9607    9607       0    9609    9610    9611    9610    9611    9611       0
    9613    9614    9615    9614    9615    9615       0    9617    9618    9619
    9618    9619    9619       0    9621    9622    9623    9622    9623    9623
       0    9625    9626    9627    9626    9627    9627       0    9629    9630
    9631    9630    9631    9631       0    9633    9634    9635    9634    9635
    9635       0    9637    9638    9639    9638    9639    9639       0    9641
    9642    9643    9642    9643    9643       0    9645    9646    9647    9646
    9647    9647       0    9649    9650    9651    9650    9651    9651       0
    9653    9654    9655    9654    9655    9655       0    9657    9658    9659
    9658    9659    9659       0    9661    9662    9663    9662    9663    9663
       0    9665    9666    9667    9666    9667    9667       0    9669    9670
    9671    9670    9671    9671       0    9673    9674    9675    9674    9675
    9675       0    9677    9678    9679    9678    9679    9679       0    9681
    9682    9683    9682    9683    9683       0    9685    9686    9687    9686
    9687    9687       0    9689    9690    9691    9690    9691    9691       0
    9693    9694    9695    9694    9695    9695       0    9697    9698    9699
    9698    9699    9699       0    9701    9702    9703    9702    9703    9703
       0    9705    9706    9707    9706    9707    9707       0    9709    9710
    9711    9710    9711    9711       0    9713    9714    9715    9714    9715
    9715       0    9717    9718    9719    9718    9719    9719       0    9721
    9722    9723    9722    9723    9723       0    9725    9726    9727    9726
    9727    9727       0    9729    9730    9731    9730    9731    9731       0
    9733    9734    9735    9734    9735    9735       0    9737    9738    9739
    9738    9739    9739       0    9741    9742    9743    9742    9743    9743
       0    9745    9746    9747    9746    9747    9747       0    9749    9750
    9751    9750    9751    9751       0    9753    9754    9755    9754    9755
    9755       0    9757    9758    9759    9758    9759    9759       0    9761
    9762    9763    9762    9763    9763       0    9765    9766    9767    9766
    9767    9767       0    9769    9770    9771    9770    9771    9771       0
    9773    9774    9775    9774    9775    9775       0    9777    9778    9779
    9778    9779    9779       0    9781    9782    9783    9782    9783    9783
       0    9785    9786    9787    9786    9787    9787       0    9789    9790
    9791    9790    9791    9791       0    9793    9794    9795    9794    9795
    9795       0    9797    9798    9799    9798    9799    9799       0    9801
    9802    9803    9802    9803    9803       0    9805    9806    9807    9806
    9807    9807       0    9809    9810    9811    9810    9811    9811       0
    9813    9814    9815    9814    9815    9815       0    9817    9818    9819
    9818    9819    9819       0    9821    9822    9823    9822    9823    9823
       0    9825    9826    9827    9826    9827    9827       0    9829    9830
    9831    9830    9831    9831       0    9833    9834    9835    9834    9835
    9835       0    9837    9838    9839    9838    9839    9839       0    9841
    9842    9843    9842    9843    9843       0    9845    9846    9847    9846
    9847    9847       0    9849    9850    9851    9850    9851    9851       0
    9853    9854    9855    9854    9855    9855       0    9857    9858    9859
    9858    9859    9859       0    9861    9862    9863    9862    9863    9863
       0    9865    9866    9867    9866    9867    9867       0    9869    9870
    9871    9870    9871    9871       0    9873    9874    9875    9874    9875
    9875       0    9877    9878    9879    9878    9879    9879       0    9881
    9882    9883    9882    9883    9883       0    9885    9886    9887    9886
    9887    9887       0    9889    9890    9891    9890    9891    9891       0
    9893    9894    9895    9894    9895    9895       0    9897    9898    9899
    9898    9899    9899       0    9901    9902    9903    9902    9903    9903
       0    9905    9906    9907    9906    9907    9907       0    9909    9910
    9911    9910    9911    9911       0    9913    9914    9915    9914    9915
    9915       0    9917    9918    9919    9918    9919    9919       0    9921
    9922    9923    9922    9923    9923       0    9925    9926    9927    9926
    9927    9927       0    9929    9930    9931    9930    9931    9931       0
    9933    9934    9935    9934    9935    9935       0    9937    9938    9939
    9938    9939    9939       0    9941    9942    9943    9942    9943    9943
       0    9945    9946    9947    9946    9947    9947       0    9949    9950
    9951    9950    9951    9951       0    9953    9954    9955    9954    9955
    9955       0    9957    9958    9959    9958    9959    9959       0    9961
    9962    9963    9962    9963    9963       0    9965    9966    9967    9966
    9967    9967       0    9969    9970    9971    9970    9971    9971       0
    9973    9974    9975    9974    9975    9975       0    9977    9978    9979
    9978    9979    9979       0    9981    9982    9983    9982    9983    9983
       0    9985    9986    9987    9986    9987    9987       0    9989    9990
    9991    9990    9991    9991       0    9993    9994    9995    9994    9995
    9995       0    9997    9998    9999    9998    9999    9999       0   10001
   10002   10003   10002   10003   10003       0   10005   10006   10007   10006
   10007   10007       0   10009   10010   10011   10010   10011   10011       0
   10013   10014   10015   10014   10015   10015       0   10017   10018   10019
   10018   10019   10019       0   10021   10022   10023   10022   10023   10023
       0   10025   10026   10027   10026   10027   10027       0   10029   10030
   10031   10030   10031   10031       0   10033   10034   10035   10034   10035
   10035       0   10037   10038   10039   10038   10039   10039       0   10041
   10042   10043   10042   10043   10043       0   10045   10046   10047   10046
   10047   10047       0   10049   10050   10051   10050   10051   10051       0
   10053   10054   10055   10054   10055   10055       0   10057   10058   10059
   10058   10059   10059       0   10061   10062   10063   10062   10063   10063
       0   10065   10066   10067   10066   10067   10067       0   10069   10070
   10071   10070   10071   10071       0   10073   10074   10075   10074   10075
   10075       0   10077   10078   10079   10078   10079   10079       0   10081
   10082   10083   10082   10083   10083       0   10085   10086   10087   10086
   10087   10087       0   10089   10090   10091   10090   10091   10091       0
   10093   10094   10095   10094   10095   10095       0   10097   10098   10099
   10098   10099   10099       0   10101   10102   10103   10102   10103   10103
       0   10105   10106   10107   10106   10107   10107       0   10109   10110
   10111   10110   10111   10111       0   10113   10114   10115   10114   10115
   10115       0   10117   10118   10119   10118   10119   10119       0   10121
   10122   10123   10122   10123   10123       0   10125   10126   10127   10126
   10127   10127       0   10129   10130   10131   10130   10131   10131       0
   10133   10134   10135   10134   10135   10135       0   10137   10138   10139
   10138   10139   10139       0   10141   10142   10143   10142   10143   10143
       0   10145   10146   10147   10146   10147   10147       0   10149   10150
   10151   10150   10151   10151       0   10153   10154   10155   10154   10155
   10155       0   10157   10158   10159   10158   10159   10159       0   10161
   10162   10163   10162   10163   10163       0   10165   10166   10167   10166
   10167   10167       0   10169   10170   10171   10170   10171   10171       0
   10173   10174   10175   10174   10175   10175       0   10177   10178   10179
   10178   10179   10179       0   10181   10182   10183   10182   10183   10183
       0   10185   10186   10187   10186   10187   10187       0   10189   10190
   10191   10190   10191   10191       0   10193   10194   10195   10194   10195
   10195       0   10197   10198   10199   10198   10199   10199       0   10201
   10202   10203   10202   10203   10203       0   10205   10206   10207   10206
   10207   10207       0   10209   10210   10211   10210   10211   10211       0
   10213   10214   10215   10214   10215   10215       0   10217   10218   10219
   10218   10219   10219       0   10221   10222   10223   10222   10223   10223
       0   10225   10226   10227   10226   10227   10227       0   10229   10230
   10231   10230   10231   10231       0   10233   10234   10235   10234   10235
   10235       0   10237   10238   10239   10238   10239   10239       0   10241
   10242   10243   10242   10243   10243       0   10245   10246   10247   10246
   10247   10247       0   10249   10250   10251   10250   10251   10251       0
   10253   10254   10255   10254   10255   10255       0   10257   10258   10259
   10258   10259   10259       0   10261   10262   10263   10262   10263   10263
       0   10265   10266   10267   10266   10267   10267       0   10269   10270
   10271   10270   10271   10271       0   10273   10274   10275   10274   10275
   10275       0   10277   10278   10279   10278   10279   10279       0   10281
   10282   10283   10282   10283   10283       0   10285   10286   10287   10286
   10287   10287       0   10289   10290   10291   10290   10291   10291       0
   10293   10294   10295   10294   10295   10295       0   10297   10298   10299
   10298   10299   10299       0   10301   10302   10303   10302   10303   10303
       0   10305   10306   10307   10306   10307   10307       0   10309   10310
   10311   10310   10311   10311       0   10313   10314   10315   10314   10315
   10315       0   10317   10318   10319   10318   10319   10319       0   10321
   10322   10323   10322   10323   10323       0   10325   10326   10327   10326
   10327   10327       0   10329   10330   10331   10330   10331   10331       0
   10333   10334   10335   10334   10335   10335       0   10337   10338   10339
   10338   10339   10339       0   10341   10342   10343   10342   10343   10343
       0   10345   10346   10347   10346   10347   10347       0   10349   10350
   10351   10350   10351   10351       0   10353   10354   10355   10354   10355
   10355       0   10357   10358   10359   10358   10359   10359       0   10361
   10362   10363   10362   10363   10363       0   10365   10366   10367   10366
   10367   10367       0   10369   10370   10371   10370   10371   10371       0
   10373   10374   10375   10374   10375   10375       0   10377   10378   10379
   10378   10379   10379       0   10381   10382   10383   10382   10383   10383
       0   10385   10386   10387   10386   10387   10387       0   10389   10390
   10391   10390   10391   10391       0   10393   10394   10395   10394   10395
   10395       0   10397   10398   10399   10398   10399   10399       0   10401
   10402   10403   10402   10403   10403       0   10405   10406   10407   10406
   10407   10407       0   10409   10410   10411   10410   10411   10411       0
   10413   10414   10415   10414   10415   10415       0   10417   10418   10419
   10418   10419   10419       0   10421   10422   10423   10422   10423   10423
       0   10425   10426   10427   10426   10427   10427       0   10429   10430
   10431   10430   10431   10431       0   10433   10434   10435   10434   10435
   10435       0   10437   10438   10439   10438   10439   10439       0   10441
   10442   10443   10442   10443   10443       0   10445   10446   10447   10446
   10447   10447       0   10449   10450   10451   10450   10451   10451       0
   10453   10454   10455   10454   10455   10455       0   10457   10458   10459
   10458   10459   10459       0   10461   10462   10463   10462   10463   10463
       0   10465   10466   10467   10466   10467   10467       0   10469   10470
   10471   10470   10471   10471       0   10473   10474   10475   10474   10475
   10475       0   10477   10478   10479   10478   10479   10479       0   10481
   10482   10483   10482   10483   10483       0   10485   10486   10487   10486
   10487   10487       0   10489   10490   10491   10490   10491   10491       0
   10493   10494   10495   10494   10495   10495       0   10497   10498   10499
   10498   10499   10499       0   10501   10502   10503   10502   10503   10503
       0   10505   10506   10507   10506   10507   10507       0   10509   10510
   10511   10510   10511   10511       0   10513   10514   10515   10514   10515
   10515       0   10517   10518   10519   10518   10519   10519       0   10521
   10522   10523   10522   10523   10523       0   10525   10526   10527   10526
   10527   10527       0   10529   10530   10531   10530   10531   10531       0
   10533   10534   10535   10534   10535   10535       0   10537   10538   10539
   10538   10539   10539       0   10541   10542   10543   10542   10543   10543
       0   10545   10546   10547   10546   10547   10547       0   10549   10550
   10551   10550   10551   10551       0   10553   10554   10555   10554   10555
   10555       0   10557   10558   10559   10558   10559   10559       0   10561
   10562   10563   10562   10563   10563       0   10565   10566   10567   10566
   10567   10567       0   10569   10570   10571   10570   10571   10571       0
   10573   10574   10575   10574   10575   10575       0   10577   10578   10579
   10578   10579   10579       0   10581   10582   10583   10582   10583   10583
       0   10585   10586   10587   10586   10587   10587       0   10589   10590
   10591   10590   10591   10591       0   10593   10594   10595   10594   10595
   10595       0   10597   10598   10599   10598   10599   10599       0   10601
   10602   10603   10602   10603   10603       0   10605   10606   10607   10606
   10607   10607       0   10609   10610   10611   10610   10611   10611       0
   10613   10614   10615   10614   10615   10615       0   10617   10618   10619
   10618   10619   10619       0   10621   10622   10623   10622   10623   10623
       0   10625   10626   10627   10626   10627   10627       0   10629   10630
   10631   10630   10631   10631       0   10633   10634   10635   10634   10635
   10635       0   10637   10638   10639   10638   10639   10639       0   10641
   10642   10643   10642   10643   10643       0   10645   10646   10647   10646
   10647   10647       0   10649   10650   10651   10650   10651   10651       0
   10653   10654   10655   10654   10655   10655       0   10657   10658   10659
   10658   10659   10659       0   10661   10662   10663   10662   10663   10663
       0   10665   10666   10667   10666   10667   10667       0   10669   10670
   10671   10670   10671   10671       0   10673   10674   10675   10674   10675
   10675       0   10677   10678   10679   10678   10679   10679       0   10681
   10682   10683   10682   10683   10683       0   10685   10686   10687   10686
   10687   10687       0   10689   10690   10691   10690   10691   10691       0
   10693   10694   10695   10694   10695   10695       0   10697   10698   10699
   10698   10699   10699       0   10701   10702   10703   10702   10703   10703
       0   10705   10706   10707   10706   10707   10707       0   10709   10710
   10711   10710   10711   10711       0   10713   10714   10715   10714   10715
   10715       0   10717   10718   10719   10718   10719   10719       0   10721
   10722   10723   10722   10723   10723       0   10725   10726   10727   10726
   10727   10727       0   10729   10730   10731   10730   10731   10731       0
   10733   10734   10735   10734   10735   10735       0   10737   10738   10739
   10738   10739   10739       0   10741   10742   10743   10742   10743   10743
       0   10745   10746   10747   10746   10747   10747       0   10749   10750
   10751   10750   10751   10751       0   10753   10754   10755   10754   10755
   10755       0   10757   10758   10759   10758   10759   10759       0   10761
   10762   10763   10762   10763   10763       0   10765   10766   10767   10766
   10767   10767       0   10769   10770   10771   10770   10771   10771       0
   10773   10774   10775   10774   10775   10775       0   10777   10778   10779
   10778   10779   10779       0   10781   10782   10783   10782   10783   10783
       0   10785   10786   10787   10786   10787   10787       0   10789   10790
   10791   10790   10791   10791       0   10793   10794   10795   10794   10795
   10795       0   10797   10798   10799   10798   10799   10799       0   10801
   10802   10803   10802   10803   10803       0   10805   10806   10807   10806
   10807   10807       0   10809   10810   10811   10810   10811   10811       0
   10813   10814   10815   10814   10815   10815       0   10817   10818   10819
   10818   10819   10819       0   10821   10822   10823   10822   10823   10823
       0   10825   10826   10827   10826   10827   10827       0   10829   10830
   10831   10830   10831   10831       0   10833   10834   10835   10834   10835
   10835       0   10837   10838   10839   10838   10839   10839       0   10841
   10842   10843   10842   10843   10843       0   10845   10846   10847   10846
   10847   10847       0   10849   10850   10851   10850   10851   10851       0
   10853   10854   10855   10854   10855   10855       0   10857   10858   10859
   10858   10859   10859       0   10861   10862   10863   10862   10863   10863
       0   10865   10866   10867   10866   10867   10867       0   10869   10870
   10871   10870   10871   10871       0   10873   10874   10875   10874   10875
   10875       0   10877   10878   10879   10878   10879   10879       0   10881
   10882   10883   10882   10883   10883       0   10885   10886   10887   10886
   10887   10887       0   10889   10890   10891   10890   10891   10891       0
   10893   10894   10895   10894   10895   10895       0   10897   10898   10899
   10898   10899   10899       0   10901   10902   10903   10902   10903   10903
       0   10905   10906   10907   10906   10907   10907       0   10909   10910
   10911   10910   10911   10911       0   10913   10914   10915   10914   10915
   10915       0   10917   10918   10919   10918   10919   10919       0   10921
   10922   10923   10922   10923   10923       0   10925   10926   10927   10926
   10927   10927       0   10929   10930   10931   10930   10931   10931       0
   10933   10934   10935   10934   10935   10935       0   10937   10938   10939
   10938   10939   10939       0   10941   10942   10943   10942   10943   10943
       0   10945   10946   10947   10946   10947   10947       0   10949   10950
   10951   10950   10951   10951       0   10953   10954   10955   10954   10955
   10955       0   10957   10958   10959   10958   10959   10959       0   10961
   10962   10963   10962   10963   10963       0   10965   10966   10967   10966
   10967   10967       0   10969   10970   10971   10970   10971   10971       0
   10973   10974   10975   10974   10975   10975       0   10977   10978   10979
   10978   10979   10979       0   10981   10982   10983   10982   10983   10983
       0   10985   10986   10987   10986   10987   10987       0   10989   10990
   10991   10990   10991   10991       0   10993   10994   10995   10994   10995
   10995       0   10997   10998   10999   10998   10999   10999       0   11001
   11002   11003   11002   11003   11003       0   11005   11006   11007   11006
   11007   11007       0   11009   11010   11011   11010   11011   11011       0
   11013   11014   11015   11014   11015   11015       0   11017   11018   11019
   11018   11019   11019       0   11021   11022   11023   11022   11023   11023
       0   11025   11026   11027   11026   11027   11027       0   11029   11030
   11031   11030   11031   11031       0   11033   11034   11035   11034   11035
   11035       0   11037   11038   11039   11038   11039   11039       0   11041
   11042   11043   11042   11043   11043       0   11045   11046   11047   11046
   11047   11047       0   11049   11050   11051   11050   11051   11051       0
   11053   11054   11055   11054   11055   11055       0   11057   11058   11059
   11058   11059   11059       0   11061   11062   11063   11062   11063   11063
       0   11065   11066   11067   11066   11067   11067       0   11069   11070
   11071   11070   11071   11071       0   11073   11074   11075   11074   11075
   11075       0   11077   11078   11079   11078   11079   11079       0   11081
   11082   11083   11082   11083   11083       0   11085   11086   11087   11086
   11087   11087       0   11089   11090   11091   11090   11091   11091       0
   11093   11094   11095   11094   11095   11095       0   11097   11098   11099
   11098   11099   11099       0   11101   11102   11103   11102   11103   11103
       0   11105   11106   11107   11106   11107   11107       0   11109   11110
   11111   11110   11111   11111       0   11113   11114   11115   11114   11115
   11115       0   11117   11118   11119   11118   11119   11119       0   11121
   11122   11123   11122   11123   11123       0   11125   11126   11127   11126
   11127   11127       0   11129   11130   11131   11130   11131   11131       0
   11133   11134   11135   11134   11135   11135       0   11137   11138   11139
   11138   11139   11139       0   11141   11142   11143   11142   11143   11143
       0   11145   11146   11147   11146   11147   11147       0   11149   11150
   11151   11150   11151   11151       0   11153   11154   11155   11154   11155
   11155       0   11157   11158   11159   11158   11159   11159       0   11161
   11162   11163   11162   11163   11163       0   11165   11166   11167   11166
   11167   11167       0   11169   11170   11171   11170   11171   11171       0
   11173   11174   11175   11174   11175   11175       0   11177   11178   11179
   11178   11179   11179       0   11181   11182   11183   11182   11183   11183
       0   11185   11186   11187   11186   11187   11187       0   11189   11190
   11191   11190   11191   11191       0   11193   11194   11195   11194   11195
   11195       0   11197   11198   11199   11198   11199   11199       0   11201
   11202   11203   11202   11203   11203       0   11205   11206   11207   11206
   11207   11207       0   11209   11210   11211   11210   11211   11211       0
   11213   11214   11215   11214   11215   11215       0   11217   11218   11219
   11218   11219   11219       0   11221   11222   11223   11222   11223   11223
       0   11225   11226   11227   11226   11227   11227       0   11229   11230
   11231   11230   11231   11231       0   11233   11234   11235   11234   11235
   11235       0   11237   11238   11239   11238   11239   11239       0   11241
   11242   11243   11242   11243   11243       0   11245   11246   11247   11246
   11247   11247       0   11249   11250   11251   11250   11251   11251       0
   11253   11254   11255   11254   11255   11255       0   11257   11258   11259
   11258   11259   11259       0   11261   11262   11263   11262   11263   11263
       0   11265   11266   11267   11266   11267   11267       0   11269   11270
   11271   11270   11271   11271       0   11273   11274   11275   11274   11275
   11275       0   11277   11278   11279   11278   11279   11279       0   11281
   11282   11283   11282   11283   11283       0   11285   11286   11287   11286
   11287   11287       0   11289   11290   11291   11290   11291   11291       0
   11293   11294   11295   11294   11295   11295       0   11297   11298   11299
   11298   11299   11299       0   11301   11302   11303   11302   11303   11303
       0   11305   11306   11307   11306   11307   11307       0   11309   11310
   11311   11310   11311   11311       0   11313   11314   11315   11314   11315
   11315       0   11317   11318   11319   11318   11319   11319       0   11321
   11322   11323   11322   11323   11323       0   11325   11326   11327   11326
   11327   11327       0   11329   11330   11331   11330   11331   11331       0
   11333   11334   11335   11334   11335   11335       0   11337   11338   11339
   11338   11339   11339       0   11341   11342   11343   11342   11343   11343
       0   11345   11346   11347   11346   11347   11347       0   11349   11350
   11351   11350   11351   11351       0   11353   11354   11355   11354   11355
   11355       0   11357   11358   11359   11358   11359   11359       0   11361
   11362   11363   11362   11363   11363       0   11365   11366   11367   11366
   11367   11367       0   11369   11370   11371   11370   11371   11371       0
   11373   11374   11375   11374   11375   11375       0   11377   11378   11379
   11378   11379   11379       0   11381   11382   11383   11382   11383   11383
       0   11385   11386   11387   11386   11387   11387       0   11389   11390
   11391   11390   11391   11391       0   11393   11394   11395   11394   11395
   11395       0   11397   11398   11399   11398   11399   11399       0   11401
   11402   11403   11402   11403   11403       0   11405   11406   11407   11406
   11407   11407       0   11409   11410   11411   11410   11411   11411       0
   11413   11414   11415   11414   11415   11415       0   11417   11418   11419
   11418   11419   11419       0   11421   11422   11423   11422   11423   11423
       0   11425   11426   11427   11426   11427   11427       0   11429   11430
   11431   11430   11431   11431       0   11433   11434   11435   11434   11435
   11435       0   11437   11438   11439   11438   11439   11439       0   11441
   11442   11443   11442   11443   11443       0   11445   11446   11447   11446
   11447   11447       0   11449   11450   11451   11450   11451   11451       0
   11453   11454   11455   11454   11455   11455       0   11457   11458   11459
   11458   11459   11459       0   11461   11462   11463   11462   11463   11463
       0   11465   11466   11467   11466   11467   11467       0   11469   11470
   11471   11470   11471   11471       0   11473   11474   11475   11474   11475
   11475       0   11477   11478   11479   11478   11479   11479       0   11481
   11482   11483   11482   11483   11483       0   11485   11486   11487   11486
   11487   11487       0   11489   11490   11491   11490   11491   11491       0
   11493   11494   11495   11494   11495   11495       0   11497   11498   11499
   11498   11499   11499       0   11501   11502   11503   11502   11503   11503
       0   11505   11506   11507   11506   11507   11507       0   11509   11510
   11511   11510   11511   11511       0   11513   11514   11515   11514   11515
   11515       0   11517   11518   11519   11518   11519   11519       0   11521
   11522   11523   11522   11523   11523       0   11525   11526   11527   11526
   11527   11527       0   11529   11530   11531   11530   11531   11531       0
   11533   11534   11535   11534   11535   11535       0   11537   11538   11539
   11538   11539   11539       0   11541   11542   11543   11542   11543   11543
       0   11545   11546   11547   11546   11547   11547       0   11549   11550
   11551   11550   11551   11551       0   11553   11554   11555   11554   11555
   11555       0   11557   11558   11559   11558   11559   11559       0   11561
   11562   11563   11562   11563   11563       0   11565   11566   11567   11566
   11567   11567       0   11569   11570   11571   11570   11571   11571       0
   11573   11574   11575   11574   11575   11575       0   11577   11578   11579
   11578   11579   11579       0   11581   11582   11583   11582   11583   11583
       0   11585   11586   11587   11586   11587   11587       0   11589   11590
   11591   11590   11591   11591       0   11593   11594   11595   11594   11595
   11595       0   11597   11598   11599   11598   11599   11599       0   11601
   11602   11603   11602   11603   11603       0   11605   11606   11607   11606
   11607   11607       0   11609   11610   11611   11610   11611   11611       0
   11613   11614   11615   11614   11615   11615       0   11617   11618   11619
   11618   11619   11619       0   11621   11622   11623   11622   11623   11623
       0   11625   11626   11627   11626   11627   11627       0   11629   11630
   11631   11630   11631   11631       0   11633   11634   11635   11634   11635
   11635       0   11637   11638   11639   11638   11639   11639       0   11641
   11642   11643   11642   11643   11643       0   11645   11646   11647   11646
   11647   11647       0   11649   11650   11651   11650   11651   11651       0
   11653   11654   11655   11654   11655   11655       0   11657   11658   11659
   11658   11659   11659       0   11661   11662   11663   11662   11663   11663
       0   11665   11666   11667   11666   11667   11667       0   11669   11670
   11671   11670   11671   11671       0   11673   11674   11675   11674   11675
   11675       0   11677   11678   11679   11678   11679   11679       0   11681
   11682   11683   11682   11683   11683       0   11685   11686   11687   11686
   11687   11687       0   11689   11690   11691   11690   11691   11691       0
   11693   11694   11695   11694   11695   11695       0   11697   11698   11699
   11698   11699   11699       0   11701   11702   11703   11702   11703   11703
       0   11705   11706   11707   11706   11707   11707       0   11709   11710
   11711   11710   11711   11711       0   11713   11714   11715   11714   11715
   11715       0   11717   11718   11719   11718   11719   11719       0   11721
   11722   11723   11722   11723   11723       0   11725   11726   11727   11726
   11727   11727       0   11729   11730   11731   11730   11731   11731       0
   11733   11734   11735   11734   11735   11735       0   11737   11738   11739
   11738   11739   11739       0   11741   11742   11743   11742   11743   11743
       0   11745   11746   11747   11746   11747   11747       0   11749   11750
   11751   11750   11751   11751       0   11753   11754   11755   11754   11755
   11755       0   11757   11758   11759   11758   11759   11759       0   11761
   11762   11763   11762   11763   11763       0   11765   11766   11767   11766
   11767   11767       0   11769   11770   11771   11770   11771   11771       0
   11773   11774   11775   11774   11775   11775       0   11777   11778   11779
   11778   11779   11779       0   11781   11782   11783   11782   11783   11783
       0   11785   11786   11787   11786   11787   11787       0   11789   11790
   11791   11790   11791   11791       0   11793   11794   11795   11794   11795
   11795       0   11797   11798   11799   11798   11799   11799       0   11801
   11802   11803   11802   11803   11803       0   11805   11806   11807   11806
   11807   11807       0   11809   11810   11811   11810   11811   11811       0
   11813   11814   11815   11814   11815   11815       0   11817   11818   11819
   11818   11819   11819       0   11821   11822   11823   11822   11823   11823
       0   11825   11826   11827   11826   11827   11827       0   11829   11830
   11831   11830   11831   11831       0   11833   11834   11835   11834   11835
   11835       0   11837   11838   11839   11838   11839   11839       0   11841
   11842   11843   11842   11843   11843       0   11845   11846   11847   11846
   11847   11847       0   11849   11850   11851   11850   11851   11851       0
   11853   11854   11855   11854   11855   11855       0   11857   11858   11859
   11858   11859   11859       0   11861   11862   11863   11862   11863   11863
       0   11865   11866   11867   11866   11867   11867       0   11869   11870
   11871   11870   11871   11871       0   11873   11874   11875   11874   11875
   11875       0   11877   11878   11879   11878   11879   11879       0   11881
   11882   11883   11882   11883   11883       0   11885   11886   11887   11886
   11887   11887       0   11889   11890   11891   11890   11891   11891       0
   11893   11894   11895   11894   11895   11895       0   11897   11898   11899
   11898   11899   11899       0   11901   11902   11903   11902   11903   11903
       0   11905   11906   11907   11906   11907   11907       0   11909   11910
   11911   11910   11911   11911       0   11913   11914   11915   11914   11915
   11915       0   11917   11918   11919   11918   11919   11919       0   11921
   11922   11923   11922   11923   11923       0   11925   11926   11927   11926
   11927   11927       0   11929   11930   11931   11930   11931   11931       0
   11933   11934   11935   11934   11935   11935       0   11937   11938   11939
   11938   11939   11939       0   11941   11942   11943   11942   11943   11943
       0   11945   11946   11947   11946   11947   11947       0   11949   11950
   11951   11950   11951   11951       0   11953   11954   11955   11954   11955
   11955       0   11957   11958   11959   11958   11959   11959       0   11961
   11962   11963   11962   11963   11963       0   11965   11966   11967   11966
   11967   11967       0   11969   11970   11971   11970   11971   11971       0
   11973   11974   11975   11974   11975   11975       0   11977   11978   11979
   11978   11979   11979       0   11981   11982   11983   11982   11983   11983
       0   11985   11986   11987   11986   11987   11987       0   11989   11990
   11991   11990   11991   11991       0   11993   11994   11995   11994   11995
   11995       0   11997   11998   11999   11998   11999   11999       0   12001
   12002   12003   12002   12003   12003       0   12005   12006   12007   12006
   12007   12007       0   12009   12010   12011   12010   12011   12011       0
   12013   12014   12015   12014   12015   12015       0   12017   12018   12019
   12018   12019   12019       0   12021   12022   12023   12022   12023   12023
       0   12025   12026   12027   12026   12027   12027       0   12029   12030
   12031   12030   12031   12031       0   12033   12034   12035   12034   12035
   12035       0   12037   12038   12039   12038   12039   12039       0   12041
   12042   12043   12042   12043   12043       0   12045   12046   12047   12046
   12047   12047       0   12049   12050   12051   12050   12051   12051       0
   12053   12054   12055   12054   12055   12055       0   12057   12058   12059
   12058   12059   12059       0   12061   12062   12063   12062   12063   12063
       0   12065   12066   12067   12066   12067   12067       0   12069   12070
   12071   12070   12071   12071       0   12073   12074   12075   12074   12075
   12075       0   12077   12078   12079   12078   12079   12079       0   12081
   12082   12083   12082   12083   12083       0   12085   12086   12087   12086
   12087   12087       0   12089   12090   12091   12090   12091   12091       0
   12093   12094   12095   12094   12095   12095       0   12097   12098   12099
   12098   12099   12099       0   12101   12102   12103   12102   12103   12103
       0   12105   12106   12107   12106   12107   12107       0   12109   12110
   12111   12110   12111   12111       0   12113   12114   12115   12114   12115
   12115       0   12117   12118   12119   12118   12119   12119       0   12121
   12122   12123   12122   12123   12123       0   12125   12126   12127   12126
   12127   12127       0   12129   12130   12131   12130   12131   12131       0
   12133   12134   12135   12134   12135   12135       0   12137   12138   12139
   12138   12139   12139       0   12141   12142   12143   12142   12143   12143
       0   12145   12146   12147   12146   12147   12147       0   12149   12150
   12151   12150   12151   12151       0   12153   12154   12155   12154   12155
   12155       0   12157   12158   12159   12158   12159   12159       0   12161
   12162   12163   12162   12163   12163       0   12165   12166   12167   12166
   12167   12167       0   12169   12170   12171   12170   12171   12171       0
   12173   12174   12175   12174   12175   12175       0   12177   12178   12179
   12178   12179   12179       0   12181   12182   12183   12182   12183   12183
       0   12185   12186   12187   12186   12187   12187       0   12189   12190
   12191   12190   12191   12191       0   12193   12194   12195   12194   12195
   12195       0   12197   12198   12199   12198   12199   12199       0   12201
   12202   12203   12202   12203   12203       0   12205   12206   12207   12206
   12207   12207       0   12209   12210   12211   12210   12211   12211       0
   12213   12214   12215   12214   12215   12215       0   12217   12218   12219
   12218   12219   12219       0   12221   12222   12223   12222   12223   12223
       0   12225   12226   12227   12226   12227   12227       0   12229   12230
   12231   12230   12231   12231       0   12233   12234   12235   12234   12235
   12235       0   12237   12238   12239   12238   12239   12239       0   12241
   12242   12243   12242   12243   12243       0   12245   12246   12247   12246
   12247   12247       0   12249   12250   12251   12250   12251   12251       0
   12253   12254   12255   12254   12255   12255       0   12257   12258   12259
   12258   12259   12259       0   12261   12262   12263   12262   12263   12263
       0   12265   12266   12267   12266   12267   12267       0   12269   12270
   12271   12270   12271   12271       0   12273   12274   12275   12274   12275
   12275       0   12277   12278   12279   12278   12279   12279       0   12281
   12282   12283   12282   12283   12283       0   12285   12286   12287   12286
   12287   12287       0   12289   12290   12291   12290   12291   12291       0
   12293   12294   12295   12294   12295   12295       0   12297   12298   12299
   12298   12299   12299       0   12301   12302   12303   12302   12303   12303
       0   12305   12306   12307   12306   12307   12307       0   12309   12310
   12311   12310   12311   12311       0   12313   12314   12315   12314   12315
   12315       0   12317   12318   12319   12318   12319   12319       0   12321
   12322   12323   12322   12323   12323       0   12325   12326   12327   12326
   12327   12327       0   12329   12330   12331   12330   12331   12331       0
   12333   12334   12335   12334   12335   12335       0   12337   12338   12339
   12338   12339   12339       0   12341   12342   12343   12342   12343   12343
       0   12345   12346   12347   12346   12347   12347       0   12349   12350
   12351   12350   12351   12351       0   12353   12354   12355   12354   12355
   12355       0   12357   12358   12359   12358   12359   12359       0   12361
   12362   12363   12362   12363   12363       0   12365   12366   12367   12366
   12367   12367       0   12369   12370   12371   12370   12371   12371       0
   12373   12374   12375   12374   12375   12375       0   12377   12378   12379
   12378   12379   12379       0   12381   12382   12383   12382   12383   12383
       0   12385   12386   12387   12386   12387   12387       0   12389   12390
   12391   12390   12391   12391       0   12393   12394   12395   12394   12395
   12395       0   12397   12398   12399   12398   12399   12399       0   12401
   12402   12403   12402   12403   12403       0   12405   12406   12407   12406
   12407   12407       0   12409   12410   12411   12410   12411   12411       0
   12413   12414   12415   12414   12415   12415       0   12417   12418   12419
   12418   12419   12419       0   12421   12422   12423   12422   12423   12423
       0   12425   12426   12427   12426   12427   12427       0   12429   12430
   12431   12430   12431   12431       0   12433   12434   12435   12434   12435
   12435       0   12437   12438   12439   12438   12439   12439       0   12441
   12442   12443   12442   12443   12443       0   12445   12446   12447   12446
   12447   12447       0   12449   12450   12451   12450   12451   12451       0
   12453   12454   12455   12454   12455   12455       0   12457   12458   12459
   12458   12459   12459       0   12461   12462   12463   12462   12463   12463
       0   12465   12466   12467   12466   12467   12467       0   12469   12470
   12471   12470   12471   12471       0   12473   12474   12475   12474   12475
   12475       0   12477   12478   12479   12478   12479   12479       0   12481
   12482   12483   12482   12483   12483       0   12485   12486   12487   12486
   12487   12487       0   12489   12490   12491   12490   12491   12491       0
   12493   12494   12495   12494   12495   12495       0   12497   12498   12499
   12498   12499   12499       0   12501   12502   12503   12502   12503   12503
       0   12505   12506   12507   12506   12507   12507       0   12509   12510
   12511   12510   12511   12511       0   12513   12514   12515   12514   12515
   12515       0   12517   12518   12519   12518   12519   12519       0   12521
   12522   12523   12522   12523   12523       0   12525   12526   12527   12526
   12527   12527       0   12529   12530   12531   12530   12531   12531       0
   12533   12534   12535   12534   12535   12535       0   12537   12538   12539
   12538   12539   12539       0   12541   12542   12543   12542   12543   12543
       0   12545   12546   12547   12546   12547   12547       0   12549   12550
   12551   12550   12551   12551       0   12553   12554   12555   12554   12555
   12555       0   12557   12558   12559   12558   12559   12559       0   12561
   12562   12563   12562   12563   12563       0   12565   12566   12567   12566
   12567   12567       0   12569   12570   12571   12570   12571   12571       0
   12573   12574   12575   12574   12575   12575       0   12577   12578   12579
   12578   12579   12579       0   12581   12582   12583   12582   12583   12583
       0   12585   12586   12587   12586   12587   12587       0   12589   12590
   12591   12590   12591   12591       0   12593   12594   12595   12594   12595
   12595       0   12597   12598   12599   12598   12599   12599       0   12601
   12602   12603   12602   12603   12603       0   12605   12606   12607   12606
   12607   12607       0   12609   12610   12611   12610   12611   12611       0
   12613   12614   12615   12614   12615   12615       0   12617   12618   12619
   12618   12619   12619       0   12621   12622   12623   12622   12623   12623
       0   12625   12626   12627   12626   12627   12627       0   12629   12630
   12631   12630   12631   12631       0   12633   12634   12635   12634   12635
   12635       0   12637   12638   12639   12638   12639   12639       0   12641
   12642   12643   12642   12643   12643       0   12645   12646   12647   12646
   12647   12647       0   12649   12650   12651   12650   12651   12651       0
   12653   12654   12655   12654   12655   12655       0   12657   12658   12659
   12658   12659   12659       0   12661   12662   12663   12662   12663   12663
       0   12665   12666   12667   12666   12667   12667       0   12669   12670
   12671   12670   12671   12671       0   12673   12674   12675   12674   12675
   12675       0   12677   12678   12679   12678   12679   12679       0   12681
   12682   12683   12682   12683   12683       0   12685   12686   12687   12686
   12687   12687       0   12689   12690   12691   12690   12691   12691       0
   12693   12694   12695   12694   12695   12695       0   12697   12698   12699
   12698   12699   12699       0   12701   12702   12703   12702   12703   12703
       0   12705   12706   12707   12706   12707   12707       0   12709   12710
   12711   12710   12711   12711       0   12713   12714   12715   12714   12715
   12715       0   12717   12718   12719   12718   12719   12719       0   12721
   12722   12723   12722   12723   12723       0   12725   12726   12727   12726
   12727   12727       0   12729   12730   12731   12730   12731   12731       0
   12733   12734   12735   12734   12735   12735       0   12737   12738   12739
   12738   12739   12739       0   12741   12742   12743   12742   12743   12743
       0   12745   12746   12747   12746   12747   12747       0   12749   12750
   12751   12750   12751   12751       0   12753   12754   12755   12754   12755
   12755       0   12757   12758   12759   12758   12759   12759       0   12761
   12762   12763   12762   12763   12763       0   12765   12766   12767   12766
   12767   12767       0   12769   12770   12771   12770   12771   12771       0
   12773   12774   12775   12774   12775   12775       0   12777   12778   12779
   12778   12779   12779       0   12781   12782   12783   12782   12783   12783
       0   12785   12786   12787   12786   12787   12787       0   12789   12790
   12791   12790   12791   12791       0   12793   12794   12795   12794   12795
   12795       0   12797   12798   12799   12798   12799   12799       0   12801
   12802   12803   12802   12803   12803       0   12805   12806   12807   12806
   12807   12807       0   12809   12810   12811   12810   12811   12811       0
   12813   12814   12815   12814   12815   12815       0   12817   12818   12819
   12818   12819   12819       0   12821   12822   12823   12822   12823   12823
       0   12825   12826   12827   12826   12827   12827       0   12829   12830
   12831   12830   12831   12831       0   12833   12834   12835   12834   12835
   12835       0   12837   12838   12839   12838   12839   12839       0   12841
   12842   12843   12842   12843   12843       0   12845   12846   12847   12846
   12847   12847       0   12849   12850   12851   12850   12851   12851       0
   12853   12854   12855   12854   12855   12855       0   12857   12858   12859
   12858   12859   12859       0   12861   12862   12863   12862   12863   12863
       0   12865   12866   12867   12866   12867   12867       0   12869   12870
   12871   12870   12871   12871       0   12873   12874   12875   12874   12875
   12875       0   12877   12878   12879   12878   12879   12879       0   12881
   12882   12883   12882   12883   12883       0   12885   12886   12887   12886
   12887   12887       0   12889   12890   12891   12890   12891   12891       0
   12893   12894   12895   12894   12895   12895       0   12897   12898   12899
   12898   12899   12899       0   12901   12902   12903   12902   12903   12903
       0   12905   12906   12907   12906   12907   12907       0   12909   12910
   12911   12910   12911   12911       0   12913   12914   12915   12914   12915
   12915       0   12917   12918   12919   12918   12919   12919       0   12921
   12922   12923   12922   12923   12923       0   12925   12926   12927   12926
   12927   12927       0   12929   12930   12931   12930   12931   12931       0
   12933   12934   12935   12934   12935   12935       0   12937   12938   12939
   12938   12939   12939       0   12941   12942   12943   12942   12943   12943
       0   12945   12946   12947   12946   12947   12947       0   12949   12950
   12951   12950   12951   12951       0   12953   12954   12955   12954   12955
   12955       0   12957   12958   12959   12958   12959   12959       0   12961
   12962   12963   12962   12963   12963       0   12965   12966   12967   12966
   12967   12967       0   12969   12970   12971   12970   12971   12971       0
   12973   12974   12975   12974   12975   12975       0   12977   12978   12979
   12978   12979   12979       0   12981   12982   12983   12982   12983   12983
       0   12985   12986   12987   12986   12987   12987       0   12989   12990
   12991   12990   12991   12991       0   12993   12994   12995   12994   12995
   12995       0   12997   12998   12999   12998   12999   12999       0   13001
   13002   13003   13002   13003   13003       0   13005   13006   13007   13006
   13007   13007       0   13009   13010   13011   13010   13011   13011       0
   13013   13014   13015   13014   13015   13015       0   13017   13018   13019
   13018   13019   13019       0   13021   13022   13023   13022   13023   13023
       0   13025   13026   13027   13026   13027   13027       0   13029   13030
   13031   13030   13031   13031       0   13033   13034   13035   13034   13035
   13035       0   13037   13038   13039   13038   13039   13039       0   13041
   13042   13043   13042   13043   13043       0   13045   13046   13047   13046
   13047   13047       0   13049   13050   13051   13050   13051   13051       0
   13053   13054   13055   13054   13055   13055       0   13057   13058   13059
   13058   13059   13059       0   13061   13062   13063   13062   13063   13063
       0   13065   13066   13067   13066   13067   13067       0   13069   13070
   13071   13070   13071   13071       0   13073   13074   13075   13074   13075
   13075       0   13077   13078   13079   13078   13079   13079       0   13081
   13082   13083   13082   13083   13083       0   13085   13086   13087   13086
   13087   13087       0   13089   13090   13091   13090   13091   13091       0
   13093   13094   13095   13094   13095   13095       0   13097   13098   13099
   13098   13099   13099       0   13101   13102   13103   13102   13103   13103
       0   13105   13106   13107   13106   13107   13107       0   13109   13110
   13111   13110   13111   13111       0   13113   13114   13115   13114   13115
   13115       0   13117   13118   13119   13118   13119   13119       0   13121
   13122   13123   13122   13123   13123       0   13125   13126   13127   13126
   13127   13127       0   13129   13130   13131   13130   13131   13131       0
   13133   13134   13135   13134   13135   13135       0   13137   13138   13139
   13138   13139   13139       0   13141   13142   13143   13142   13143   13143
       0   13145   13146   13147   13146   13147   13147       0   13149   13150
   13151   13150   13151   13151       0   13153   13154   13155   13154   13155
   13155       0   13157   13158   13159   13158   13159   13159       0   13161
   13162   13163   13162   13163   13163       0   13165   13166   13167   13166
   13167   13167       0   13169   13170   13171   13170   13171   13171       0
   13173   13174   13175   13174   13175   13175       0   13177   13178   13179
   13178   13179   13179       0   13181   13182   13183   13182   13183   13183
       0   13185   13186   13187   13186   13187   13187       0   13189   13190
   13191   13190   13191   13191       0   13193   13194   13195   13194   13195
   13195       0   13197   13198   13199   13198   13199   13199       0   13201
   13202   13203   13202   13203   13203       0   13205   13206   13207   13206
   13207   13207       0   13209   13210   13211   13210   13211   13211       0
   13213   13214   13215   13214   13215   13215       0   13217   13218   13219
   13218   13219   13219       0   13221   13222   13223   13222   13223   13223
       0   13225   13226   13227   13226   13227   13227       0   13229   13230
   13231   13230   13231   13231       0   13233   13234   13235   13234   13235
   13235       0   13237   13238   13239   13238   13239   13239       0   13241
   13242   13243   13242   13243   13243       0   13245   13246   13247   13246
   13247   13247       0   13249   13250   13251   13250   13251   13251       0
   13253   13254   13255   13254   13255   13255       0   13257   13258   13259
   13258   13259   13259       0   13261   13262   13263   13262   13263   13263
       0   13265   13266   13267   13266   13267   13267       0   13269   13270
   13271   13270   13271   13271       0   13273   13274   13275   13274   13275
   13275       0   13277   13278   13279   13278   13279   13279       0   13281
   13282   13283   13282   13283   13283       0   13285   13286   13287   13286
   13287   13287       0   13289   13290   13291   13290   13291   13291       0
   13293   13294   13295   13294   13295   13295       0   13297   13298   13299
   13298   13299   13299       0   13301   13302   13303   13302   13303   13303
       0   13305   13306   13307   13306   13307   13307       0   13309   13310
   13311   13310   13311   13311       0   13313   13314   13315   13314   13315
   13315       0   13317   13318   13319   13318   13319   13319       0   13321
   13322   13323   13322   13323   13323       0   13325   13326   13327   13326
   13327   13327       0   13329   13330   13331   13330   13331   13331       0
   13333   13334   13335   13334   13335   13335       0   13337   13338   13339
   13338   13339   13339       0   13341   13342   13343   13342   13343   13343
       0   13345   13346   13347   13346   13347   13347       0   13349   13350
   13351   13350   13351   13351       0   13353   13354   13355   13354   13355
   13355       0   13357   13358   13359   13358   13359   13359       0   13361
   13362   13363   13362   13363   13363       0   13365   13366   13367   13366
   13367   13367       0   13369   13370   13371   13370   13371   13371       0
   13373   13374   13375   13374   13375   13375       0   13377   13378   13379
   13378   13379   13379       0   13381   13382   13383   13382   13383   13383
       0   13385   13386   13387   13386   13387   13387       0   13389   13390
   13391   13390   13391   13391       0   13393   13394   13395   13394   13395
   13395       0   13397   13398   13399   13398   13399   13399       0   13401
   13402   13403   13402   13403   13403       0   13405   13406   13407   13406
   13407   13407       0   13409   13410   13411   13410   13411   13411       0
   13413   13414   13415   13414   13415   13415       0   13417   13418   13419
   13418   13419   13419       0   13421   13422   13423   13422   13423   13423
       0   13425   13426   13427   13426   13427   13427       0   13429   13430
   13431   13430   13431   13431       0   13433   13434   13435   13434   13435
   13435       0   13437   13438   13439   13438   13439   13439       0   13441
   13442   13443   13442   13443   13443       0   13445   13446   13447   13446
   13447   13447       0   13449   13450   13451   13450   13451   13451       0
   13453   13454   13455   13454   13455   13455       0   13457   13458   13459
   13458   13459   13459       0   13461   13462   13463   13462   13463   13463
       0   13465   13466   13467   13466   13467   13467       0   13469   13470
   13471   13470   13471   13471       0   13473   13474   13475   13474   13475
   13475       0   13477   13478   13479   13478   13479   13479       0   13481
   13482   13483   13482   13483   13483       0   13485   13486   13487   13486
   13487   13487       0   13489   13490   13491   13490   13491   13491       0
   13493   13494   13495   13494   13495   13495       0   13497   13498   13499
   13498   13499   13499       0   13501   13502   13503   13502   13503   13503
       0   13505   13506   13507   13506   13507   13507       0   13509   13510
   13511   13510   13511   13511       0   13513   13514   13515   13514   13515
   13515       0   13517   13518   13519   13518   13519   13519       0   13521
   13522   13523   13522   13523   13523       0   13525   13526   13527   13526
   13527   13527       0   13529   13530   13531   13530   13531   13531       0
   13533   13534   13535   13534   13535   13535       0   13537   13538   13539
   13538   13539   13539       0   13541   13542   13543   13542   13543   13543
       0   13545   13546   13547   13546   13547   13547       0   13549   13550
   13551   13550   13551   13551       0   13553   13554   13555   13554   13555
   13555       0   13557   13558   13559   13558   13559   13559       0   13561
   13562   13563   13562   13563   13563       0   13565   13566   13567   13566
   13567   13567       0   13569   13570   13571   13570   13571   13571       0
   13573   13574   13575   13574   13575   13575       0   13577   13578   13579
   13578   13579   13579       0   13581   13582   13583   13582   13583   13583
       0   13585   13586   13587   13586   13587   13587       0   13589   13590
   13591   13590   13591   13591       0   13593   13594   13595   13594   13595
   13595       0   13597   13598   13599   13598   13599   13599       0   13601
   13602   13603   13602   13603   13603       0   13605   13606   13607   13606
   13607   13607       0   13609   13610   13611   13610   13611   13611       0
   13613   13614   13615   13614   13615   13615       0   13617   13618   13619
   13618   13619   13619       0   13621   13622   13623   13622   13623   13623
       0   13625   13626   13627   13626   13627   13627       0   13629   13630
   13631   13630   13631   13631       0   13633   13634   13635   13634   13635
   13635       0   13637   13638   13639   13638   13639   13639       0   13641
   13642   13643   13642   13643   13643       0   13645   13646   13647   13646
   13647   13647       0   13649   13650   13651   13650   13651   13651       0
   13653   13654   13655   13654   13655   13655       0   13657   13658   13659
   13658   13659   13659       0   13661   13662   13663   13662   13663   13663
       0   13665   13666   13667   13666   13667   13667       0   13669   13670
   13671   13670   13671   13671       0   13673   13674   13675   13674   13675
   13675       0   13677   13678   13679   13678   13679   13679       0   13681
   13682   13683   13682   13683   13683       0   13685   13686   13687   13686
   13687   13687       0   13689   13690   13691   13690   13691   13691       0
   13693   13694   13695   13694   13695   13695       0   13697   13698   13699
   13698   13699   13699       0   13701   13702   13703   13702   13703   13703
       0   13705   13706   13707   13706   13707   13707       0   13709   13710
   13711   13710   13711   13711       0   13713   13714   13715   13714   13715
   13715       0   13717   13718   13719   13718   13719   13719       0   13721
   13722   13723   13722   13723   13723       0   13725   13726   13727   13726
   13727   13727       0   13729   13730   13731   13730   13731   13731       0
   13733   13734   13735   13734   13735   13735       0   13737   13738   13739
   13738   13739   13739       0   13741   13742   13743   13742   13743   13743
       0   13745   13746   13747   13746   13747   13747       0   13749   13750
   13751   13750   13751   13751       0   13753   13754   13755   13754   13755
   13755       0   13757   13758   13759   13758   13759   13759       0   13761
   13762   13763   13762   13763   13763       0   13765   13766   13767   13766
   13767   13767       0   13769   13770   13771   13770   13771   13771       0
   13773   13774   13775   13774   13775   13775       0   13777   13778   13779
   13778   13779   13779       0   13781   13782   13783   13782   13783   13783
       0   13785   13786   13787   13786   13787   13787       0   13789   13790
   13791   13790   13791   13791       0   13793   13794   13795   13794   13795
   13795       0   13797   13798   13799   13798   13799   13799       0   13801
   13802   13803   13802   13803   13803       0   13805   13806   13807   13806
   13807   13807       0   13809   13810   13811   13810   13811   13811       0
   13813   13814   13815   13814   13815   13815       0   13817   13818   13819
   13818   13819   13819       0   13821   13822   13823   13822   13823   13823
       0   13825   13826   13827   13826   13827   13827       0   13829   13830
   13831   13830   13831   13831       0   13833   13834   13835   13834   13835
   13835       0   13837   13838   13839   13838   13839   13839       0   13841
   13842   13843   13842   13843   13843       0   13845   13846   13847   13846
   13847   13847       0   13849   13850   13851   13850   13851   13851       0
   13853   13854   13855   13854   13855   13855       0   13857   13858   13859
   13858   13859   13859       0   13861   13862   13863   13862   13863   13863
       0   13865   13866   13867   13866   13867   13867       0   13869   13870
   13871   13870   13871   13871       0   13873   13874   13875   13874   13875
   13875       0   13877   13878   13879   13878   13879   13879       0   13881
   13882   13883   13882   13883   13883       0   13885   13886   13887   13886
   13887   13887       0   13889   13890   13891   13890   13891   13891       0
   13893   13894   13895   13894   13895   13895       0   13897   13898   13899
   13898   13899   13899       0   13901   13902   13903   13902   13903   13903
       0   13905   13906   13907   13906   13907   13907       0   13909   13910
   13911   13910   13911   13911       0   13913   13914   13915   13914   13915
   13915       0   13917   13918   13919   13918   13919   13919       0   13921
   13922   13923   13922   13923   13923       0   13925   13926   13927   13926
   13927   13927       0   13929   13930   13931   13930   13931   13931       0
   13933   13934   13935   13934   13935   13935       0   13937   13938   13939
   13938   13939   13939       0   13941   13942   13943   13942   13943   13943
       0   13945   13946   13947   13946   13947   13947       0   13949   13950
   13951   13950   13951   13951       0   13953   13954   13955   13954   13955
   13955       0   13957   13958   13959   13958   13959   13959       0   13961
   13962   13963   13962   13963   13963       0   13965   13966   13967   13966
   13967   13967       0   13969   13970   13971   13970   13971   13971       0
   13973   13974   13975   13974   13975   13975       0   13977   13978   13979
   13978   13979   13979       0   13981   13982   13983   13982   13983   13983
       0   13985   13986   13987   13986   13987   13987       0   13989   13990
   13991   13990   13991   13991       0   13993   13994   13995   13994   13995
   13995       0   13997   13998   13999   13998   13999   13999       0   14001
   14002   14003   14002   14003   14003       0   14005   14006   14007   14006
   14007   14007       0   14009   14010   14011   14010   14011   14011       0
   14013   14014   14015   14014   14015   14015       0   14017   14018   14019
   14018   14019   14019       0   14021   14022   14023   14022   14023   14023
       0   14025   14026   14027   14026   14027   14027       0   14029   14030
   14031   14030   14031   14031       0   14033   14034   14035   14034   14035
   14035       0   14037   14038   14039   14038   14039   14039       0   14041
   14042   14043   14042   14043   14043       0   14045   14046   14047   14046
   14047   14047       0   14049   14050   14051   14050   14051   14051       0
   14053   14054   14055   14054   14055   14055       0   14057   14058   14059
   14058   14059   14059       0   14061   14062   14063   14062   14063   14063
       0   14065   14066   14067   14066   14067   14067       0   14069   14070
   14071   14070   14071   14071       0   14073   14074   14075   14074   14075
   14075       0   14077   14078   14079   14078   14079   14079       0   14081
   14082   14083   14082   14083   14083       0   14085   14086   14087   14086
   14087   14087       0   14089   14090   14091   14090   14091   14091       0
   14093   14094   14095   14094   14095   14095       0   14097   14098   14099
   14098   14099   14099       0   14101   14102   14103   14102   14103   14103
       0   14105   14106   14107   14106   14107   14107       0   14109   14110
   14111   14110   14111   14111       0   14113   14114   14115   14114   14115
   14115       0   14117   14118   14119   14118   14119   14119       0   14121
   14122   14123   14122   14123   14123       0   14125   14126   14127   14126
   14127   14127       0   14129   14130   14131   14130   14131   14131       0
   14133   14134   14135   14134   14135   14135       0   14137   14138   14139
   14138   14139   14139       0   14141   14142   14143   14142   14143   14143
       0   14145   14146   14147   14146   14147   14147       0   14149   14150
   14151   14150   14151   14151       0   14153   14154   14155   14154   14155
   14155       0   14157   14158   14159   14158   14159   14159       0   14161
   14162   14163   14162   14163   14163       0   14165   14166   14167   14166
   14167   14167       0   14169   14170   14171   14170   14171   14171       0
   14173   14174   14175   14174   14175   14175       0   14177   14178   14179
   14178   14179   14179       0   14181   14182   14183   14182   14183   14183
       0   14185   14186   14187   14186   14187   14187       0   14189   14190
   14191   14190   14191   14191       0   14193   14194   14195   14194   14195
   14195       0   14197   14198   14199   14198   14199   14199       0   14201
   14202   14203   14202   14203   14203       0   14205   14206   14207   14206
   14207   14207       0   14209   14210   14211   14210   14211   14211       0
   14213   14214   14215   14214   14215   14215       0   14217   14218   14219
   14218   14219   14219       0   14221   14222   14223   14222   14223   14223
       0   14225   14226   14227   14226   14227   14227       0   14229   14230
   14231   14230   14231   14231       0   14233   14234   14235   14234   14235
   14235       0   14237   14238   14239   14238   14239   14239       0   14241
   14242   14243   14242   14243   14243       0   14245   14246   14247   14246
   14247   14247       0   14249   14250   14251   14250   14251   14251       0
   14253   14254   14255   14254   14255   14255       0   14257   14258   14259
   14258   14259   14259       0   14261   14262   14263   14262   14263   14263
       0   14265   14266   14267   14266   14267   14267       0   14269   14270
   14271   14270   14271   14271       0   14273   14274   14275   14274   14275
   14275       0   14277   14278   14279   14278   14279   14279       0   14281
   14282   14283   14282   14283   14283       0   14285   14286   14287   14286
   14287   14287       0   14289   14290   14291   14290   14291   14291       0
   14293   14294   14295   14294   14295   14295       0   14297   14298   14299
   14298   14299   14299       0   14301   14302   14303   14302   14303   14303
       0   14305   14306   14307   14306   14307   14307       0   14309   14310
   14311   14310   14311   14311       0   14313   14314   14315   14314   14315
   14315       0   14317   14318   14319   14318   14319   14319       0   14321
   14322   14323   14322   14323   14323       0   14325   14326   14327   14326
   14327   14327       0   14329   14330   14331   14330   14331   14331       0
   14333   14334   14335   14334   14335   14335       0   14337   14338   14339
   14338   14339   14339       0   14341   14342   14343   14342   14343   14343
       0   14345   14346   14347   14346   14347   14347       0   14349   14350
   14351   14350   14351   14351       0   14353   14354   14355   14354   14355
   14355       0   14357   14358   14359   14358   14359   14359       0   14361
   14362   14363   14362   14363   14363       0   14365   14366   14367   14366
   14367   14367       0   14369   14370   14371   14370   14371   14371       0
   14373   14374   14375   14374   14375   14375       0   14377   14378   14379
   14378   14379   14379       0   14381   14382   14383   14382   14383   14383
       0   14385   14386   14387   14386   14387   14387       0   14389   14390
   14391   14390   14391   14391       0   14393   14394   14395   14394   14395
   14395       0   14397   14398   14399   14398   14399   14399       0   14401
   14402   14403   14402   14403   14403       0   14405   14406   14407   14406
   14407   14407       0   14409   14410   14411   14410   14411   14411       0
   14413   14414   14415   14414   14415   14415       0   14417   14418   14419
   14418   14419   14419       0   14421   14422   14423   14422   14423   14423
       0   14425   14426   14427   14426   14427   14427       0   14429   14430
   14431   14430   14431   14431       0   14433   14434   14435   14434   14435
   14435       0   14437   14438   14439   14438   14439   14439       0   14441
   14442   14443   14442   14443   14443       0   14445   14446   14447   14446
   14447   14447       0   14449   14450   14451   14450   14451   14451       0
   14453   14454   14455   14454   14455   14455       0   14457   14458   14459
   14458   14459   14459       0   14461   14462   14463   14462   14463   14463
       0   14465   14466   14467   14466   14467   14467       0   14469   14470
   14471   14470   14471   14471       0   14473   14474   14475   14474   14475
   14475       0   14477   14478   14479   14478   14479   14479       0   14481
   14482   14483   14482   14483   14483       0   14485   14486   14487   14486
   14487   14487       0   14489   14490   14491   14490   14491   14491       0
   14493   14494   14495   14494   14495   14495       0   14497   14498   14499
   14498   14499   14499       0   14501   14502   14503   14502   14503   14503
       0   14505   14506   14507   14506   14507   14507       0   14509   14510
   14511   14510   14511   14511       0   14513   14514   14515   14514   14515
   14515       0   14517   14518   14519   14518   14519   14519       0   14521
   14522   14523   14522   14523   14523       0   14525   14526   14527   14526
   14527   14527       0   14529   14530   14531   14530   14531   14531       0
   14533   14534   14535   14534   14535   14535       0   14537   14538   14539
   14538   14539   14539       0   14541   14542   14543   14542   14543   14543
       0   14545   14546   14547   14546   14547   14547       0   14549   14550
   14551   14550   14551   14551       0   14553   14554   14555   14554   14555
   14555       0   14557   14558   14559   14558   14559   14559       0   14561
   14562   14563   14562   14563   14563       0   14565   14566   14567   14566
   14567   14567       0   14569   14570   14571   14570   14571   14571       0
   14573   14574   14575   14574   14575   14575       0   14577   14578   14579
   14578   14579   14579       0   14581   14582   14583   14582   14583   14583
       0   14585   14586   14587   14586   14587   14587       0   14589   14590
   14591   14590   14591   14591       0   14593   14594   14595   14594   14595
   14595       0   14597   14598   14599   14598   14599   14599       0   14601
   14602   14603   14602   14603   14603       0   14605   14606   14607   14606
   14607   14607       0   14609   14610   14611   14610   14611   14611       0
   14613   14614   14615   14614   14615   14615       0   14617   14618   14619
   14618   14619   14619       0   14621   14622   14623   14622   14623   14623
       0   14625   14626   14627   14626   14627   14627       0   14629   14630
   14631   14630   14631   14631       0   14633   14634   14635   14634   14635
   14635       0   14637   14638   14639   14638   14639   14639       0   14641
   14642   14643   14642   14643   14643       0   14645   14646   14647   14646
   14647   14647       0   14649   14650   14651   14650   14651   14651       0
   14653   14654   14655   14654   14655   14655       0   14657   14658   14659
   14658   14659   14659       0   14661   14662   14663   14662   14663   14663
       0   14665   14666   14667   14666   14667   14667       0   14669   14670
   14671   14670   14671   14671       0   14673   14674   14675   14674   14675
   14675       0   14677   14678   14679   14678   14679   14679       0   14681
   14682   14683   14682   14683   14683       0   14685   14686   14687   14686
   14687   14687       0   14689   14690   14691   14690   14691   14691       0
   14693   14694   14695   14694   14695   14695       0   14697   14698   14699
   14698   14699   14699       0   14701   14702   14703   14702   14703   14703
       0   14705   14706   14707   14706   14707   14707       0   14709   14710
   14711   14710   14711   14711       0   14713   14714   14715   14714   14715
   14715       0   14717   14718   14719   14718   14719   14719       0   14721
   14722   14723   14722   14723   14723       0   14725   14726   14727   14726
   14727   14727       0   14729   14730   14731   14730   14731   14731       0
   14733   14734   14735   14734   14735   14735       0   14737   14738   14739
   14738   14739   14739       0   14741   14742   14743   14742   14743   14743
       0   14745   14746   14747   14746   14747   14747       0   14749   14750
   14751   14750   14751   14751       0   14753   14754   14755   14754   14755
   14755       0   14757   14758   14759   14758   14759   14759       0   14761
   14762   14763   14762   14763   14763       0   14765   14766   14767   14766
   14767   14767       0   14769   14770   14771   14770   14771   14771       0
   14773   14774   14775   14774   14775   14775       0   14777   14778   14779
   14778   14779   14779       0   14781   14782   14783   14782   14783   14783
       0   14785   14786   14787   14786   14787   14787       0   14789   14790
   14791   14790   14791   14791       0   14793   14794   14795   14794   14795
   14795       0   14797   14798   14799   14798   14799   14799       0   14801
   14802   14803   14802   14803   14803       0   14805   14806   14807   14806
   14807   14807       0   14809   14810   14811   14810   14811   14811       0
   14813   14814   14815   14814   14815   14815       0   14817   14818   14819
   14818   14819   14819       0   14821   14822   14823   14822   14823   14823
       0   14825   14826   14827   14826   14827   14827       0   14829   14830
   14831   14830   14831   14831       0   14833   14834   14835   14834   14835
   14835       0   14837   14838   14839   14838   14839   14839       0   14841
   14842   14843   14842   14843   14843       0   14845   14846   14847   14846
   14847   14847       0   14849   14850   14851   14850   14851   14851       0
   14853   14854   14855   14854   14855   14855       0   14857   14858   14859
   14858   14859   14859       0   14861   14862   14863   14862   14863   14863
       0   14865   14866   14867   14866   14867   14867       0   14869   14870
   14871   14870   14871   14871       0   14873   14874   14875   14874   14875
   14875       0   14877   14878   14879   14878   14879   14879       0   14881
   14882   14883   14882   14883   14883       0   14885   14886   14887   14886
   14887   14887       0   14889   14890   14891   14890   14891   14891       0
   14893   14894   14895   14894   14895   14895       0   14897   14898   14899
   14898   14899   14899       0   14901   14902   14903   14902   14903   14903
       0   14905   14906   14907   14906   14907   14907       0   14909   14910
   14911   14910   14911   14911       0   14913   14914   14915   14914   14915
   14915       0   14917   14918   14919   14918   14919   14919       0   14921
   14922   14923   14922   14923   14923       0   14925   14926   14927   14926
   14927   14927       0   14929   14930   14931   14930   14931   14931       0
   14933   14934   14935   14934   14935   14935       0   14937   14938   14939
   14938   14939   14939       0   14941   14942   14943   14942   14943   14943
       0   14945   14946   14947   14946   14947   14947       0   14949   14950
   14951   14950   14951   14951       0   14953   14954   14955   14954   14955
   14955       0   14957   14958   14959   14958   14959   14959       0   14961
   14962   14963   14962   14963   14963       0   14965   14966   14967   14966
   14967   14967       0   14969   14970   14971   14970   14971   14971       0
   14973   14974   14975   14974   14975   14975       0   14977   14978   14979
   14978   14979   14979       0   14981   14982   14983   14982   14983   14983
       0   14985   14986   14987   14986   14987   14987       0   14989   14990
   14991   14990   14991   14991       0   14993   14994   14995   14994   14995
   14995       0   14997   14998   14999   14998   14999   14999       0   15001
   15002   15003   15002   15003   15003       0   15005   15006   15007   15006
   15007   15007       0   15009   15010   15011   15010   15011   15011       0
   15013   15014   15015   15014   15015   15015       0   15017   15018   15019
   15018   15019   15019       0   15021   15022   15023   15022   15023   15023
       0   15025   15026   15027   15026   15027   15027       0   15029   15030
   15031   15030   15031   15031       0   15033   15034   15035   15034   15035
   15035       0   15037   15038   15039   15038   15039   15039       0   15041
   15042   15043   15042   15043   15043       0   15045   15046   15047   15046
   15047   15047       0   15049   15050   15051   15050   15051   15051       0
   15053   15054   15055   15054   15055   15055       0   15057   15058   15059
   15058   15059   15059       0   15061   15062   15063   15062   15063   15063
       0   15065   15066   15067   15066   15067   15067       0   15069   15070
   15071   15070   15071   15071       0   15073   15074   15075   15074   15075
   15075       0   15077   15078   15079   15078   15079   15079       0   15081
   15082   15083   15082   15083   15083       0   15085   15086   15087   15086
   15087   15087       0   15089   15090   15091   15090   15091   15091       0
   15093   15094   15095   15094   15095   15095       0   15097   15098   15099
   15098   15099   15099       0   15101   15102   15103   15102   15103   15103
       0   15105   15106   15107   15106   15107   15107       0   15109   15110
   15111   15110   15111   15111       0   15113   15114   15115   15114   15115
   15115       0   15117   15118   15119   15118   15119   15119       0   15121
   15122   15123   15122   15123   15123       0   15125   15126   15127   15126
   15127   15127       0   15129   15130   15131   15130   15131   15131       0
   15133   15134   15135   15134   15135   15135       0   15137   15138   15139
   15138   15139   15139       0   15141   15142   15143   15142   15143   15143
       0   15145   15146   15147   15146   15147   15147       0   15149   15150
   15151   15150   15151   15151       0   15153   15154   15155   15154   15155
   15155       0   15157   15158   15159   15158   15159   15159       0   15161
   15162   15163   15162   15163   15163       0   15165   15166   15167   15166
   15167   15167       0   15169   15170   15171   15170   15171   15171       0
   15173   15174   15175   15174   15175   15175       0   15177   15178   15179
   15178   15179   15179       0   15181   15182   15183   15182   15183   15183
       0   15185   15186   15187   15186   15187   15187       0   15189   15190
   15191   15190   15191   15191       0   15193   15194   15195   15194   15195
   15195       0   15197   15198   15199   15198   15199   15199       0   15201
   15202   15203   15202   15203   15203       0   15205   15206   15207   15206
   15207   15207       0   15209   15210   15211   15210   15211   15211       0
   15213   15214   15215   15214   15215   15215       0   15217   15218   15219
   15218   15219   15219       0   15221   15222   15223   15222   15223   15223
       0   15225   15226   15227   15226   15227   15227       0   15229   15230
   15231   15230   15231   15231       0   15233   15234   15235   15234   15235
   15235       0   15237   15238   15239   15238   15239   15239       0   15241
   15242   15243   15242   15243   15243       0   15245   15246   15247   15246
   15247   15247       0   15249   15250   15251   15250   15251   15251       0
   15253   15254   15255   15254   15255   15255       0   15257   15258   15259
   15258   15259   15259       0   15261   15262   15263   15262   15263   15263
       0   15265   15266   15267   15266   15267   15267       0   15269   15270
   15271   15270   15271   15271       0   15273   15274   15275   15274   15275
   15275       0   15277   15278   15279   15278   15279   15279       0   15281
   15282   15283   15282   15283   15283       0   15285   15286   15287   15286
   15287   15287       0   15289   15290   15291   15290   15291   15291       0
   15293   15294   15295   15294   15295   15295       0   15297   15298   15299
   15298   15299   15299       0   15301   15302   15303   15302   15303   15303
       0   15305   15306   15307   15306   15307   15307       0   15309   15310
   15311   15310   15311   15311       0   15313   15314   15315   15314   15315
   15315       0   15317   15318   15319   15318   15319   15319       0   15321
   15322   15323   15322   15323   15323       0   15325   15326   15327   15326
   15327   15327       0   15329   15330   15331   15330   15331   15331       0
   15333   15334   15335   15334   15335   15335       0   15337   15338   15339
   15338   15339   15339       0   15341   15342   15343   15342   15343   15343
       0   15345   15346   15347   15346   15347   15347       0   15349   15350
   15351   15350   15351   15351       0   15353   15354   15355   15354   15355
   15355       0   15357   15358   15359   15358   15359   15359       0   15361
   15362   15363   15362   15363   15363       0   15365   15366   15367   15366
   15367   15367       0   15369   15370   15371   15370   15371   15371       0
   15373   15374   15375   15374   15375   15375       0   15377   15378   15379
   15378   15379   15379       0   15381   15382   15383   15382   15383   15383
       0   15385   15386   15387   15386   15387   15387       0   15389   15390
   15391   15390   15391   15391       0   15393   15394   15395   15394   15395
   15395       0   15397   15398   15399   15398   15399   15399       0   15401
   15402   15403   15402   15403   15403       0   15405   15406   15407   15406
   15407   15407       0   15409   15410   15411   15410   15411   15411       0
   15413   15414   15415   15414   15415   15415       0   15417   15418   15419
   15418   15419   15419       0   15421   15422   15423   15422   15423   15423
       0   15425   15426   15427   15426   15427   15427       0   15429   15430
   15431   15430   15431   15431       0   15433   15434   15435   15434   15435
   15435       0   15437   15438   15439   15438   15439   15439       0   15441
   15442   15443   15442   15443   15443       0   15445   15446   15447   15446
   15447   15447       0   15449   15450   15451   15450   15451   15451       0
   15453   15454   15455   15454   15455   15455       0   15457   15458   15459
   15458   15459   15459       0   15461   15462   15463   15462   15463   15463
       0   15465   15466   15467   15466   15467   15467       0   15469   15470
   15471   15470   15471   15471       0   15473   15474   15475   15474   15475
   15475       0   15477   15478   15479   15478   15479   15479       0   15481
   15482   15483   15482   15483   15483       0   15485   15486   15487   15486
   15487   15487       0   15489   15490   15491   15490   15491   15491       0
   15493   15494   15495   15494   15495   15495       0   15497   15498   15499
   15498   15499   15499       0   15501   15502   15503   15502   15503   15503
       0   15505   15506   15507   15506   15507   15507       0   15509   15510
   15511   15510   15511   15511       0   15513   15514   15515   15514   15515
   15515       0   15517   15518   15519   15518   15519   15519       0   15521
   15522   15523   15522   15523   15523       0   15525   15526   15527   15526
   15527   15527       0   15529   15530   15531   15530   15531   15531       0
   15533   15534   15535   15534   15535   15535       0   15537   15538   15539
   15538   15539   15539       0   15541   15542   15543   15542   15543   15543
       0   15545   15546   15547   15546   15547   15547       0   15549   15550
   15551   15550   15551   15551       0   15553   15554   15555   15554   15555
   15555       0   15557   15558   15559   15558   15559   15559       0   15561
   15562   15563   15562   15563   15563       0   15565   15566   15567   15566
   15567   15567       0   15569   15570   15571   15570   15571   15571       0
   15573   15574   15575   15574   15575   15575       0   15577   15578   15579
   15578   15579   15579       0   15581   15582   15583   15582   15583   15583
       0   15585   15586   15587   15586   15587   15587       0   15589   15590
   15591   15590   15591   15591       0   15593   15594   15595   15594   15595
   15595       0   15597   15598   15599   15598   15599   15599       0   15601
   15602   15603   15602   15603   15603       0   15605   15606   15607   15606
   15607   15607       0   15609   15610   15611   15610   15611   15611       0
   15613   15614   15615   15614   15615   15615       0   15617   15618   15619
   15618   15619   15619       0   15621   15622   15623   15622   15623   15623
       0   15625   15626   15627   15626   15627   15627       0   15629   15630
   15631   15630   15631   15631       0   15633   15634   15635   15634   15635
   15635       0   15637   15638   15639   15638   15639   15639       0   15641
   15642   15643   15642   15643   15643       0   15645   15646   15647   15646
   15647   15647       0   15649   15650   15651   15650   15651   15651       0
   15653   15654   15655   15654   15655   15655       0   15657   15658   15659
   15658   15659   15659       0   15661   15662   15663   15662   15663   15663
       0   15665   15666   15667   15666   15667   15667       0   15669   15670
   15671   15670   15671   15671       0   15673   15674   15675   15674   15675
   15675       0   15677   15678   15679   15678   15679   15679       0   15681
   15682   15683   15682   15683   15683       0   15685   15686   15687   15686
   15687   15687       0   15689   15690   15691   15690   15691   15691       0
   15693   15694   15695   15694   15695   15695       0   15697   15698   15699
   15698   15699   15699       0   15701   15702   15703   15702   15703   15703
       0   15705   15706   15707   15706   15707   15707       0   15709   15710
   15711   15710   15711   15711       0   15713   15714   15715   15714   15715
   15715       0   15717   15718   15719   15718   15719   15719       0   15721
   15722   15723   15722   15723   15723       0   15725   15726   15727   15726
   15727   15727       0   15729   15730   15731   15730   15731   15731       0
   15733   15734   15735   15734   15735   15735       0   15737   15738   15739
   15738   15739   15739       0   15741   15742   15743   15742   15743   15743
       0   15745   15746   15747   15746   15747   15747       0   15749   15750
   15751   15750   15751   15751       0   15753   15754   15755   15754   15755
   15755       0   15757   15758   15759   15758   15759   15759       0   15761
   15762   15763   15762   15763   15763       0   15765   15766   15767   15766
   15767   15767       0   15769   15770   15771   15770   15771   15771       0
   15773   15774   15775   15774   15775   15775       0   15777   15778   15779
   15778   15779   15779       0   15781   15782   15783   15782   15783   15783
       0   15785   15786   15787   15786   15787   15787       0   15789   15790
   15791   15790   15791   15791       0   15793   15794   15795   15794   15795
   15795       0   15797   15798   15799   15798   15799   15799       0   15801
   15802   15803   15802   15803   15803       0   15805   15806   15807   15806
   15807   15807       0   15809   15810   15811   15810   15811   15811       0
   15813   15814   15815   15814   15815   15815       0   15817   15818   15819
   15818   15819   15819       0   15821   15822   15823   15822   15823   15823
       0   15825   15826   15827   15826   15827   15827       0   15829   15830
   15831   15830   15831   15831       0   15833   15834   15835   15834   15835
   15835       0   15837   15838   15839   15838   15839   15839       0   15841
   15842   15843   15842   15843   15843       0   15845   15846   15847   15846
   15847   15847       0   15849   15850   15851   15850   15851   15851       0
   15853   15854   15855   15854   15855   15855       0   15857   15858   15859
   15858   15859   15859       0   15861   15862   15863   15862   15863   15863
       0   15865   15866   15867   15866   15867   15867       0   15869   15870
   15871   15870   15871   15871       0   15873   15874   15875   15874   15875
   15875       0   15877   15878   15879   15878   15879   15879       0   15881
   15882   15883   15882   15883   15883       0   15885   15886   15887   15886
   15887   15887       0   15889   15890   15891   15890   15891   15891       0
   15893   15894   15895   15894   15895   15895       0   15897   15898   15899
   15898   15899   15899       0   15901   15902   15903   15902   15903   15903
       0   15905   15906   15907   15906   15907   15907       0   15909   15910
   15911   15910   15911   15911       0   15913   15914   15915   15914   15915
   15915       0   15917   15918   15919   15918   15919   15919       0   15921
   15922   15923   15922   15923   15923       0   15925   15926   15927   15926
   15927   15927       0   15929   15930   15931   15930   15931   15931       0
   15933   15934   15935   15934   15935   15935       0   15937   15938   15939
   15938   15939   15939       0   15941   15942   15943   15942   15943   15943
       0   15945   15946   15947   15946   15947   15947       0   15949   15950
   15951   15950   15951   15951       0   15953   15954   15955   15954   15955
   15955       0   15957   15958   15959   15958   15959   15959       0   15961
   15962   15963   15962   15963   15963       0   15965   15966   15967   15966
   15967   15967       0   15969   15970   15971   15970   15971   15971       0
   15973   15974   15975   15974   15975   15975       0   15977   15978   15979
   15978   15979   15979       0   15981   15982   15983   15982   15983   15983
       0   15985   15986   15987   15986   15987   15987       0   15989   15990
   15991   15990   15991   15991       0   15993   15994   15995   15994   15995
   15995       0   15997   15998   15999   15998   15999   15999       0   16001
   16002   16003   16002   16003   16003       0   16005   16006   16007   16006
   16007   16007       0   16009   16010   16011   16010   16011   16011       0
   16013   16014   16015   16014   16015   16015       0   16017   16018   16019
   16018   16019   16019       0   16021   16022   16023   16022   16023   16023
       0   16025   16026   16027   16026   16027   16027       0   16029   16030
   16031   16030   16031   16031       0   16033   16034   16035   16034   16035
   16035       0   16037   16038   16039   16038   16039   16039       0   16041
   16042   16043   16042   16043   16043       0   16045   16046   16047   16046
   16047   16047       0   16049   16050   16051   16050   16051   16051       0
   16053   16054   16055   16054   16055   16055       0   16057   16058   16059
   16058   16059   16059       0   16061   16062   16063   16062   16063   16063
       0   16065   16066   16067   16066   16067   16067       0   16069   16070
   16071   16070   16071   16071       0   16073   16074   16075   16074   16075
   16075       0   16077   16078   16079   16078   16079   16079       0   16081
   16082   16083   16082   16083   16083       0   16085   16086   16087   16086
   16087   16087       0   16089   16090   16091   16090   16091   16091       0
   16093   16094   16095   16094   16095   16095       0   16097   16098   16099
   16098   16099   16099       0   16101   16102   16103   16102   16103   16103
       0   16105   16106   16107   16106   16107   16107       0   16109   16110
   16111   16110   16111   16111       0   16113   16114   16115   16114   16115
   16115       0   16117   16118   16119   16118   16119   16119       0   16121
   16122   16123   16122   16123   16123       0   16125   16126   16127   16126
   16127   16127       0   16129   16130   16131   16130   16131   16131       0
   16133   16134   16135   16134   16135   16135       0   16137   16138   16139
   16138   16139   16139       0   16141   16142   16143   16142   16143   16143
       0   16145   16146   16147   16146   16147   16147       0   16149   16150
   16151   16150   16151   16151       0   16153   16154   16155   16154   16155
   16155       0   16157   16158   16159   16158   16159   16159       0   16161
   16162   16163   16162   16163   16163       0   16165   16166   16167   16166
   16167   16167       0   16169   16170   16171   16170   16171   16171       0
   16173   16174   16175   16174   16175   16175       0   16177   16178   16179
   16178   16179   16179       0   16181   16182   16183   16182   16183   16183
       0   16185   16186   16187   16186   16187   16187       0   16189   16190
   16191   16190   16191   16191       0   16193   16194   16195   16194   16195
   16195       0   16197   16198   16199   16198   16199   16199       0   16201
   16202   16203   16202   16203   16203       0   16205   16206   16207   16206
   16207   16207       0   16209   16210   16211   16210   16211   16211       0
   16213   16214   16215   16214   16215   16215       0   16217   16218   16219
   16218   16219   16219       0   16221   16222   16223   16222   16223   16223
       0   16225   16226   16227   16226   16227   16227       0   16229   16230
   16231   16230   16231   16231       0   16233   16234   16235   16234   16235
   16235       0   16237   16238   16239   16238   16239   16239       0   16241
   16242   16243   16242   16243   16243       0   16245   16246   16247   16246
   16247   16247       0   16249   16250   16251   16250   16251   16251       0
   16253   16254   16255   16254   16255   16255       0   16257   16258   16259
   16258   16259   16259       0   16261   16262   16263   16262   16263   16263
       0   16265   16266   16267   16266   16267   16267       0   16269   16270
   16271   16270   16271   16271       0   16273   16274   16275   16274   16275
   16275       0   16277   16278   16279   16278   16279   16279       0   16281
   16282   16283   16282   16283   16283       0   16285   16286   16287   16286
   16287   16287       0   16289   16290   16291   16290   16291   16291       0
   16293   16294   16295   16294   16295   16295       0   16297   16298   16299
   16298   16299   16299       0   16301   16302   16303   16302   16303   16303
       0   16305   16306   16307   16306   16307   16307       0   16309   16310
   16311   16310   16311   16311       0   16313   16314   16315   16314   16315
   16315       0   16317   16318   16319   16318   16319   16319       0   16321
   16322   16323   16322   16323   16323       0   16325   16326   16327   16326
   16327   16327       0   16329   16330   16331   16330   16331   16331       0
   16333   16334   16335   16334   16335   16335       0   16337   16338   16339
   16338   16339   16339       0   16341   16342   16343   16342   16343   16343
       0   16345   16346   16347   16346   16347   16347       0   16349   16350
   16351   16350   16351   16351       0   16353   16354   16355   16354   16355
   16355       0   16357   16358   16359   16358   16359   16359       0   16361
   16362   16363   16362   16363   16363       0   16365   16366   16367   16366
   16367   16367       0   16369   16370   16371   16370   16371   16371       0
   16373   16374   16375   16374   16375   16375       0   16377   16378   16379
   16378   16379   16379       0   16381   16382   16383   16382   16383   16383
       0   16385   16386   16387   16386   16387   16387       0   16389   16390
   16391   16390   16391   16391       0   16393   16394   16395   16394   16395
   16395       0   16397   16398   16399   16398   16399   16399       0   16401
   16402   16403   16402   16403   16403       0   16405   16406   16407   16406
   16407   16407       0   16409   16410   16411   16410   16411   16411       0
   16413   16414   16415   16414   16415   16415       0   16417   16418   16419
   16418   16419   16419       0   16421   16422   16423   16422   16423   16423
       0   16425   16426   16427   16426   16427   16427       0   16429   16430
   16431   16430   16431   16431       0   16433   16434   16435   16434   16435
   16435       0   16437   16438   16439   16438   16439   16439       0   16441
   16442   16443   16442   16443   16443       0   16445   16446   16447   16446
   16447   16447       0   16449   16450   16451   16450   16451   16451       0
   16453   16454   16455   16454   16455   16455       0   16457   16458   16459
   16458   16459   16459       0   16461   16462   16463   16462   16463   16463
       0   16465   16466   16467   16466   16467   16467       0   16469   16470
   16471   16470   16471   16471       0   16473   16474   16475   16474   16475
   16475       0   16477   16478   16479   16478   16479   16479       0   16481
   16482   16483   16482   16483   16483       0   16485   16486   16487   16486
   16487   16487       0   16489   16490   16491   16490   16491   16491       0
   16493   16494   16495   16494   16495   16495       0   16497   16498   16499
   16498   16499   16499       0   16501   16502   16503   16502   16503   16503
       0   16505   16506   16507   16506   16507   16507       0   16509   16510
   16511   16510   16511   16511       0   16513   16514   16515   16514   16515
   16515       0   16517   16518   16519   16518   16519   16519       0   16521
   16522   16523   16522   16523   16523       0   16525   16526   16527   16526
   16527   16527       0   16529   16530   16531   16530   16531   16531       0
   16533   16534   16535   16534   16535   16535       0   16537   16538   16539
   16538   16539   16539       0   16541   16542   16543   16542   16543   16543
       0   16545   16546   16547   16546   16547   16547       0   16549   16550
   16551   16550   16551   16551       0   16553   16554   16555   16554   16555
   16555       0   16557   16558   16559   16558   16559   16559       0   16561
   16562   16563   16562   16563   16563       0   16565   16566   16567   16566
   16567   16567       0   16569   16570   16571   16570   16571   16571       0
   16573   16574   16575   16574   16575   16575       0   16577   16578   16579
   16578   16579   16579       0   16581   16582   16583   16582   16583   16583
       0   16585   16586   16587   16586   16587   16587       0   16589   16590
   16591   16590   16591   16591       0   16593   16594   16595   16594   16595
   16595       0   16597   16598   16599   16598   16599   16599       0   16601
   16602   16603   16602   16603   16603       0   16605   16606   16607   16606
   16607   16607       0   16609   16610   16611   16610   16611   16611       0
   16613   16614   16615   16614   16615   16615       0   16617   16618   16619
   16618   16619   16619       0   16621   16622   16623   16622   16623   16623
       0   16625   16626   16627   16626   16627   16627       0   16629   16630
   16631   16630   16631   16631       0   16633   16634   16635   16634   16635
   16635       0   16637   16638   16639   16638   16639   16639       0   16641
   16642   16643   16642   16643   16643       0   16645   16646   16647   16646
   16647   16647       0   16649   16650   16651   16650   16651   16651       0
   16653   16654   16655   16654   16655   16655       0   16657   16658   16659
   16658   16659   16659       0   16661   16662   16663   16662   16663   16663
       0   16665   16666   16667   16666   16667   16667       0   16669   16670
   16671   16670   16671   16671       0   16673   16674   16675   16674   16675
   16675       0   16677   16678   16679   16678   16679   16679       0   16681
   16682   16683   16682   16683   16683       0   16685   16686   16687   16686
   16687   16687       0   16689   16690   16691   16690   16691   16691       0
   16693   16694   16695   16694   16695   16695       0   16697   16698   16699
   16698   16699   16699       0   16701   16702   16703   16702   16703   16703
       0   16705   16706   16707   16706   16707   16707       0   16709   16710
   16711   16710   16711   16711       0   16713   16714   16715   16714   16715
   16715       0   16717   16718   16719   16718   16719   16719       0   16721
   16722   16723   16722   16723   16723       0   16725   16726   16727   16726
   16727   16727       0   16729   16730   16731   16730   16731   16731       0
   16733   16734   16735   16734   16735   16735       0   16737   16738   16739
   16738   16739   16739       0   16741   16742   16743   16742   16743   16743
       0   16745   16746   16747   16746   16747   16747       0   16749   16750
   16751   16750   16751   16751       0   16753   16754   16755   16754   16755
   16755       0   16757   16758   16759   16758   16759   16759       0   16761
   16762   16763   16762   16763   16763       0   16765   16766   16767   16766
   16767   16767       0   16769   16770   16771   16770   16771   16771       0
   16773   16774   16775   16774   16775   16775       0   16777   16778   16779
   16778   16779   16779       0   16781   16782   16783   16782   16783   16783
       0   16785   16786   16787   16786   16787   16787       0   16789   16790
   16791   16790   16791   16791       0   16793   16794   16795   16794   16795
   16795       0   16797   16798   16799   16798   16799   16799       0   16801
   16802   16803   16802   16803   16803       0   16805   16806   16807   16806
   16807   16807       0   16809   16810   16811   16810   16811   16811       0
   16813   16814   16815   16814   16815   16815       0   16817   16818   16819
   16818   16819   16819       0   16821   16822   16823   16822   16823   16823
       0   16825   16826   16827   16826   16827   16827       0   16829   16830
   16831   16830   16831   16831       0   16833   16834   16835   16834   16835
   16835       0   16837   16838   16839   16838   16839   16839       0   16841
   16842   16843   16842   16843   16843       0   16845   16846   16847   16846
   16847   16847       0   16849   16850   16851   16850   16851   16851       0
   16853   16854   16855   16854   16855   16855       0   16857   16858   16859
   16858   16859   16859       0   16861   16862   16863   16862   16863   16863
       0   16865   16866   16867   16866   16867   16867       0   16869   16870
   16871   16870   16871   16871       0   16873   16874   16875   16874   16875
   16875       0   16877   16878   16879   16878   16879   16879       0   16881
   16882   16883   16882   16883   16883       0   16885   16886   16887   16886
   16887   16887       0   16889   16890   16891   16890   16891   16891       0
   16893   16894   16895   16894   16895   16895       0   16897   16898   16899
   16898   16899   16899       0   16901   16902   16903   16902   16903   16903
       0   16905   16906   16907   16906   16907   16907       0   16909   16910
   16911   16910   16911   16911       0   16913   16914   16915   16914   16915
   16915       0   16917   16918   16919   16918   16919   16919       0   16921
   16922   16923   16922   16923   16923       0   16925   16926   16927   16926
   16927   16927       0   16929   16930   16931   16930   16931   16931       0
   16933   16934   16935   16934   16935   16935       0   16937   16938   16939
   16938   16939   16939       0   16941   16942   16943   16942   16943   16943
       0   16945   16946   16947   16946   16947   16947       0   16949   16950
   16951   16950   16951   16951       0   16953   16954   16955   16954   16955
   16955       0   16957   16958   16959   16958   16959   16959       0   16961
   16962   16963   16962   16963   16963       0   16965   16966   16967   16966
   16967   16967       0   16969   16970   16971   16970   16971   16971       0
   16973   16974   16975   16974   16975   16975       0   16977   16978   16979
   16978   16979   16979       0   16981   16982   16983   16982   16983   16983
       0   16985   16986   16987   16986   16987   16987       0   16989   16990
   16991   16990   16991   16991       0   16993   16994   16995   16994   16995
   16995       0   16997   16998   16999   16998   16999   16999       0   17001
   17002   17003   17002   17003   17003       0   17005   17006   17007   17006
   17007   17007       0   17009   17010   17011   17010   17011   17011       0
   17013   17014   17015   17014   17015   17015       0   17017   17018   17019
   17018   17019   17019       0   17021   17022   17023   17022   17023   17023
       0   17025   17026   17027   17026   17027   17027       0   17029   17030
   17031   17030   17031   17031       0   17033   17034   17035   17034   17035
   17035       0   17037   17038   17039   17038   17039   17039       0   17041
   17042   17043   17042   17043   17043       0   17045   17046   17047   17046
   17047   17047       0   17049   17050   17051   17050   17051   17051       0
   17053   17054   17055   17054   17055   17055       0   17057   17058   17059
   17058   17059   17059       0   17061   17062   17063   17062   17063   17063
       0   17065   17066   17067   17066   17067   17067       0   17069   17070
   17071   17070   17071   17071       0   17073   17074   17075   17074   17075
   17075       0   17077   17078   17079   17078   17079   17079       0   17081
   17082   17083   17082   17083   17083       0   17085   17086   17087   17086
   17087   17087       0   17089   17090   17091   17090   17091   17091       0
   17093   17094   17095   17094   17095   17095       0   17097   17098   17099
   17098   17099   17099       0   17101   17102   17103   17102   17103   17103
       0   17105   17106   17107   17106   17107   17107       0   17109   17110
   17111   17110   17111   17111       0   17113   17114   17115   17114   17115
   17115       0   17117   17118   17119   17118   17119   17119       0   17121
   17122   17123   17122   17123   17123       0   17125   17126   17127   17126
   17127   17127       0   17129   17130   17131   17130   17131   17131       0
   17133   17134   17135   17134   17135   17135       0   17137   17138   17139
   17138   17139   17139       0   17141   17142   17143   17142   17143   17143
       0   17145   17146   17147   17146   17147   17147       0   17149   17150
   17151   17150   17151   17151       0   17153   17154   17155   17154   17155
   17155       0   17157   17158   17159   17158   17159   17159       0   17161
   17162   17163   17162   17163   17163       0   17165   17166   17167   17166
   17167   17167       0   17169   17170   17171   17170   17171   17171       0
   17173   17174   17175   17174   17175   17175       0   17177   17178   17179
   17178   17179   17179       0   17181   17182   17183   17182   17183   17183
       0   17185   17186   17187   17186   17187   17187       0   17189   17190
   17191   17190   17191   17191       0   17193   17194   17195   17194   17195
   17195       0   17197   17198   17199   17198   17199   17199       0   17201
   17202   17203   17202   17203   17203       0   17205   17206   17207   17206
   17207   17207       0   17209   17210   17211   17210   17211   17211       0
   17213   17214   17215   17214   17215   17215       0   17217   17218   17219
   17218   17219   17219       0   17221   17222   17223   17222   17223   17223
       0   17225   17226   17227   17226   17227   17227       0   17229   17230
   17231   17230   17231   17231       0   17233   17234   17235   17234   17235
   17235       0   17237   17238   17239   17238   17239   17239       0   17241
   17242   17243   17242   17243   17243       0   17245   17246   17247   17246
   17247   17247       0   17249   17250   17251   17250   17251   17251       0
   17253   17254   17255   17254   17255   17255       0   17257   17258   17259
   17258   17259   17259       0   17261   17262   17263   17262   17263   17263
       0   17265   17266   17267   17266   17267   17267       0   17269   17270
   17271   17270   17271   17271       0   17273   17274   17275   17274   17275
   17275       0   17277   17278   17279   17278   17279   17279       0   17281
   17282   17283   17282   17283   17283       0   17285   17286   17287   17286
   17287   17287       0   17289   17290   17291   17290   17291   17291       0
   17293   17294   17295   17294   17295   17295       0   17297   17298   17299
   17298   17299   17299       0   17301   17302   17303   17302   17303   17303
       0   17305   17306   17307   17306   17307   17307       0   17309   17310
   17311   17310   17311   17311       0   17313   17314   17315   17314   17315
   17315       0   17317   17318   17319   17318   17319   17319       0   17321
   17322   17323   17322   17323   17323       0   17325   17326   17327   17326
   17327   17327       0   17329   17330   17331   17330   17331   17331       0
   17333   17334   17335   17334   17335   17335       0   17337   17338   17339
   17338   17339   17339       0   17341   17342   17343   17342   17343   17343
       0   17345   17346   17347   17346   17347   17347       0   17349   17350
   17351   17350   17351   17351       0   17353   17354   17355   17354   17355
   17355       0   17357   17358   17359   17358   17359   17359       0   17361
   17362   17363   17362   17363   17363       0   17365   17366   17367   17366
   17367   17367       0   17369   17370   17371   17370   17371   17371       0
   17373   17374   17375   17374   17375   17375       0   17377   17378   17379
   17378   17379   17379       0   17381   17382   17383   17382   17383   17383
       0   17385   17386   17387   17386   17387   17387       0   17389   17390
   17391   17390   17391   17391       0   17393   17394   17395   17394   17395
   17395       0   17397   17398   17399   17398   17399   17399       0   17401
   17402   17403   17402   17403   17403       0   17405   17406   17407   17406
   17407   17407       0   17409   17410   17411   17410   17411   17411       0
   17413   17414   17415   17414   17415   17415       0   17417   17418   17419
   17418   17419   17419       0   17421   17422   17423   17422   17423   17423
       0   17425   17426   17427   17426   17427   17427       0   17429   17430
   17431   17430   17431   17431       0   17433   17434   17435   17434   17435
   17435       0   17437   17438   17439   17438   17439   17439       0   17441
   17442   17443   17442   17443   17443       0   17445   17446   17447   17446
   17447   17447       0   17449   17450   17451   17450   17451   17451       0
   17453   17454   17455   17454   17455   17455       0   17457   17458   17459
   17458   17459   17459       0   17461   17462   17463   17462   17463   17463
       0   17465   17466   17467   17466   17467   17467       0   17469   17470
   17471   17470   17471   17471       0   17473   17474   17475   17474   17475
   17475       0   17477   17478   17479   17478   17479   17479       0   17481
   17482   17483   17482   17483   17483       0   17485   17486   17487   17486
   17487   17487       0   17489   17490   17491   17490   17491   17491       0
   17493   17494   17495   17494   17495   17495       0   17497   17498   17499
   17498   17499   17499       0   17501   17502   17503   17502   17503   17503
       0   17505   17506   17507   17506   17507   17507       0   17509   17510
   17511   17510   17511   17511       0   17513   17514   17515   17514   17515
   17515       0   17517   17518   17519   17518   17519   17519       0   17521
   17522   17523   17522   17523   17523       0   17525   17526   17527   17526
   17527   17527       0   17529   17530   17531   17530   17531   17531       0
   17533   17534   17535   17534   17535   17535       0   17537   17538   17539
   17538   17539   17539       0   17541   17542   17543   17542   17543   17543
       0   17545   17546   17547   17546   17547   17547       0   17549   17550
   17551   17550   17551   17551       0   17553   17554   17555   17554   17555
   17555       0   17557   17558   17559   17558   17559   17559       0   17561
   17562   17563   17562   17563   17563       0   17565   17566   17567   17566
   17567   17567       0   17569   17570   17571   17570   17571   17571       0
   17573   17574   17575   17574   17575   17575       0   17577   17578   17579
   17578   17579   17579       0   17581   17582   17583   17582   17583   17583
       0   17585   17586   17587   17586   17587   17587       0   17589   17590
   17591   17590   17591   17591       0   17593   17594   17595   17594   17595
   17595       0   17597   17598   17599   17598   17599   17599       0   17601
   17602   17603   17602   17603   17603       0   17605   17606   17607   17606
   17607   17607       0   17609   17610   17611   17610   17611   17611       0
   17613   17614   17615   17614   17615   17615       0   17617   17618   17619
   17618   17619   17619       0   17621   17622   17623   17622   17623   17623
       0   17625   17626   17627   17626   17627   17627       0   17629   17630
   17631   17630   17631   17631       0   17633   17634   17635   17634   17635
   17635       0   17637   17638   17639   17638   17639   17639       0   17641
   17642   17643   17642   17643   17643       0   17645   17646   17647   17646
   17647   17647       0   17649   17650   17651   17650   17651   17651       0
   17653   17654   17655   17654   17655   17655       0   17657   17658   17659
   17658   17659   17659       0   17661   17662   17663   17662   17663   17663
       0   17665   17666   17667   17666   17667   17667       0   17669   17670
   17671   17670   17671   17671       0   17673   17674   17675   17674   17675
   17675       0   17677   17678   17679   17678   17679   17679       0   17681
   17682   17683   17682   17683   17683       0   17685   17686   17687   17686
   17687   17687       0   17689   17690   17691   17690   17691   17691       0
   17693   17694   17695   17694   17695   17695       0   17697   17698   17699
   17698   17699   17699       0   17701   17702   17703   17702   17703   17703
       0   17705   17706   17707   17706   17707   17707       0   17709   17710
   17711   17710   17711   17711       0   17713   17714   17715   17714   17715
   17715       0   17717   17718   17719   17718   17719   17719       0   17721
   17722   17723   17722   17723   17723       0   17725   17726   17727   17726
   17727   17727       0   17729   17730   17731   17730   17731   17731       0
   17733   17734   17735   17734   17735   17735       0   17737   17738   17739
   17738   17739   17739       0   17741   17742   17743   17742   17743   17743
       0   17745   17746   17747   17746   17747   17747       0   17749   17750
   17751   17750   17751   17751       0   17753   17754   17755   17754   17755
   17755       0   17757   17758   17759   17758   17759   17759       0   17761
   17762   17763   17762   17763   17763       0   17765   17766   17767   17766
   17767   17767       0   17769   17770   17771   17770   17771   17771       0
   17773   17774   17775   17774   17775   17775       0   17777   17778   17779
   17778   17779   17779       0   17781   17782   17783   17782   17783   17783
       0   17785   17786   17787   17786   17787   17787       0   17789   17790
   17791   17790   17791   17791       0   17793   17794   17795   17794   17795
   17795       0   17797   17798   17799   17798   17799   17799       0   17801
   17802   17803   17802   17803   17803       0   17805   17806   17807   17806
   17807   17807       0   17809   17810   17811   17810   17811   17811       0
   17813   17814   17815   17814   17815   17815       0   17817   17818   17819
   17818   17819   17819       0   17821   17822   17823   17822   17823   17823
       0   17825   17826   17827   17826   17827   17827       0   17829   17830
   17831   17830   17831   17831       0   17833   17834   17835   17834   17835
   17835       0   17837   17838   17839   17838   17839   17839       0   17841
   17842   17843   17842   17843   17843       0   17845   17846   17847   17846
   17847   17847       0   17849   17850   17851   17850   17851   17851       0
   17853   17854   17855   17854   17855   17855       0   17857   17858   17859
   17858   17859   17859       0   17861   17862   17863   17862   17863   17863
       0   17865   17866   17867   17866   17867   17867       0   17869   17870
   17871   17870   17871   17871       0   17873   17874   17875   17874   17875
   17875       0   17877   17878   17879   17878   17879   17879       0   17881
   17882   17883   17882   17883   17883       0   17885   17886   17887   17886
   17887   17887       0   17889   17890   17891   17890   17891   17891       0
   17893   17894   17895   17894   17895   17895       0   17897   17898   17899
   17898   17899   17899       0   17901   17902   17903   17902   17903   17903
       0   17905   17906   17907   17906   17907   17907       0   17909   17910
   17911   17910   17911   17911       0   17913   17914   17915   17914   17915
   17915       0   17917   17918   17919   17918   17919   17919       0   17921
   17922   17923   17922   17923   17923       0   17925   17926   17927   17926
   17927   17927       0   17929   17930   17931   17930   17931   17931       0
   17933   17934   17935   17934   17935   17935       0   17937   17938   17939
   17938   17939   17939       0   17941   17942   17943   17942   17943   17943
       0   17945   17946   17947   17946   17947   17947       0   17949   17950
   17951   17950   17951   17951       0   17953   17954   17955   17954   17955
   17955       0   17957   17958   17959   17958   17959   17959       0   17961
   17962   17963   17962   17963   17963       0   17965   17966   17967   17966
   17967   17967       0   17969   17970   17971   17970   17971   17971       0
   17973   17974   17975   17974   17975   17975       0   17977   17978   17979
   17978   17979   17979       0   17981   17982   17983   17982   17983   17983
       0   17985   17986   17987   17986   17987   17987       0   17989   17990
   17991   17990   17991   17991       0   17993   17994   17995   17994   17995
   17995       0   17997   17998   17999   17998   17999   17999       0   18001
   18002   18003   18002   18003   18003       0   18005   18006   18007   18006
   18007   18007       0   18009   18010   18011   18010   18011   18011       0
   18013   18014   18015   18014   18015   18015       0   18017   18018   18019
   18018   18019   18019       0   18021   18022   18023   18022   18023   18023
       0   18025   18026   18027   18026   18027   18027       0   18029   18030
   18031   18030   18031   18031       0   18033   18034   18035   18034   18035
   18035       0   18037   18038   18039   18038   18039   18039       0   18041
   18042   18043   18042   18043   18043       0   18045   18046   18047   18046
   18047   18047       0   18049   18050   18051   18050   18051   18051       0
   18053   18054   18055   18054   18055   18055       0   18057   18058   18059
   18058   18059   18059       0   18061   18062   18063   18062   18063   18063
       0   18065   18066   18067   18066   18067   18067       0   18069   18070
   18071   18070   18071   18071       0   18073   18074   18075   18074   18075
   18075       0   18077   18078   18079   18078   18079   18079       0   18081
   18082   18083   18082   18083   18083       0   18085   18086   18087   18086
   18087   18087       0   18089   18090   18091   18090   18091   18091       0
   18093   18094   18095   18094   18095   18095       0   18097   18098   18099
   18098   18099   18099       0   18101   18102   18103   18102   18103   18103
       0   18105   18106   18107   18106   18107   18107       0   18109   18110
   18111   18110   18111   18111       0   18113   18114   18115   18114   18115
   18115       0   18117   18118   18119   18118   18119   18119       0   18121
   18122   18123   18122   18123   18123       0   18125   18126   18127   18126
   18127   18127       0   18129   18130   18131   18130   18131   18131       0
   18133   18134   18135   18134   18135   18135       0   18137   18138   18139
   18138   18139   18139       0   18141   18142   18143   18142   18143   18143
       0   18145   18146   18147   18146   18147   18147       0   18149   18150
   18151   18150   18151   18151       0   18153   18154   18155   18154   18155
   18155       0   18157   18158   18159   18158   18159   18159       0   18161
   18162   18163   18162   18163   18163       0   18165   18166   18167   18166
   18167   18167       0   18169   18170   18171   18170   18171   18171       0
   18173   18174   18175   18174   18175   18175       0   18177   18178   18179
   18178   18179   18179       0   18181   18182   18183   18182   18183   18183
       0   18185   18186   18187   18186   18187   18187       0   18189   18190
   18191   18190   18191   18191       0   18193   18194   18195   18194   18195
   18195       0   18197   18198   18199   18198   18199   18199       0   18201
   18202   18203   18202   18203   18203       0   18205   18206   18207   18206
   18207   18207       0   18209   18210   18211   18210   18211   18211       0
   18213   18214   18215   18214   18215   18215       0   18217   18218   18219
   18218   18219   18219       0   18221   18222   18223   18222   18223   18223
       0   18225   18226   18227   18226   18227   18227       0   18229   18230
   18231   18230   18231   18231       0   18233   18234   18235   18234   18235
   18235       0   18237   18238   18239   18238   18239   18239       0   18241
   18242   18243   18242   18243   18243       0   18245   18246   18247   18246
   18247   18247       0   18249   18250   18251   18250   18251   18251       0
   18253   18254   18255   18254   18255   18255       0   18257   18258   18259
   18258   18259   18259       0   18261   18262   18263   18262   18263   18263
       0   18265   18266   18267   18266   18267   18267       0   18269   18270
   18271   18270   18271   18271       0   18273   18274   18275   18274   18275
   18275       0   18277   18278   18279   18278   18279   18279       0   18281
   18282   18283   18282   18283   18283       0   18285   18286   18287   18286
   18287   18287       0   18289   18290   18291   18290   18291   18291       0
   18293   18294   18295   18294   18295   18295       0   18297   18298   18299
   18298   18299   18299       0   18301   18302   18303   18302   18303   18303
       0   18305   18306   18307   18306   18307   18307       0   18309   18310
   18311   18310   18311   18311       0   18313   18314   18315   18314   18315
   18315       0   18317   18318   18319   18318   18319   18319       0   18321
   18322   18323   18322   18323   18323       0   18325   18326   18327   18326
   18327   18327       0   18329   18330   18331   18330   18331   18331       0
   18333   18334   18335   18334   18335   18335       0   18337   18338   18339
   18338   18339   18339       0   18341   18342   18343   18342   18343   18343
       0   18345   18346   18347   18346   18347   18347       0   18349   18350
   18351   18350   18351   18351       0   18353   18354   18355   18354   18355
   18355       0   18357   18358   18359   18358   18359   18359       0   18361
   18362   18363   18362   18363   18363       0   18365   18366   18367   18366
   18367   18367       0   18369   18370   18371   18370   18371   18371       0
   18373   18374   18375   18374   18375   18375       0   18377   18378   18379
   18378   18379   18379       0   18381   18382   18383   18382   18383   18383
       0   18385   18386   18387   18386   18387   18387       0   18389   18390
   18391   18390   18391   18391       0   18393   18394   18395   18394   18395
   18395       0   18397   18398   18399   18398   18399   18399       0   18401
   18402   18403   18402   18403   18403       0   18405   18406   18407   18406
   18407   18407       0   18409   18410   18411   18410   18411   18411       0
   18413   18414   18415   18414   18415   18415       0   18417   18418   18419
   18418   18419   18419       0   18421   18422   18423   18422   18423   18423
       0   18425   18426   18427   18426   18427   18427       0   18429   18430
   18431   18430   18431   18431       0   18433   18434   18435   18434   18435
   18435       0   18437   18438   18439   18438   18439   18439       0   18441
   18442   18443   18442   18443   18443       0   18445   18446   18447   18446
   18447   18447       0   18449   18450   18451   18450   18451   18451       0
   18453   18454   18455   18454   18455   18455       0   18457   18458   18459
   18458   18459   18459       0   18461   18462   18463   18462   18463   18463
       0   18465   18466   18467   18466   18467   18467       0   18469   18470
   18471   18470   18471   18471       0   18473   18474   18475   18474   18475
   18475       0   18477   18478   18479   18478   18479   18479       0   18481
   18482   18483   18482   18483   18483       0   18485   18486   18487   18486
   18487   18487       0   18489   18490   18491   18490   18491   18491       0
   18493   18494   18495   18494   18495   18495       0   18497   18498   18499
   18498   18499   18499       0   18501   18502   18503   18502   18503   18503
       0   18505   18506   18507   18506   18507   18507       0   18509   18510
   18511   18510   18511   18511       0   18513   18514   18515   18514   18515
   18515       0   18517   18518   18519   18518   18519   18519       0   18521
   18522   18523   18522   18523   18523       0   18525   18526   18527   18526
   18527   18527       0   18529   18530   18531   18530   18531   18531       0
   18533   18534   18535   18534   18535   18535       0   18537   18538   18539
   18538   18539   18539       0   18541   18542   18543   18542   18543   18543
       0   18545   18546   18547   18546   18547   18547       0   18549   18550
   18551   18550   18551   18551       0   18553   18554   18555   18554   18555
   18555       0   18557   18558   18559   18558   18559   18559       0   18561
   18562   18563   18562   18563   18563       0   18565   18566   18567   18566
   18567   18567       0   18569   18570   18571   18570   18571   18571       0
   18573   18574   18575   18574   18575   18575       0   18577   18578   18579
   18578   18579   18579       0   18581   18582   18583   18582   18583   18583
       0   18585   18586   18587   18586   18587   18587       0   18589   18590
   18591   18590   18591   18591       0   18593   18594   18595   18594   18595
   18595       0   18597   18598   18599   18598   18599   18599       0   18601
   18602   18603   18602   18603   18603       0   18605   18606   18607   18606
   18607   18607       0   18609   18610   18611   18610   18611   18611       0
   18613   18614   18615   18614   18615   18615       0   18617   18618   18619
   18618   18619   18619       0   18621   18622   18623   18622   18623   18623
       0   18625   18626   18627   18626   18627   18627       0   18629   18630
   18631   18630   18631   18631       0   18633   18634   18635   18634   18635
   18635       0   18637   18638   18639   18638   18639   18639       0   18641
   18642   18643   18642   18643   18643       0   18645   18646   18647   18646
   18647   18647       0   18649   18650   18651   18650   18651   18651       0
   18653   18654   18655   18654   18655   18655       0   18657   18658   18659
   18658   18659   18659       0   18661   18662   18663   18662   18663   18663
       0   18665   18666   18667   18666   18667   18667       0   18669   18670
   18671   18670   18671   18671       0   18673   18674   18675   18674   18675
   18675       0   18677   18678   18679   18678   18679   18679       0   18681
   18682   18683   18682   18683   18683       0   18685   18686   18687   18686
   18687   18687       0   18689   18690   18691   18690   18691   18691       0
   18693   18694   18695   18694   18695   18695       0   18697   18698   18699
   18698   18699   18699       0   18701   18702   18703   18702   18703   18703
       0   18705   18706   18707   18706   18707   18707       0   18709   18710
   18711   18710   18711   18711       0   18713   18714   18715   18714   18715
   18715       0   18717   18718   18719   18718   18719   18719       0   18721
   18722   18723   18722   18723   18723       0   18725   18726   18727   18726
   18727   18727       0   18729   18730   18731   18730   18731   18731       0
   18733   18734   18735   18734   18735   18735       0   18737   18738   18739
   18738   18739   18739       0   18741   18742   18743   18742   18743   18743
       0   18745   18746   18747   18746   18747   18747       0   18749   18750
   18751   18750   18751   18751       0   18753   18754   18755   18754   18755
   18755       0   18757   18758   18759   18758   18759   18759       0   18761
   18762   18763   18762   18763   18763       0   18765   18766   18767   18766
   18767   18767       0   18769   18770   18771   18770   18771   18771       0
   18773   18774   18775   18774   18775   18775       0   18777   18778   18779
   18778   18779   18779       0   18781   18782   18783   18782   18783   18783
       0   18785   18786   18787   18786   18787   18787       0   18789   18790
   18791   18790   18791   18791       0   18793   18794   18795   18794   18795
   18795       0   18797   18798   18799   18798   18799   18799       0   18801
   18802   18803   18802   18803   18803       0   18805   18806   18807   18806
   18807   18807       0   18809   18810   18811   18810   18811   18811       0
   18813   18814   18815   18814   18815   18815       0   18817   18818   18819
   18818   18819   18819       0   18821   18822   18823   18822   18823   18823
       0   18825   18826   18827   18826   18827   18827       0   18829   18830
   18831   18830   18831   18831       0   18833   18834   18835   18834   18835
   18835       0   18837   18838   18839   18838   18839   18839       0   18841
   18842   18843   18842   18843   18843       0   18845   18846   18847   18846
   18847   18847       0   18849   18850   18851   18850   18851   18851       0
   18853   18854   18855   18854   18855   18855       0   18857   18858   18859
   18858   18859   18859       0   18861   18862   18863   18862   18863   18863
       0   18865   18866   18867   18866   18867   18867       0   18869   18870
   18871   18870   18871   18871       0   18873   18874   18875   18874   18875
   18875       0   18877   18878   18879   18878   18879   18879       0   18881
   18882   18883   18882   18883   18883       0   18885   18886   18887   18886
   18887   18887       0   18889   18890   18891   18890   18891   18891       0
   18893   18894   18895   18894   18895   18895       0   18897   18898   18899
   18898   18899   18899       0   18901   18902   18903   18902   18903   18903
       0   18905   18906   18907   18906   18907   18907       0   18909   18910
   18911   18910   18911   18911       0   18913   18914   18915   18914   18915
   18915       0   18917   18918   18919   18918   18919   18919       0   18921
   18922   18923   18922   18923   18923       0   18925   18926   18927   18926
   18927   18927       0   18929   18930   18931   18930   18931   18931       0
   18933   18934   18935   18934   18935   18935       0   18937   18938   18939
   18938   18939   18939       0   18941   18942   18943   18942   18943   18943
       0   18945   18946   18947   18946   18947   18947       0   18949   18950
   18951   18950   18951   18951       0   18953   18954   18955   18954   18955
   18955       0   18957   18958   18959   18958   18959   18959       0   18961
   18962   18963   18962   18963   18963       0   18965   18966   18967   18966
   18967   18967       0   18969   18970   18971   18970   18971   18971       0
   18973   18974   18975   18974   18975   18975       0   18977   18978   18979
   18978   18979   18979       0   18981   18982   18983   18982   18983   18983
       0   18985   18986   18987   18986   18987   18987       0   18989   18990
   18991   18990   18991   18991       0   18993   18994   18995   18994   18995
   18995       0   18997   18998   18999   18998   18999   18999       0   19001
   19002   19003   19002   19003   19003       0   19005   19006   19007   19006
   19007   19007       0   19009   19010   19011   19010   19011   19011       0
   19013   19014   19015   19014   19015   19015       0   19017   19018   19019
   19018   19019   19019       0   19021   19022   19023   19022   19023   19023
       0   19025   19026   19027   19026   19027   19027       0   19029   19030
   19031   19030   19031   19031       0   19033   19034   19035   19034   19035
   19035       0   19037   19038   19039   19038   19039   19039       0   19041
   19042   19043   19042   19043   19043       0   19045   19046   19047   19046
   19047   19047       0   19049   19050   19051   19050   19051   19051       0
   19053   19054   19055   19054   19055   19055       0   19057   19058   19059
   19058   19059   19059       0   19061   19062   19063   19062   19063   19063
       0   19065   19066   19067   19066   19067   19067       0   19069   19070
   19071   19070   19071   19071       0   19073   19074   19075   19074   19075
   19075       0   19077   19078   19079   19078   19079   19079       0   19081
   19082   19083   19082   19083   19083       0   19085   19086   19087   19086
   19087   19087       0   19089   19090   19091   19090   19091   19091       0
   19093   19094   19095   19094   19095   19095       0   19097   19098   19099
   19098   19099   19099       0   19101   19102   19103   19102   19103   19103
       0   19105   19106   19107   19106   19107   19107       0   19109   19110
   19111   19110   19111   19111       0   19113   19114   19115   19114   19115
   19115       0   19117   19118   19119   19118   19119   19119       0   19121
   19122   19123   19122   19123   19123       0   19125   19126   19127   19126
   19127   19127       0   19129   19130   19131   19130   19131   19131       0
   19133   19134   19135   19134   19135   19135       0   19137   19138   19139
   19138   19139   19139       0   19141   19142   19143   19142   19143   19143
       0   19145   19146   19147   19146   19147   19147       0   19149   19150
   19151   19150   19151   19151       0   19153   19154   19155   19154   19155
   19155       0   19157   19158   19159   19158   19159   19159       0   19161
   19162   19163   19162   19163   19163       0   19165   19166   19167   19166
   19167   19167       0   19169   19170   19171   19170   19171   19171       0
   19173   19174   19175   19174   19175   19175       0   19177   19178   19179
   19178   19179   19179       0   19181   19182   19183   19182   19183   19183
       0   19185   19186   19187   19186   19187   19187       0   19189   19190
   19191   19190   19191   19191       0   19193   19194   19195   19194   19195
   19195       0   19197   19198   19199   19198   19199   19199       0   19201
   19202   19203   19202   19203   19203       0   19205   19206   19207   19206
   19207   19207       0   19209   19210   19211   19210   19211   19211       0
   19213   19214   19215   19214   19215   19215       0   19217   19218   19219
   19218   19219   19219       0   19221   19222   19223   19222   19223   19223
       0   19225   19226   19227   19226   19227   19227       0   19229   19230
   19231   19230   19231   19231       0   19233   19234   19235   19234   19235
   19235       0   19237   19238   19239   19238   19239   19239       0   19241
   19242   19243   19242   19243   19243       0   19245   19246   19247   19246
   19247   19247       0   19249   19250   19251   19250   19251   19251       0
   19253   19254   19255   19254   19255   19255       0   19257   19258   19259
   19258   19259   19259       0   19261   19262   19263   19262   19263   19263
       0   19265   19266   19267   19266   19267   19267       0   19269   19270
   19271   19270   19271   19271       0   19273   19274   19275   19274   19275
   19275       0   19277   19278   19279   19278   19279   19279       0   19281
   19282   19283   19282   19283   19283       0   19285   19286   19287   19286
   19287   19287       0   19289   19290   19291   19290   19291   19291       0
   19293   19294   19295   19294   19295   19295       0   19297   19298   19299
   19298   19299   19299       0   19301   19302   19303   19302   19303   19303
       0   19305   19306   19307   19306   19307   19307       0   19309   19310
   19311   19310   19311   19311       0   19313   19314   19315   19314   19315
   19315       0   19317   19318   19319   19318   19319   19319       0   19321
   19322   19323   19322   19323   19323       0   19325   19326   19327   19326
   19327   19327       0   19329   19330   19331   19330   19331   19331       0
   19333   19334   19335   19334   19335   19335       0   19337   19338   19339
   19338   19339   19339       0   19341   19342   19343   19342   19343   19343
       0   19345   19346   19347   19346   19347   19347       0   19349   19350
   19351   19350   19351   19351       0   19353   19354   19355   19354   19355
   19355       0   19357   19358   19359   19358   19359   19359       0   19361
   19362   19363   19362   19363   19363       0   19365   19366   19367   19366
   19367   19367       0   19369   19370   19371   19370   19371   19371       0
   19373   19374   19375   19374   19375   19375       0   19377   19378   19379
   19378   19379   19379       0   19381   19382   19383   19382   19383   19383
       0   19385   19386   19387   19386   19387   19387       0   19389   19390
   19391   19390   19391   19391       0   19393   19394   19395   19394   19395
   19395       0   19397   19398   19399   19398   19399   19399       0   19401
   19402   19403   19402   19403   19403       0   19405   19406   19407   19406
   19407   19407       0   19409   19410   19411   19410   19411   19411       0
   19413   19414   19415   19414   19415   19415       0   19417   19418   19419
   19418   19419   19419       0   19421   19422   19423   19422   19423   19423
       0   19425   19426   19427   19426   19427   19427       0   19429   19430
   19431   19430   19431   19431       0   19433   19434   19435   19434   19435
   19435       0   19437   19438   19439   19438   19439   19439       0   19441
   19442   19443   19442   19443   19443       0   19445   19446   19447   19446
   19447   19447       0   19449   19450   19451   19450   19451   19451       0
   19453   19454   19455   19454   19455   19455       0   19457   19458   19459
   19458   19459   19459       0   19461   19462   19463   19462   19463   19463
       0   19465   19466   19467   19466   19467   19467       0   19469   19470
   19471   19470   19471   19471       0   19473   19474   19475   19474   19475
   19475       0   19477   19478   19479   19478   19479   19479       0   19481
   19482   19483   19482   19483   19483       0   19485   19486   19487   19486
   19487   19487       0   19489   19490   19491   19490   19491   19491       0
   19493   19494   19495   19494   19495   19495       0   19497   19498   19499
   19498   19499   19499       0   19501   19502   19503   19502   19503   19503
       0   19505   19506   19507   19506   19507   19507       0   19509   19510
   19511   19510   19511   19511       0   19513   19514   19515   19514   19515
   19515       0   19517   19518   19519   19518   19519   19519       0   19521
   19522   19523   19522   19523   19523       0   19525   19526   19527   19526
   19527   19527       0   19529   19530   19531   19530   19531   19531       0
   19533   19534   19535   19534   19535   19535       0   19537   19538   19539
   19538   19539   19539       0   19541   19542   19543   19542   19543   19543
       0   19545   19546   19547   19546   19547   19547       0   19549   19550
   19551   19550   19551   19551       0   19553   19554   19555   19554   19555
   19555       0   19557   19558   19559   19558   19559   19559       0   19561
   19562   19563   19562   19563   19563       0   19565   19566   19567   19566
   19567   19567       0   19569   19570   19571   19570   19571   19571       0
   19573   19574   19575   19574   19575   19575       0   19577   19578   19579
   19578   19579   19579       0   19581   19582   19583   19582   19583   19583
       0   19585   19586   19587   19586   19587   19587       0   19589   19590
   19591   19590   19591   19591       0   19593   19594   19595   19594   19595
   19595       0   19597   19598   19599   19598   19599   19599       0   19601
   19602   19603   19602   19603   19603       0   19605   19606   19607   19606
   19607   19607       0   19609   19610   19611   19610   19611   19611       0
   19613   19614   19615   19614   19615   19615       0   19617   19618   19619
   19618   19619   19619       0   19621   19622   19623   19622   19623   19623
       0   19625   19626   19627   19626   19627   19627       0   19629   19630
   19631   19630   19631   19631       0   19633   19634   19635   19634   19635
   19635       0   19637   19638   19639   19638   19639   19639       0   19641
   19642   19643   19642   19643   19643       0   19645   19646   19647   19646
   19647   19647       0   19649   19650   19651   19650   19651   19651       0
   19653   19654   19655   19654   19655   19655       0   19657   19658   19659
   19658   19659   19659       0   19661   19662   19663   19662   19663   19663
       0   19665   19666   19667   19666   19667   19667       0   19669   19670
   19671   19670   19671   19671       0   19673   19674   19675   19674   19675
   19675       0   19677   19678   19679   19678   19679   19679       0   19681
   19682   19683   19682   19683   19683       0   19685   19686   19687   19686
   19687   19687       0   19689   19690   19691   19690   19691   19691       0
   19693   19694   19695   19694   19695   19695       0   19697   19698   19699
   19698   19699   19699       0   19701   19702   19703   19702   19703   19703
       0   19705   19706   19707   19706   19707   19707       0   19709   19710
   19711   19710   19711   19711       0   19713   19714   19715   19714   19715
   19715       0   19717   19718   19719   19718   19719   19719       0   19721
   19722   19723   19722   19723   19723       0   19725   19726   19727   19726
   19727   19727       0   19729   19730   19731   19730   19731   19731       0
   19733   19734   19735   19734   19735   19735       0   19737   19738   19739
   19738   19739   19739       0   19741   19742   19743   19742   19743   19743
       0   19745   19746   19747   19746   19747   19747       0   19749   19750
   19751   19750   19751   19751       0   19753   19754   19755   19754   19755
   19755       0   19757   19758   19759   19758   19759   19759       0   19761
   19762   19763   19762   19763   19763       0   19765   19766   19767   19766
   19767   19767       0   19769   19770   19771   19770   19771   19771       0
   19773   19774   19775   19774   19775   19775       0   19777   19778   19779
   19778   19779   19779       0   19781   19782   19783   19782   19783   19783
       0   19785   19786   19787   19786   19787   19787       0   19789   19790
   19791   19790   19791   19791       0   19793   19794   19795   19794   19795
   19795       0   19797   19798   19799   19798   19799   19799       0   19801
   19802   19803   19802   19803   19803       0   19805   19806   19807   19806
   19807   19807       0   19809   19810   19811   19810   19811   19811       0
   19813   19814   19815   19814   19815   19815       0   19817   19818   19819
   19818   19819   19819       0   19821   19822   19823   19822   19823   19823
       0   19825   19826   19827   19826   19827   19827       0   19829   19830
   19831   19830   19831   19831       0   19833   19834   19835   19834   19835
   19835       0   19837   19838   19839   19838   19839   19839       0   19841
   19842   19843   19842   19843   19843       0   19845   19846   19847   19846
   19847   19847       0   19849   19850   19851   19850   19851   19851       0
   19853   19854   19855   19854   19855   19855       0   19857   19858   19859
   19858   19859   19859       0   19861   19862   19863   19862   19863   19863
       0   19865   19866   19867   19866   19867   19867       0   19869   19870
   19871   19870   19871   19871       0   19873   19874   19875   19874   19875
   19875       0   19877   19878   19879   19878   19879   19879       0   19881
   19882   19883   19882   19883   19883       0   19885   19886   19887   19886
   19887   19887       0   19889   19890   19891   19890   19891   19891       0
   19893   19894   19895   19894   19895   19895       0   19897   19898   19899
   19898   19899   19899       0   19901   19902   19903   19902   19903   19903
       0   19905   19906   19907   19906   19907   19907       0   19909   19910
   19911   19910   19911   19911       0   19913   19914   19915   19914   19915
   19915       0   19917   19918   19919   19918   19919   19919       0   19921
   19922   19923   19922   19923   19923       0   19925   19926   19927   19926
   19927   19927       0   19929   19930   19931   19930   19931   19931       0
   19933   19934   19935   19934   19935   19935       0   19937   19938   19939
   19938   19939   19939       0   19941   19942   19943   19942   19943   19943
       0   19945   19946   19947   19946   19947   19947       0   19949   19950
   19951   19950   19951   19951       0   19953   19954   19955   19954   19955
   19955       0   19957   19958   19959   19958   19959   19959       0   19961
   19962   19963   19962   19963   19963       0   19965   19966   19967   19966
   19967   19967       0   19969   19970   19971   19970   19971   19971       0
   19973   19974   19975   19974   19975   19975       0   19977   19978   19979
   19978   19979   19979       0   19981   19982   19983   19982   19983   19983
       0   19985   19986   19987   19986   19987   19987       0   19989   19990
   19991   19990   19991   19991       0   19993   19994   19995   19994   19995
   19995       0   19997   19998   19999   19998   19999   19999       0   20001
   20002   20003   20002   20003   20003       0   20005   20006   20007   20006
   20007   20007       0   20009   20010   20011   20010   20011   20011       0
   20013   20014   20015   20014   20015   20015       0   20017   20018   20019
   20018   20019   20019       0   20021   20022   20023   20022   20023   20023
       0   20025   20026   20027   20026   20027   20027       0   20029   20030
   20031   20030   20031   20031       0   20033   20034   20035   20034   20035
   20035       0   20037   20038   20039   20038   20039   20039       0   20041
   20042   20043   20042   20043   20043       0   20045   20046   20047   20046
   20047   20047       0   20049   20050   20051   20050   20051   20051       0
   20053   20054   20055   20054   20055   20055       0   20057   20058   20059
   20058   20059   20059       0   20061   20062   20063   20062   20063   20063
       0   20065   20066   20067   20066   20067   20067       0   20069   20070
   20071   20070   20071   20071       0   20073   20074   20075   20074   20075
   20075       0   20077   20078   20079   20078   20079   20079       0   20081
   20082   20083   20082   20083   20083       0   20085   20086   20087   20086
   20087   20087       0   20089   20090   20091   20090   20091   20091       0
   20093   20094   20095   20094   20095   20095       0   20097   20098   20099
   20098   20099   20099       0   20101   20102   20103   20102   20103   20103
       0   20105   20106   20107   20106   20107   20107       0   20109   20110
   20111   20110   20111   20111       0   20113   20114   20115   20114   20115
   20115       0   20117   20118   20119   20118   20119   20119       0   20121
   20122   20123   20122   20123   20123       0   20125   20126   20127   20126
   20127   20127       0   20129   20130   20131   20130   20131   20131       0
   20133   20134   20135   20134   20135   20135       0   20137   20138   20139
   20138   20139   20139       0   20141   20142   20143   20142   20143   20143
       0   20145   20146   20147   20146   20147   20147       0   20149   20150
   20151   20150   20151   20151       0   20153   20154   20155   20154   20155
   20155       0   20157   20158   20159   20158   20159   20159       0   20161
   20162   20163   20162   20163   20163       0   20165   20166   20167   20166
   20167   20167       0   20169   20170   20171   20170   20171   20171       0
   20173   20174   20175   20174   20175   20175       0   20177   20178   20179
   20178   20179   20179       0   20181   20182   20183   20182   20183   20183
       0   20185   20186   20187   20186   20187   20187       0   20189   20190
   20191   20190   20191   20191       0   20193   20194   20195   20194   20195
   20195       0   20197   20198   20199   20198   20199   20199       0   20201
   20202   20203   20202   20203   20203       0   20205   20206   20207   20206
   20207   20207       0   20209   20210   20211   20210   20211   20211       0
   20213   20214   20215   20214   20215   20215       0   20217   20218   20219
   20218   20219   20219       0   20221   20222   20223   20222   20223   20223
       0   20225   20226   20227   20226   20227   20227       0   20229   20230
   20231   20230   20231   20231       0   20233   20234   20235   20234   20235
   20235       0   20237   20238   20239   20238   20239   20239       0   20241
   20242   20243   20242   20243   20243       0   20245   20246   20247   20246
   20247   20247       0   20249   20250   20251   20250   20251   20251       0
   20253   20254   20255   20254   20255   20255       0   20257   20258   20259
   20258   20259   20259       0   20261   20262   20263   20262   20263   20263
       0   20265   20266   20267   20266   20267   20267       0   20269   20270
   20271   20270   20271   20271       0   20273   20274   20275   20274   20275
   20275       0   20277   20278   20279   20278   20279   20279       0   20281
   20282   20283   20282   20283   20283       0   20285   20286   20287   20286
   20287   20287       0   20289   20290   20291   20290   20291   20291       0
   20293   20294   20295   20294   20295   20295       0   20297   20298   20299
   20298   20299   20299       0   20301   20302   20303   20302   20303   20303
       0   20305   20306   20307   20306   20307   20307       0   20309   20310
   20311   20310   20311   20311       0   20313   20314   20315   20314   20315
   20315       0   20317   20318   20319   20318   20319   20319       0   20321
   20322   20323   20322   20323   20323       0   20325   20326   20327   20326
   20327   20327       0   20329   20330   20331   20330   20331   20331       0
   20333   20334   20335   20334   20335   20335       0   20337   20338   20339
   20338   20339   20339       0   20341   20342   20343   20342   20343   20343
       0   20345   20346   20347   20346   20347   20347       0   20349   20350
   20351   20350   20351   20351       0   20353   20354   20355   20354   20355
   20355       0   20357   20358   20359   20358   20359   20359       0   20361
   20362   20363   20362   20363   20363       0   20365   20366   20367   20366
   20367   20367       0   20369   20370   20371   20370   20371   20371       0
   20373   20374   20375   20374   20375   20375       0   20377   20378   20379
   20378   20379   20379       0   20381   20382   20383   20382   20383   20383
       0   20385   20386   20387   20386   20387   20387       0   20389   20390
   20391   20390   20391   20391       0   20393   20394   20395   20394   20395
   20395       0   20397   20398   20399   20398   20399   20399       0   20401
   20402   20403   20402   20403   20403       0   20405   20406   20407   20406
   20407   20407       0   20409   20410   20411   20410   20411   20411       0
   20413   20414   20415   20414   20415   20415       0   20417   20418   20419
   20418   20419   20419       0   20421   20422   20423   20422   20423   20423
       0   20425   20426   20427   20426   20427   20427       0   20429   20430
   20431   20430   20431   20431       0   20433   20434   20435   20434   20435
   20435       0   20437   20438   20439   20438   20439   20439       0   20441
   20442   20443   20442   20443   20443       0   20445   20446   20447   20446
   20447   20447       0   20449   20450   20451   20450   20451   20451       0
   20453   20454   20455   20454   20455   20455       0   20457   20458   20459
   20458   20459   20459       0   20461   20462   20463   20462   20463   20463
       0   20465   20466   20467   20466   20467   20467       0   20469   20470
   20471   20470   20471   20471       0   20473   20474   20475   20474   20475
   20475       0   20477   20478   20479   20478   20479   20479       0   20481
   20482   20483   20482   20483   20483       0   20485   20486   20487   20486
   20487   20487       0   20489   20490   20491   20490   20491   20491       0
   20493   20494   20495   20494   20495   20495       0   20497   20498   20499
   20498   20499   20499       0   20501   20502   20503   20502   20503   20503
       0   20505   20506   20507   20506   20507   20507       0   20509   20510
   20511   20510   20511   20511       0   20513   20514   20515   20514   20515
   20515       0   20517   20518   20519   20518   20519   20519       0   20521
   20522   20523   20522   20523   20523       0   20525   20526   20527   20526
   20527   20527       0   20529   20530   20531   20530   20531   20531       0
   20533   20534   20535   20534   20535   20535       0   20537   20538   20539
   20538   20539   20539       0   20541   20542   20543   20542   20543   20543
       0   20545   20546   20547   20546   20547   20547       0   20549   20550
   20551   20550   20551   20551       0   20553   20554   20555   20554   20555
   20555       0   20557   20558   20559   20558   20559   20559       0   20561
   20562   20563   20562   20563   20563       0   20565   20566   20567   20566
   20567   20567       0   20569   20570   20571   20570   20571   20571       0
   20573   20574   20575   20574   20575   20575       0   20577   20578   20579
   20578   20579   20579       0   20581   20582   20583   20582   20583   20583
       0   20585   20586   20587   20586   20587   20587       0   20589   20590
   20591   20590   20591   20591       0   20593   20594   20595   20594   20595
   20595       0   20597   20598   20599   20598   20599   20599       0   20601
   20602   20603   20602   20603   20603       0   20605   20606   20607   20606
   20607   20607       0   20609   20610   20611   20610   20611   20611       0
   20613   20614   20615   20614   20615   20615       0   20617   20618   20619
   20618   20619   20619       0   20621   20622   20623   20622   20623   20623
       0   20625   20626   20627   20626   20627   20627       0   20629   20630
   20631   20630   20631   20631       0   20633   20634   20635   20634   20635
   20635       0   20637   20638   20639   20638   20639   20639       0   20641
   20642   20643   20642   20643   20643       0   20645   20646   20647   20646
   20647   20647       0   20649   20650   20651   20650   20651   20651       0
   20653   20654   20655   20654   20655   20655       0   20657   20658   20659
   20658   20659   20659       0   20661   20662   20663   20662   20663   20663
       0   20665   20666   20667   20666   20667   20667       0   20669   20670
   20671   20670   20671   20671       0   20673   20674   20675   20674   20675
   20675       0   20677   20678   20679   20678   20679   20679       0   20681
   20682   20683   20682   20683   20683       0   20685   20686   20687   20686
   20687   20687       0   20689   20690   20691   20690   20691   20691       0
   20693   20694   20695   20694   20695   20695       0   20697   20698   20699
   20698   20699   20699       0   20701   20702   20703   20702   20703   20703
       0   20705   20706   20707   20706   20707   20707       0   20709   20710
   20711   20710   20711   20711       0   20713   20714   20715   20714   20715
   20715       0   20717   20718   20719   20718   20719   20719       0   20721
   20722   20723   20722   20723   20723       0   20725   20726   20727   20726
   20727   20727       0   20729   20730   20731   20730   20731   20731       0
   20733   20734   20735   20734   20735   20735       0   20737   20738   20739
   20738   20739   20739       0   20741   20742   20743   20742   20743   20743
       0   20745   20746   20747   20746   20747   20747       0   20749   20750
   20751   20750   20751   20751       0   20753   20754   20755   20754   20755
   20755       0   20757   20758   20759   20758   20759   20759       0   20761
   20762   20763   20762   20763   20763       0   20765   20766   20767   20766
   20767   20767       0   20769   20770   20771   20770   20771   20771       0
   20773   20774   20775   20774   20775   20775       0   20777   20778   20779
   20778   20779   20779       0   20781   20782   20783   20782   20783   20783
       0   20785   20786   20787   20786   20787   20787       0   20789   20790
   20791   20790   20791   20791       0   20793   20794   20795   20794   20795
   20795       0   20797   20798   20799   20798   20799   20799       0   20801
   20802   20803   20802   20803   20803       0   20805   20806   20807   20806
   20807   20807       0   20809   20810   20811   20810   20811   20811       0
   20813   20814   20815   20814   20815   20815       0   20817   20818   20819
   20818   20819   20819       0   20821   20822   20823   20822   20823   20823
       0   20825   20826   20827   20826   20827   20827       0   20829   20830
   20831   20830   20831   20831       0   20833   20834   20835   20834   20835
   20835       0   20837   20838   20839   20838   20839   20839       0   20841
   20842   20843   20842   20843   20843       0   20845   20846   20847   20846
   20847   20847       0   20849   20850   20851   20850   20851   20851       0
   20853   20854   20855   20854   20855   20855       0   20857   20858   20859
   20858   20859   20859       0   20861   20862   20863   20862   20863   20863
       0   20865   20866   20867   20866   20867   20867       0   20869   20870
   20871   20870   20871   20871       0   20873   20874   20875   20874   20875
   20875       0   20877   20878   20879   20878   20879   20879       0   20881
   20882   20883   20882   20883   20883       0   20885   20886   20887   20886
   20887   20887       0   20889   20890   20891   20890   20891   20891       0
   20893   20894   20895   20894   20895   20895       0   20897   20898   20899
   20898   20899   20899       0   20901   20902   20903   20902   20903   20903
       0   20905   20906   20907   20906   20907   20907       0   20909   20910
   20911   20910   20911   20911       0   20913   20914   20915   20914   20915
   20915       0   20917   20918   20919   20918   20919   20919       0   20921
   20922   20923   20922   20923   20923       0   20925   20926   20927   20926
   20927   20927       0   20929   20930   20931   20930   20931   20931       0
   20933   20934   20935   20934   20935   20935       0   20937   20938   20939
   20938   20939   20939       0   20941   20942   20943   20942   20943   20943
       0   20945   20946   20947   20946   20947   20947       0   20949   20950
   20951   20950   20951   20951       0   20953   20954   20955   20954   20955
   20955       0   20957   20958   20959   20958   20959   20959       0   20961
   20962   20963   20962   20963   20963       0   20965   20966   20967   20966
   20967   20967       0   20969   20970   20971   20970   20971   20971       0
   20973   20974   20975   20974   20975   20975       0   20977   20978   20979
   20978   20979   20979       0   20981   20982   20983   20982   20983   20983
       0   20985   20986   20987   20986   20987   20987       0   20989   20990
   20991   20990   20991   20991       0   20993   20994   20995   20994   20995
   20995       0   20997   20998   20999   20998   20999   20999       0   21001
   21002   21003   21002   21003   21003       0   21005   21006   21007   21006
   21007   21007       0   21009   21010   21011   21010   21011   21011       0
   21013   21014   21015   21014   21015   21015       0   21017   21018   21019
   21018   21019   21019       0   21021   21022   21023   21022   21023   21023
       0   21025   21026   21027   21026   21027   21027       0   21029   21030
   21031   21030   21031   21031       0   21033   21034   21035   21034   21035
   21035       0   21037   21038   21039   21038   21039   21039       0   21041
   21042   21043   21042   21043   21043       0   21045   21046   21047   21046
   21047   21047       0   21049   21050   21051   21050   21051   21051       0
   21053   21054   21055   21054   21055   21055       0   21057   21058   21059
   21058   21059   21059       0   21061   21062   21063   21062   21063   21063
       0   21065   21066   21067   21066   21067   21067       0   21069   21070
   21071   21070   21071   21071       0   21073   21074   21075   21074   21075
   21075       0   21077   21078   21079   21078   21079   21079       0   21081
   21082   21083   21082   21083   21083       0   21085   21086   21087   21086
   21087   21087       0   21089   21090   21091   21090   21091   21091       0
   21093   21094   21095   21094   21095   21095       0   21097   21098   21099
   21098   21099   21099       0   21101   21102   21103   21102   21103   21103
       0   21105   21106   21107   21106   21107   21107       0   21109   21110
   21111   21110   21111   21111       0   21113   21114   21115   21114   21115
   21115       0   21117   21118   21119   21118   21119   21119       0   21121
   21122   21123   21122   21123   21123       0   21125   21126   21127   21126
   21127   21127       0   21129   21130   21131   21130   21131   21131       0
   21133   21134   21135   21134   21135   21135       0   21137   21138   21139
   21138   21139   21139       0   21141   21142   21143   21142   21143   21143
       0   21145   21146   21147   21146   21147   21147       0   21149   21150
   21151   21150   21151   21151       0   21153   21154   21155   21154   21155
   21155       0   21157   21158   21159   21158   21159   21159       0   21161
   21162   21163   21162   21163   21163       0   21165   21166   21167   21166
   21167   21167       0   21169   21170   21171   21170   21171   21171       0
   21173   21174   21175   21174   21175   21175       0   21177   21178   21179
   21178   21179   21179       0   21181   21182   21183   21182   21183   21183
       0   21185   21186   21187   21186   21187   21187       0   21189   21190
   21191   21190   21191   21191       0   21193   21194   21195   21194   21195
   21195       0   21197   21198   21199   21198   21199   21199       0   21201
   21202   21203   21202   21203   21203       0   21205   21206   21207   21206
   21207   21207       0   21209   21210   21211   21210   21211   21211       0
   21213   21214   21215   21214   21215   21215       0   21217   21218   21219
   21218   21219   21219       0   21221   21222   21223   21222   21223   21223
       0   21225   21226   21227   21226   21227   21227       0   21229   21230
   21231   21230   21231   21231       0   21233   21234   21235   21234   21235
   21235       0   21237   21238   21239   21238   21239   21239       0   21241
   21242   21243   21242   21243   21243       0   21245   21246   21247   21246
   21247   21247       0   21249   21250   21251   21250   21251   21251       0
   21253   21254   21255   21254   21255   21255       0   21257   21258   21259
   21258   21259   21259       0   21261   21262   21263   21262   21263   21263
       0   21265   21266   21267   21266   21267   21267       0   21269   21270
   21271   21270   21271   21271       0   21273   21274   21275   21274   21275
   21275       0   21277   21278   21279   21278   21279   21279       0   21281
   21282   21283   21282   21283   21283       0   21285   21286   21287   21286
   21287   21287       0   21289   21290   21291   21290   21291   21291       0
   21293   21294   21295   21294   21295   21295       0   21297   21298   21299
   21298   21299   21299       0   21301   21302   21303   21302   21303   21303
       0   21305   21306   21307   21306   21307   21307       0   21309   21310
   21311   21310   21311   21311       0   21313   21314   21315   21314   21315
   21315       0   21317   21318   21319   21318   21319   21319       0   21321
   21322   21323   21322   21323   21323       0   21325   21326   21327   21326
   21327   21327       0   21329   21330   21331   21330   21331   21331       0
   21333   21334   21335   21334   21335   21335       0   21337   21338   21339
   21338   21339   21339       0   21341   21342   21343   21342   21343   21343
       0   21345   21346   21347   21346   21347   21347       0   21349   21350
   21351   21350   21351   21351       0   21353   21354   21355   21354   21355
   21355       0   21357   21358   21359   21358   21359   21359       0   21361
   21362   21363   21362   21363   21363       0   21365   21366   21367   21366
   21367   21367       0   21369   21370   21371   21370   21371   21371       0
   21373   21374   21375   21374   21375   21375       0   21377   21378   21379
   21378   21379   21379       0   21381   21382   21383   21382   21383   21383
       0   21385   21386   21387   21386   21387   21387       0   21389   21390
   21391   21390   21391   21391       0   21393   21394   21395   21394   21395
   21395       0   21397   21398   21399   21398   21399   21399       0   21401
   21402   21403   21402   21403   21403       0   21405   21406   21407   21406
   21407   21407       0   21409   21410   21411   21410   21411   21411       0
   21413   21414   21415   21414   21415   21415       0   21417   21418   21419
   21418   21419   21419       0   21421   21422   21423   21422   21423   21423
       0   21425   21426   21427   21426   21427   21427       0   21429   21430
   21431   21430   21431   21431       0   21433   21434   21435   21434   21435
   21435       0   21437   21438   21439   21438   21439   21439       0   21441
   21442   21443   21442   21443   21443       0   21445   21446   21447   21446
   21447   21447       0   21449   21450   21451   21450   21451   21451       0
   21453   21454   21455   21454   21455   21455       0   21457   21458   21459
   21458   21459   21459       0   21461   21462   21463   21462   21463   21463
       0   21465   21466   21467   21466   21467   21467       0   21469   21470
   21471   21470   21471   21471       0   21473   21474   21475   21474   21475
   21475       0   21477   21478   21479   21478   21479   21479       0   21481
   21482   21483   21482   21483   21483       0   21485   21486   21487   21486
   21487   21487       0   21489   21490   21491   21490   21491   21491       0
   21493   21494   21495   21494   21495   21495       0   21497   21498   21499
   21498   21499   21499       0   21501   21502   21503   21502   21503   21503
       0   21505   21506   21507   21506   21507   21507       0   21509   21510
   21511   21510   21511   21511       0   21513   21514   21515   21514   21515
   21515       0   21517   21518   21519   21518   21519   21519       0   21521
   21522   21523   21522   21523   21523       0   21525   21526   21527   21526
   21527   21527       0   21529   21530   21531   21530   21531   21531       0
   21533   21534   21535   21534   21535   21535       0   21537   21538   21539
   21538   21539   21539       0   21541   21542   21543   21542   21543   21543
       0   21545   21546   21547   21546   21547   21547       0   21549   21550
   21551   21550   21551   21551       0   21553   21554   21555   21554   21555
   21555       0   21557   21558   21559   21558   21559   21559       0   21561
   21562   21563   21562   21563   21563       0   21565   21566   21567   21566
   21567   21567       0   21569   21570   21571   21570   21571   21571       0
   21573   21574   21575   21574   21575   21575       0   21577   21578   21579
   21578   21579   21579       0   21581   21582   21583   21582   21583   21583
       0   21585   21586   21587   21586   21587   21587       0   21589   21590
   21591   21590   21591   21591       0   21593   21594   21595   21594   21595
   21595       0   21597   21598   21599   21598   21599   21599       0   21601
   21602   21603   21602   21603   21603       0   21605   21606   21607   21606
   21607   21607       0   21609   21610   21611   21610   21611   21611       0
   21613   21614   21615   21614   21615   21615       0   21617   21618   21619
   21618   21619   21619       0   21621   21622   21623   21622   21623   21623
       0   21625   21626   21627   21626   21627   21627       0   21629   21630
   21631   21630   21631   21631       0   21633   21634   21635   21634   21635
   21635       0   21637   21638   21639   21638   21639   21639       0   21641
   21642   21643   21642   21643   21643       0   21645   21646   21647   21646
   21647   21647       0   21649   21650   21651   21650   21651   21651       0
   21653   21654   21655   21654   21655   21655       0   21657   21658   21659
   21658   21659   21659       0   21661   21662   21663   21662   21663   21663
       0   21665   21666   21667   21666   21667   21667       0   21669   21670
   21671   21670   21671   21671       0   21673   21674   21675   21674   21675
   21675       0   21677   21678   21679   21678   21679   21679       0   21681
   21682   21683   21682   21683   21683       0   21685   21686   21687   21686
   21687   21687       0   21689   21690   21691   21690   21691   21691       0
   21693   21694   21695   21694   21695   21695       0   21697   21698   21699
   21698   21699   21699       0   21701   21702   21703   21702   21703   21703
       0   21705   21706   21707   21706   21707   21707       0   21709   21710
   21711   21710   21711   21711       0   21713   21714   21715   21714   21715
   21715       0   21717   21718   21719   21718   21719   21719       0   21721
   21722   21723   21722   21723   21723       0   21725   21726   21727   21726
   21727   21727       0   21729   21730   21731   21730   21731   21731       0
   21733   21734   21735   21734   21735   21735       0   21737   21738   21739
   21738   21739   21739       0   21741   21742   21743   21742   21743   21743
       0   21745   21746   21747   21746   21747   21747       0   21749   21750
   21751   21750   21751   21751       0   21753   21754   21755   21754   21755
   21755       0   21757   21758   21759   21758   21759   21759       0   21761
   21762   21763   21762   21763   21763       0   21765   21766   21767   21766
   21767   21767       0   21769   21770   21771   21770   21771   21771       0
   21773   21774   21775   21774   21775   21775       0   21777   21778   21779
   21778   21779   21779       0   21781   21782   21783   21782   21783   21783
       0   21785   21786   21787   21786   21787   21787       0   21789   21790
   21791   21790   21791   21791       0   21793   21794   21795   21794   21795
   21795       0   21797   21798   21799   21798   21799   21799       0   21801
   21802   21803   21802   21803   21803       0   21805   21806   21807   21806
   21807   21807       0   21809   21810   21811   21810   21811   21811       0
   21813   21814   21815   21814   21815   21815       0   21817   21818   21819
   21818   21819   21819       0   21821   21822   21823   21822   21823   21823
       0   21825   21826   21827   21826   21827   21827       0   21829   21830
   21831   21830   21831   21831       0   21833   21834   21835   21834   21835
   21835       0   21837   21838   21839   21838   21839   21839       0   21841
   21842   21843   21842   21843   21843       0   21845   21846   21847   21846
   21847   21847       0   21849   21850   21851   21850   21851   21851       0
   21853   21854   21855   21854   21855   21855       0   21857   21858   21859
   21858   21859   21859       0   21861   21862   21863   21862   21863   21863
       0   21865   21866   21867   21866   21867   21867       0   21869   21870
   21871   21870   21871   21871       0   21873   21874   21875   21874   21875
   21875       0   21877   21878   21879   21878   21879   21879       0   21881
   21882   21883   21882   21883   21883       0   21885   21886   21887   21886
   21887   21887       0   21889   21890   21891   21890   21891   21891       0
   21893   21894   21895   21894   21895   21895       0   21897   21898   21899
   21898   21899   21899       0   21901   21902   21903   21902   21903   21903
       0   21905   21906   21907   21906   21907   21907       0   21909   21910
   21911   21910   21911   21911       0   21913   21914   21915   21914   21915
   21915       0   21917   21918   21919   21918   21919   21919       0   21921
   21922   21923   21922   21923   21923       0   21925   21926   21927   21926
   21927   21927       0   21929   21930   21931   21930   21931   21931       0
   21933   21934   21935   21934   21935   21935       0   21937   21938   21939
   21938   21939   21939       0   21941   21942   21943   21942   21943   21943
       0   21945   21946   21947   21946   21947   21947       0   21949   21950
   21951   21950   21951   21951       0   21953   21954   21955   21954   21955
   21955       0   21957   21958   21959   21958   21959   21959       0   21961
   21962   21963   21962   21963   21963       0   21965   21966   21967   21966
   21967   21967       0   21969   21970   21971   21970   21971   21971       0
   21973   21974   21975   21974   21975   21975       0   21977   21978   21979
   21978   21979   21979       0   21981   21982   21983   21982   21983   21983
       0   21985   21986   21987   21986   21987   21987       0   21989   21990
   21991   21990   21991   21991       0   21993   21994   21995   21994   21995
   21995       0   21997   21998   21999   21998   21999   21999       0   22001
   22002   22003   22002   22003   22003       0   22005   22006   22007   22006
   22007   22007       0   22009   22010   22011   22010   22011   22011       0
   22013   22014   22015   22014   22015   22015       0   22017   22018   22019
   22018   22019   22019       0   22021   22022   22023   22022   22023   22023
       0   22025   22026   22027   22026   22027   22027       0   22029   22030
   22031   22030   22031   22031       0   22033   22034   22035   22034   22035
   22035       0   22037   22038   22039   22038   22039   22039       0   22041
   22042   22043   22042   22043   22043       0   22045   22046   22047   22046
   22047   22047       0   22049   22050   22051   22050   22051   22051       0
   22053   22054   22055   22054   22055   22055       0   22057   22058   22059
   22058   22059   22059       0   22061   22062   22063   22062   22063   22063
       0   22065   22066   22067   22066   22067   22067       0   22069   22070
   22071   22070   22071   22071       0   22073   22074   22075   22074   22075
   22075       0   22077   22078   22079   22078   22079   22079       0   22081
   22082   22083   22082   22083   22083       0   22085   22086   22087   22086
   22087   22087       0   22089   22090   22091   22090   22091   22091       0
   22093   22094   22095   22094   22095   22095       0   22097   22098   22099
   22098   22099   22099       0   22101   22102   22103   22102   22103   22103
       0   22105   22106   22107   22106   22107   22107       0   22109   22110
   22111   22110   22111   22111       0   22113   22114   22115   22114   22115
   22115       0   22117   22118   22119   22118   22119   22119       0   22121
   22122   22123   22122   22123   22123       0   22125   22126   22127   22126
   22127   22127       0   22129   22130   22131   22130   22131   22131       0
   22133   22134   22135   22134   22135   22135       0   22137   22138   22139
   22138   22139   22139       0   22141   22142   22143   22142   22143   22143
       0   22145   22146   22147   22146   22147   22147       0   22149   22150
   22151   22150   22151   22151       0   22153   22154   22155   22154   22155
   22155       0   22157   22158   22159   22158   22159   22159       0   22161
   22162   22163   22162   22163   22163       0   22165   22166   22167   22166
   22167   22167       0   22169   22170   22171   22170   22171   22171       0
   22173   22174   22175   22174   22175   22175       0   22177   22178   22179
   22178   22179   22179       0   22181   22182   22183   22182   22183   22183
       0   22185   22186   22187   22186   22187   22187       0   22189   22190
   22191   22190   22191   22191       0   22193   22194   22195   22194   22195
   22195       0   22197   22198   22199   22198   22199   22199       0   22201
   22202   22203   22202   22203   22203       0   22205   22206   22207   22206
   22207   22207       0   22209   22210   22211   22210   22211   22211       0
   22213   22214   22215   22214   22215   22215       0   22217   22218   22219
   22218   22219   22219       0   22221   22222   22223   22222   22223   22223
       0   22225   22226   22227   22226   22227   22227       0   22229   22230
   22231   22230   22231   22231       0   22233   22234   22235   22234   22235
   22235       0   22237   22238   22239   22238   22239   22239       0   22241
   22242   22243   22242   22243   22243       0   22245   22246   22247   22246
   22247   22247       0   22249   22250   22251   22250   22251   22251       0
   22253   22254   22255   22254   22255   22255       0   22257   22258   22259
   22258   22259   22259       0   22261   22262   22263   22262   22263   22263
       0   22265   22266   22267   22266   22267   22267       0   22269   22270
   22271   22270   22271   22271       0   22273   22274   22275   22274   22275
   22275       0   22277   22278   22279   22278   22279   22279       0   22281
   22282   22283   22282   22283   22283       0   22285   22286   22287   22286
   22287   22287       0   22289   22290   22291   22290   22291   22291       0
   22293   22294   22295   22294   22295   22295       0   22297   22298   22299
   22298   22299   22299       0   22301   22302   22303   22302   22303   22303
       0   22305   22306   22307   22306   22307   22307       0   22309   22310
   22311   22310   22311   22311       0   22313   22314   22315   22314   22315
   22315       0   22317   22318   22319   22318   22319   22319       0   22321
   22322   22323   22322   22323   22323       0   22325   22326   22327   22326
   22327   22327       0   22329   22330   22331   22330   22331   22331       0
   22333   22334   22335   22334   22335   22335       0   22337   22338   22339
   22338   22339   22339       0   22341   22342   22343   22342   22343   22343
       0   22345   22346   22347   22346   22347   22347       0   22349   22350
   22351   22350   22351   22351       0   22353   22354   22355   22354   22355
   22355       0   22357   22358   22359   22358   22359   22359       0   22361
   22362   22363   22362   22363   22363       0   22365   22366   22367   22366
   22367   22367       0   22369   22370   22371   22370   22371   22371       0
   22373   22374   22375   22374   22375   22375       0   22377   22378   22379
   22378   22379   22379       0   22381   22382   22383   22382   22383   22383
       0   22385   22386   22387   22386   22387   22387       0   22389   22390
   22391   22390   22391   22391       0   22393   22394   22395   22394   22395
   22395       0   22397   22398   22399   22398   22399   22399       0   22401
   22402   22403   22402   22403   22403       0   22405   22406   22407   22406
   22407   22407       0   22409   22410   22411   22410   22411   22411       0
   22413   22414   22415   22414   22415   22415       0   22417   22418   22419
   22418   22419   22419       0   22421   22422   22423   22422   22423   22423
       0   22425   22426   22427   22426   22427   22427       0   22429   22430
   22431   22430   22431   22431       0   22433   22434   22435   22434   22435
   22435       0   22437   22438   22439   22438   22439   22439       0   22441
   22442   22443   22442   22443   22443       0   22445   22446   22447   22446
   22447   22447       0   22449   22450   22451   22450   22451   22451       0
   22453   22454   22455   22454   22455   22455       0   22457   22458   22459
   22458   22459   22459       0   22461   22462   22463   22462   22463   22463
       0   22465   22466   22467   22466   22467   22467       0   22469   22470
   22471   22470   22471   22471       0   22473   22474   22475   22474   22475
   22475       0   22477   22478   22479   22478   22479   22479       0   22481
   22482   22483   22482   22483   22483       0   22485   22486   22487   22486
   22487   22487       0   22489   22490   22491   22490   22491   22491       0
   22493   22494   22495   22494   22495   22495       0   22497   22498   22499
   22498   22499   22499       0   22501   22502   22503   22502   22503   22503
       0   22505   22506   22507   22506   22507   22507       0   22509   22510
   22511   22510   22511   22511       0   22513   22514   22515   22514   22515
   22515       0   22517   22518   22519   22518   22519   22519       0   22521
   22522   22523   22522   22523   22523       0   22525   22526   22527   22526
   22527   22527       0   22529   22530   22531   22530   22531   22531       0
   22533   22534   22535   22534   22535   22535       0   22537   22538   22539
   22538   22539   22539       0   22541   22542   22543   22542   22543   22543
       0   22545   22546   22547   22546   22547   22547       0   22549   22550
   22551   22550   22551   22551       0   22553   22554   22555   22554   22555
   22555       0   22557   22558   22559   22558   22559   22559       0   22561
   22562   22563   22562   22563   22563       0   22565   22566   22567   22566
   22567   22567       0   22569   22570   22571   22570   22571   22571       0
   22573   22574   22575   22574   22575   22575       0   22577   22578   22579
   22578   22579   22579       0   22581   22582   22583   22582   22583   22583
       0   22585   22586   22587   22586   22587   22587       0   22589   22590
   22591   22590   22591   22591       0   22593   22594   22595   22594   22595
   22595       0   22597   22598   22599   22598   22599   22599       0   22601
   22602   22603   22602   22603   22603       0   22605   22606   22607   22606
   22607   22607       0   22609   22610   22611   22610   22611   22611       0
   22613   22614   22615   22614   22615   22615       0   22617   22618   22619
   22618   22619   22619       0   22621   22622   22623   22622   22623   22623
       0   22625   22626   22627   22626   22627   22627       0   22629   22630
   22631   22630   22631   22631       0   22633   22634   22635   22634   22635
   22635       0   22637   22638   22639   22638   22639   22639       0   22641
   22642   22643   22642   22643   22643       0   22645   22646   22647   22646
   22647   22647       0   22649   22650   22651   22650   22651   22651       0
   22653   22654   22655   22654   22655   22655       0   22657   22658   22659
   22658   22659   22659       0   22661   22662   22663   22662   22663   22663
       0   22665   22666   22667   22666   22667   22667       0   22669   22670
   22671   22670   22671   22671       0   22673   22674   22675   22674   22675
   22675       0   22677   22678   22679   22678   22679   22679       0   22681
   22682   22683   22682   22683   22683       0   22685   22686   22687   22686
   22687   22687       0   22689   22690   22691   22690   22691   22691       0
   22693   22694   22695   22694   22695   22695       0   22697   22698   22699
   22698   22699   22699       0   22701   22702   22703   22702   22703   22703
       0   22705   22706   22707   22706   22707   22707       0   22709   22710
   22711   22710   22711   22711       0   22713   22714   22715   22714   22715
   22715       0   22717   22718   22719   22718   22719   22719       0   22721
   22722   22723   22722   22723   22723       0   22725   22726   22727   22726
   22727   22727       0   22729   22730   22731   22730   22731   22731       0
   22733   22734   22735   22734   22735   22735       0   22737   22738   22739
   22738   22739   22739       0   22741   22742   22743   22742   22743   22743
       0   22745   22746   22747   22746   22747   22747       0   22749   22750
   22751   22750   22751   22751       0   22753   22754   22755   22754   22755
   22755       0   22757   22758   22759   22758   22759   22759       0   22761
   22762   22763   22762   22763   22763       0   22765   22766   22767   22766
   22767   22767       0   22769   22770   22771   22770   22771   22771       0
   22773   22774   22775   22774   22775   22775       0   22777   22778   22779
   22778   22779   22779       0   22781   22782   22783   22782   22783   22783
       0   22785   22786   22787   22786   22787   22787       0   22789   22790
   22791   22790   22791   22791       0   22793   22794   22795   22794   22795
   22795       0   22797   22798   22799   22798   22799   22799       0   22801
   22802   22803   22802   22803   22803       0   22805   22806   22807   22806
   22807   22807       0   22809   22810   22811   22810   22811   22811       0
   22813   22814   22815   22814   22815   22815       0   22817   22818   22819
   22818   22819   22819       0   22821   22822   22823   22822   22823   22823
       0   22825   22826   22827   22826   22827   22827       0   22829   22830
   22831   22830   22831   22831       0   22833   22834   22835   22834   22835
   22835       0   22837   22838   22839   22838   22839   22839       0   22841
   22842   22843   22842   22843   22843       0   22845   22846   22847   22846
   22847   22847       0   22849   22850   22851   22850   22851   22851       0
   22853   22854   22855   22854   22855   22855       0   22857   22858   22859
   22858   22859   22859       0   22861   22862   22863   22862   22863   22863
       0   22865   22866   22867   22866   22867   22867       0   22869   22870
   22871   22870   22871   22871       0   22873   22874   22875   22874   22875
   22875       0   22877   22878   22879   22878   22879   22879       0   22881
   22882   22883   22882   22883   22883       0   22885   22886   22887   22886
   22887   22887       0   22889   22890   22891   22890   22891   22891       0
   22893   22894   22895   22894   22895   22895       0   22897   22898   22899
   22898   22899   22899       0   22901   22902   22903   22902   22903   22903
       0   22905   22906   22907   22906   22907   22907       0   22909   22910
   22911   22910   22911   22911       0   22913   22914   22915   22914   22915
   22915       0   22917   22918   22919   22918   22919   22919       0   22921
   22922   22923   22922   22923   22923       0   22925   22926   22927   22926
   22927   22927       0   22929   22930   22931   22930   22931   22931       0
   22933   22934   22935   22934   22935   22935       0   22937   22938   22939
   22938   22939   22939       0   22941   22942   22943   22942   22943   22943
       0   22945   22946   22947   22946   22947   22947       0   22949   22950
   22951   22950   22951   22951       0   22953   22954   22955   22954   22955
   22955       0   22957   22958   22959   22958   22959   22959       0   22961
   22962   22963   22962   22963   22963       0   22965   22966   22967   22966
   22967   22967       0   22969   22970   22971   22970   22971   22971       0
   22973   22974   22975   22974   22975   22975       0   22977   22978   22979
   22978   22979   22979       0   22981   22982   22983   22982   22983   22983
       0   22985   22986   22987   22986   22987   22987       0   22989   22990
   22991   22990   22991   22991       0   22993   22994   22995   22994   22995
   22995       0   22997   22998   22999   22998   22999   22999       0   23001
   23002   23003   23002   23003   23003       0   23005   23006   23007   23006
   23007   23007       0   23009   23010   23011   23010   23011   23011       0
   23013   23014   23015   23014   23015   23015       0   23017   23018   23019
   23018   23019   23019       0   23021   23022   23023   23022   23023   23023
       0   23025   23026   23027   23026   23027   23027       0   23029   23030
   23031   23030   23031   23031       0   23033   23034   23035   23034   23035
   23035       0   23037   23038   23039   23038   23039   23039       0   23041
   23042   23043   23042   23043   23043       0   23045   23046   23047   23046
   23047   23047       0   23049   23050   23051   23050   23051   23051       0
   23053   23054   23055   23054   23055   23055       0   23057   23058   23059
   23058   23059   23059       0   23061   23062   23063   23062   23063   23063
       0   23065   23066   23067   23066   23067   23067       0   23069   23070
   23071   23070   23071   23071       0   23073   23074   23075   23074   23075
   23075       0   23077   23078   23079   23078   23079   23079       0   23081
   23082   23083   23082   23083   23083       0   23085   23086   23087   23086
   23087   23087       0   23089   23090   23091   23090   23091   23091       0
   23093   23094   23095   23094   23095   23095       0   23097   23098   23099
   23098   23099   23099       0   23101   23102   23103   23102   23103   23103
       0   23105   23106   23107   23106   23107   23107       0   23109   23110
   23111   23110   23111   23111       0   23113   23114   23115   23114   23115
   23115       0   23117   23118   23119   23118   23119   23119       0   23121
   23122   23123   23122   23123   23123       0   23125   23126   23127   23126
   23127   23127       0   23129   23130   23131   23130   23131   23131       0
   23133   23134   23135   23134   23135   23135       0   23137   23138   23139
   23138   23139   23139       0   23141   23142   23143   23142   23143   23143
       0   23145   23146   23147   23146   23147   23147       0   23149   23150
   23151   23150   23151   23151       0   23153   23154   23155   23154   23155
   23155       0   23157   23158   23159   23158   23159   23159       0   23161
   23162   23163   23162   23163   23163       0   23165   23166   23167   23166
   23167   23167       0   23169   23170   23171   23170   23171   23171       0
   23173   23174   23175   23174   23175   23175       0   23177   23178   23179
   23178   23179   23179       0   23181   23182   23183   23182   23183   23183
       0   23185   23186   23187   23186   23187   23187       0   23189   23190
   23191   23190   23191   23191       0   23193   23194   23195   23194   23195
   23195       0   23197   23198   23199   23198   23199   23199       0   23201
   23202   23203   23202   23203   23203       0   23205   23206   23207   23206
   23207   23207       0   23209   23210   23211   23210   23211   23211       0
   23213   23214   23215   23214   23215   23215       0   23217   23218   23219
   23218   23219   23219       0   23221   23222   23223   23222   23223   23223
       0   23225   23226   23227   23226   23227   23227       0   23229   23230
   23231   23230   23231   23231       0   23233   23234   23235   23234   23235
   23235       0   23237   23238   23239   23238   23239   23239       0   23241
   23242   23243   23242   23243   23243       0   23245   23246   23247   23246
   23247   23247       0   23249   23250   23251   23250   23251   23251       0
   23253   23254   23255   23254   23255   23255       0   23257   23258   23259
   23258   23259   23259       0   23261   23262   23263   23262   23263   23263
       0   23265   23266   23267   23266   23267   23267       0   23269   23270
   23271   23270   23271   23271       0   23273   23274   23275   23274   23275
   23275       0   23277   23278   23279   23278   23279   23279       0   23281
   23282   23283   23282   23283   23283       0   23285   23286   23287   23286
   23287   23287       0   23289   23290   23291   23290   23291   23291       0
   23293   23294   23295   23294   23295   23295       0   23297   23298   23299
   23298   23299   23299       0   23301   23302   23303   23302   23303   23303
       0   23305   23306   23307   23306   23307   23307       0   23309   23310
   23311   23310   23311   23311       0   23313   23314   23315   23314   23315
   23315       0   23317   23318   23319   23318   23319   23319       0   23321
   23322   23323   23322   23323   23323       0   23325   23326   23327   23326
   23327   23327       0   23329   23330   23331   23330   23331   23331       0
   23333   23334   23335   23334   23335   23335       0   23337   23338   23339
   23338   23339   23339       0   23341   23342   23343   23342   23343   23343
       0   23345   23346   23347   23346   23347   23347       0   23349   23350
   23351   23350   23351   23351       0   23353   23354   23355   23354   23355
   23355       0   23357   23358   23359   23358   23359   23359       0   23361
   23362   23363   23362   23363   23363       0   23365   23366   23367   23366
   23367   23367       0   23369   23370   23371   23370   23371   23371       0
   23373   23374   23375   23374   23375   23375       0   23377   23378   23379
   23378   23379   23379       0   23381   23382   23383   23382   23383   23383
       0   23385   23386   23387   23386   23387   23387       0   23389   23390
   23391   23390   23391   23391       0   23393   23394   23395   23394   23395
   23395       0   23397   23398   23399   23398   23399   23399       0   23401
   23402   23403   23402   23403   23403       0   23405   23406   23407   23406
   23407   23407       0   23409   23410   23411   23410   23411   23411       0
   23413   23414   23415   23414   23415   23415       0   23417   23418   23419
   23418   23419   23419       0   23421   23422   23423   23422   23423   23423
       0   23425   23426   23427   23426   23427   23427       0   23429   23430
   23431   23430   23431   23431       0   23433   23434   23435   23434   23435
   23435       0   23437   23438   23439   23438   23439   23439       0   23441
   23442   23443   23442   23443   23443       0   23445   23446   23447   23446
   23447   23447       0   23449   23450   23451   23450   23451   23451       0
   23453   23454   23455   23454   23455   23455       0   23457   23458   23459
   23458   23459   23459       0   23461   23462   23463   23462   23463   23463
       0   23465   23466   23467   23466   23467   23467       0   23469   23470
   23471   23470   23471   23471       0   23473   23474   23475   23474   23475
   23475       0   23477   23478   23479   23478   23479   23479       0   23481
   23482   23483   23482   23483   23483       0   23485   23486   23487   23486
   23487   23487       0   23489   23490   23491   23490   23491   23491       0
   23493   23494   23495   23494   23495   23495       0   23497   23498   23499
   23498   23499   23499       0   23501   23502   23503   23502   23503   23503
       0   23505   23506   23507   23506   23507   23507       0   23509   23510
   23511   23510   23511   23511       0   23513   23514   23515   23514   23515
   23515       0   23517   23518   23519   23518   23519   23519       0   23521
   23522   23523   23522   23523   23523       0   23525   23526   23527   23526
   23527   23527       0   23529   23530   23531   23530   23531   23531       0
   23533   23534   23535   23534   23535   23535       0   23537   23538   23539
   23538   23539   23539       0   23541   23542   23543   23542   23543   23543
       0   23545   23546   23547   23546   23547   23547       0   23549   23550
   23551   23550   23551   23551       0   23553   23554   23555   23554   23555
   23555       0   23557   23558   23559   23558   23559   23559       0   23561
   23562   23563   23562   23563   23563       0   23565   23566   23567   23566
   23567   23567       0   23569   23570   23571   23570   23571   23571       0
   23573   23574   23575   23574   23575   23575       0   23577   23578   23579
   23578   23579   23579       0   23581   23582   23583   23582   23583   23583
       0   23585   23586   23587   23586   23587   23587       0   23589   23590
   23591   23590   23591   23591       0   23593   23594   23595   23594   23595
   23595       0   23597   23598   23599   23598   23599   23599       0   23601
   23602   23603   23602   23603   23603       0   23605   23606   23607   23606
   23607   23607       0   23609   23610   23611   23610   23611   23611       0
   23613   23614   23615   23614   23615   23615       0   23617   23618   23619
   23618   23619   23619       0   23621   23622   23623   23622   23623   23623
       0   23625   23626   23627   23626   23627   23627       0   23629   23630
   23631   23630   23631   23631       0   23633   23634   23635   23634   23635
   23635       0   23637   23638   23639   23638   23639   23639       0   23641
   23642   23643   23642   23643   23643       0   23645   23646   23647   23646
   23647   23647       0   23649   23650   23651   23650   23651   23651       0
   23653   23654   23655   23654   23655   23655       0   23657   23658   23659
   23658   23659   23659       0   23661   23662   23663   23662   23663   23663
       0   23665   23666   23667   23666   23667   23667       0   23669   23670
   23671   23670   23671   23671       0   23673   23674   23675   23674   23675
   23675       0   23677   23678   23679   23678   23679   23679       0   23681
   23682   23683   23682   23683   23683       0   23685   23686   23687   23686
   23687   23687       0   23689   23690   23691   23690   23691   23691       0
   23693   23694   23695   23694   23695   23695       0   23697   23698   23699
   23698   23699   23699       0   23701   23702   23703   23702   23703   23703
       0   23705   23706   23707   23706   23707   23707       0   23709   23710
   23711   23710   23711   23711       0   23713   23714   23715   23714   23715
   23715       0   23717   23718   23719   23718   23719   23719       0   23721
   23722   23723   23722   23723   23723       0   23725   23726   23727   23726
   23727   23727       0   23729   23730   23731   23730   23731   23731       0
   23733   23734   23735   23734   23735   23735       0   23737   23738   23739
   23738   23739   23739       0   23741   23742   23743   23742   23743   23743
       0   23745   23746   23747   23746   23747   23747       0   23749   23750
   23751   23750   23751   23751       0   23753   23754   23755   23754   23755
   23755       0   23757   23758   23759   23758   23759   23759       0   23761
   23762   23763   23762   23763   23763       0   23765   23766   23767   23766
   23767   23767       0   23769   23770   23771   23770   23771   23771       0
   23773   23774   23775   23774   23775   23775       0   23777   23778   23779
   23778   23779   23779       0   23781   23782   23783   23782   23783   23783
       0   23785   23786   23787   23786   23787   23787       0   23789   23790
   23791   23790   23791   23791       0   23793   23794   23795   23794   23795
   23795       0   23797   23798   23799   23798   23799   23799       0   23801
   23802   23803   23802   23803   23803       0   23805   23806   23807   23806
   23807   23807       0   23809   23810   23811   23810   23811   23811       0
   23813   23814   23815   23814   23815   23815       0   23817   23818   23819
   23818   23819   23819       0   23821   23822   23823   23822   23823   23823
       0   23825   23826   23827   23826   23827   23827       0   23829   23830
   23831   23830   23831   23831       0   23833   23834   23835   23834   23835
   23835       0   23837   23838   23839   23838   23839   23839       0   23841
   23842   23843   23842   23843   23843       0   23845   23846   23847   23846
   23847   23847       0   23849   23850   23851   23850   23851   23851       0
   23853   23854   23855   23854   23855   23855       0   23857   23858   23859
   23858   23859   23859       0   23861   23862   23863   23862   23863   23863
       0   23865   23866   23867   23866   23867   23867       0   23869   23870
   23871   23870   23871   23871       0   23873   23874   23875   23874   23875
   23875       0   23877   23878   23879   23878   23879   23879       0   23881
   23882   23883   23882   23883   23883       0   23885   23886   23887   23886
   23887   23887       0   23889   23890   23891   23890   23891   23891       0
   23893   23894   23895   23894   23895   23895       0   23897   23898   23899
   23898   23899   23899       0   23901   23902   23903   23902   23903   23903
       0   23905   23906   23907   23906   23907   23907       0   23909   23910
   23911   23910   23911   23911       0   23913   23914   23915   23914   23915
   23915       0   23917   23918   23919   23918   23919   23919       0   23921
   23922   23923   23922   23923   23923       0   23925   23926   23927   23926
   23927   23927       0   23929   23930   23931   23930   23931   23931       0
   23933   23934   23935   23934   23935   23935       0   23937   23938   23939
   23938   23939   23939       0   23941   23942   23943   23942   23943   23943
       0   23945   23946   23947   23946   23947   23947       0   23949   23950
   23951   23950   23951   23951       0   23953   23954   23955   23954   23955
   23955       0   23957   23958   23959   23958   23959   23959       0   23961
   23962   23963   23962   23963   23963       0   23965   23966   23967   23966
   23967   23967       0   23969   23970   23971   23970   23971   23971       0
   23973   23974   23975   23974   23975   23975       0   23977   23978   23979
   23978   23979   23979       0   23981   23982   23983   23982   23983   23983
       0   23985   23986   23987   23986   23987   23987       0   23989   23990
   23991   23990   23991   23991       0   23993   23994   23995   23994   23995
   23995       0   23997   23998   23999   23998   23999   23999       0   24001
   24002   24003   24002   24003   24003       0   24005   24006   24007   24006
   24007   24007       0   24009   24010   24011   24010   24011   24011       0
   24013   24014   24015   24014   24015   24015       0   24017   24018   24019
   24018   24019   24019       0   24021   24022   24023   24022   24023   24023
       0   24025   24026   24027   24026   24027   24027       0   24029   24030
   24031   24030   24031   24031       0   24033   24034   24035   24034   24035
   24035       0   24037   24038   24039   24038   24039   24039       0   24041
   24042   24043   24042   24043   24043       0   24045   24046   24047   24046
   24047   24047       0   24049   24050   24051   24050   24051   24051       0
   24053   24054   24055   24054   24055   24055       0   24057   24058   24059
   24058   24059   24059       0   24061   24062   24063   24062   24063   24063
       0   24065   24066   24067   24066   24067   24067       0   24069   24070
   24071   24070   24071   24071       0   24073   24074   24075   24074   24075
   24075       0   24077   24078   24079   24078   24079   24079       0   24081
   24082   24083   24082   24083   24083       0   24085   24086   24087   24086
   24087   24087       0   24089   24090   24091   24090   24091   24091       0
   24093   24094   24095   24094   24095   24095       0   24097   24098   24099
   24098   24099   24099       0   24101   24102   24103   24102   24103   24103
       0   24105   24106   24107   24106   24107   24107       0   24109   24110
   24111   24110   24111   24111       0   24113   24114   24115   24114   24115
   24115       0   24117   24118   24119   24118   24119   24119       0   24121
   24122   24123   24122   24123   24123       0   24125   24126   24127   24126
   24127   24127       0   24129   24130   24131   24130   24131   24131       0
   24133   24134   24135   24134   24135   24135       0   24137   24138   24139
   24138   24139   24139       0   24141   24142   24143   24142   24143   24143
       0   24145   24146   24147   24146   24147   24147       0   24149   24150
   24151   24150   24151   24151       0   24153   24154   24155   24154   24155
   24155       0   24157   24158   24159   24158   24159   24159       0   24161
   24162   24163   24162   24163   24163       0   24165   24166   24167   24166
   24167   24167       0   24169   24170   24171   24170   24171   24171       0
   24173   24174   24175   24174   24175   24175       0   24177   24178   24179
   24178   24179   24179       0   24181   24182   24183   24182   24183   24183
       0   24185   24186   24187   24186   24187   24187       0   24189   24190
   24191   24190   24191   24191       0   24193   24194   24195   24194   24195
   24195       0   24197   24198   24199   24198   24199   24199       0   24201
   24202   24203   24202   24203   24203       0   24205   24206   24207   24206
   24207   24207       0   24209   24210   24211   24210   24211   24211       0
   24213   24214   24215   24214   24215   24215       0   24217   24218   24219
   24218   24219   24219       0   24221   24222   24223   24222   24223   24223
       0   24225   24226   24227   24226   24227   24227       0   24229   24230
   24231   24230   24231   24231       0   24233   24234   24235   24234   24235
   24235       0   24237   24238   24239   24238   24239   24239       0   24241
   24242   24243   24242   24243   24243       0   24245   24246   24247   24246
   24247   24247       0   24249   24250   24251   24250   24251   24251       0
   24253   24254   24255   24254   24255   24255       0   24257   24258   24259
   24258   24259   24259       0   24261   24262   24263   24262   24263   24263
       0   24265   24266   24267   24266   24267   24267       0   24269   24270
   24271   24270   24271   24271       0   24273   24274   24275   24274   24275
   24275       0   24277   24278   24279   24278   24279   24279       0   24281
   24282   24283   24282   24283   24283       0   24285   24286   24287   24286
   24287   24287       0   24289   24290   24291   24290   24291   24291       0
   24293   24294   24295   24294   24295   24295       0   24297   24298   24299
   24298   24299   24299       0   24301   24302   24303   24302   24303   24303
       0   24305   24306   24307   24306   24307   24307       0   24309   24310
   24311   24310   24311   24311       0   24313   24314   24315   24314   24315
   24315       0   24317   24318   24319   24318   24319   24319       0   24321
   24322   24323   24322   24323   24323       0   24325   24326   24327   24326
   24327   24327       0   24329   24330   24331   24330   24331   24331       0
   24333   24334   24335   24334   24335   24335       0   24337   24338   24339
   24338   24339   24339       0   24341   24342   24343   24342   24343   24343
       0   24345   24346   24347   24346   24347   24347       0   24349   24350
   24351   24350   24351   24351       0   24353   24354   24355   24354   24355
   24355       0   24357   24358   24359   24358   24359   24359       0   24361
   24362   24363   24362   24363   24363       0   24365   24366   24367   24366
   24367   24367       0   24369   24370   24371   24370   24371   24371       0
   24373   24374   24375   24374   24375   24375       0   24377   24378   24379
   24378   24379   24379       0   24381   24382   24383   24382   24383   24383
       0   24385   24386   24387   24386   24387   24387       0   24389   24390
   24391   24390   24391   24391       0   24393   24394   24395   24394   24395
   24395       0   24397   24398   24399   24398   24399   24399       0   24401
   24402   24403   24402   24403   24403       0   24405   24406   24407   24406
   24407   24407       0   24409   24410   24411   24410   24411   24411       0
   24413   24414   24415   24414   24415   24415       0   24417   24418   24419
   24418   24419   24419       0   24421   24422   24423   24422   24423   24423
       0   24425   24426   24427   24426   24427   24427       0   24429   24430
   24431   24430   24431   24431       0   24433   24434   24435   24434   24435
   24435       0   24437   24438   24439   24438   24439   24439       0   24441
   24442   24443   24442   24443   24443       0   24445   24446   24447   24446
   24447   24447       0   24449   24450   24451   24450   24451   24451       0
   24453   24454   24455   24454   24455   24455       0   24457   24458   24459
   24458   24459   24459       0   24461   24462   24463   24462   24463   24463
       0   24465   24466   24467   24466   24467   24467       0   24469   24470
   24471   24470   24471   24471       0   24473   24474   24475   24474   24475
   24475       0   24477   24478   24479   24478   24479   24479       0   24481
   24482   24483   24482   24483   24483       0   24485   24486   24487   24486
   24487   24487       0   24489   24490   24491   24490   24491   24491       0
   24493   24494   24495   24494   24495   24495       0   24497   24498   24499
   24498   24499   24499       0   24501   24502   24503   24502   24503   24503
       0   24505   24506   24507   24506   24507   24507       0   24509   24510
   24511   24510   24511   24511       0   24513   24514   24515   24514   24515
   24515       0   24517   24518   24519   24518   24519   24519       0   24521
   24522   24523   24522   24523   24523       0   24525   24526   24527   24526
   24527   24527       0   24529   24530   24531   24530   24531   24531       0
   24533   24534   24535   24534   24535   24535       0   24537   24538   24539
   24538   24539   24539       0   24541   24542   24543   24542   24543   24543
       0   24545   24546   24547   24546   24547   24547       0   24549   24550
   24551   24550   24551   24551       0   24553   24554   24555   24554   24555
   24555       0   24557   24558   24559   24558   24559   24559       0   24561
   24562   24563   24562   24563   24563       0   24565   24566   24567   24566
   24567   24567       0   24569   24570   24571   24570   24571   24571       0
   24573   24574   24575   24574   24575   24575       0   24577   24578   24579
   24578   24579   24579       0   24581   24582   24583   24582   24583   24583
       0   24585   24586   24587   24586   24587   24587       0   24589   24590
   24591   24590   24591   24591       0   24593   24594   24595   24594   24595
   24595       0   24597   24598   24599   24598   24599   24599       0   24601
   24602   24603   24602   24603   24603       0   24605   24606   24607   24606
   24607   24607       0   24609   24610   24611   24610   24611   24611       0
   24613   24614   24615   24614   24615   24615       0   24617   24618   24619
   24618   24619   24619       0   24621   24622   24623   24622   24623   24623
       0   24625   24626   24627   24626   24627   24627       0   24629   24630
   24631   24630   24631   24631       0   24633   24634   24635   24634   24635
   24635       0   24637   24638   24639   24638   24639   24639       0   24641
   24642   24643   24642   24643   24643       0   24645   24646   24647   24646
   24647   24647       0   24649   24650   24651   24650   24651   24651       0
   24653   24654   24655   24654   24655   24655       0   24657   24658   24659
   24658   24659   24659       0   24661   24662   24663   24662   24663   24663
       0   24665   24666   24667   24666   24667   24667       0   24669   24670
   24671   24670   24671   24671       0   24673   24674   24675   24674   24675
   24675       0   24677   24678   24679   24678   24679   24679       0   24681
   24682   24683   24682   24683   24683       0   24685   24686   24687   24686
   24687   24687       0   24689   24690   24691   24690   24691   24691       0
   24693   24694   24695   24694   24695   24695       0   24697   24698   24699
   24698   24699   24699       0   24701   24702   24703   24702   24703   24703
       0   24705   24706   24707   24706   24707   24707       0   24709   24710
   24711   24710   24711   24711       0   24713   24714   24715   24714   24715
   24715       0   24717   24718   24719   24718   24719   24719       0   24721
   24722   24723   24722   24723   24723       0   24725   24726   24727   24726
   24727   24727       0   24729   24730   24731   24730   24731   24731       0
   24733   24734   24735   24734   24735   24735       0   24737   24738   24739
   24738   24739   24739       0   24741   24742   24743   24742   24743   24743
       0   24745   24746   24747   24746   24747   24747       0   24749   24750
   24751   24750   24751   24751       0   24753   24754   24755   24754   24755
   24755       0   24757   24758   24759   24758   24759   24759       0   24761
   24762   24763   24762   24763   24763       0   24765   24766   24767   24766
   24767   24767       0   24769   24770   24771   24770   24771   24771       0
   24773   24774   24775   24774   24775   24775       0   24777   24778   24779
   24778   24779   24779       0   24781   24782   24783   24782   24783   24783
       0   24785   24786   24787   24786   24787   24787       0   24789   24790
   24791   24790   24791   24791       0   24793   24794   24795   24794   24795
   24795       0   24797   24798   24799   24798   24799   24799       0   24801
   24802   24803   24802   24803   24803       0   24805   24806   24807   24806
   24807   24807       0   24809   24810   24811   24810   24811   24811       0
   24813   24814   24815   24814   24815   24815       0   24817   24818   24819
   24818   24819   24819       0   24821   24822   24823   24822   24823   24823
       0   24825   24826   24827   24826   24827   24827       0   24829   24830
   24831   24830   24831   24831       0   24833   24834   24835   24834   24835
   24835       0   24837   24838   24839   24838   24839   24839       0   24841
   24842   24843   24842   24843   24843       0   24845   24846   24847   24846
   24847   24847       0   24849   24850   24851   24850   24851   24851       0
   24853   24854   24855   24854   24855   24855       0   24857   24858   24859
   24858   24859   24859       0   24861   24862   24863   24862   24863   24863
       0   24865   24866   24867   24866   24867   24867       0   24869   24870
   24871   24870   24871   24871       0   24873   24874   24875   24874   24875
   24875       0   24877   24878   24879   24878   24879   24879       0   24881
   24882   24883   24882   24883   24883       0   24885   24886   24887   24886
   24887   24887       0   24889   24890   24891   24890   24891   24891       0
   24893   24894   24895   24894   24895   24895       0   24897   24898   24899
   24898   24899   24899       0   24901   24902   24903   24902   24903   24903
       0   24905   24906   24907   24906   24907   24907       0   24909   24910
   24911   24910   24911   24911       0   24913   24914   24915   24914   24915
   24915       0   24917   24918   24919   24918   24919   24919       0   24921
   24922   24923   24922   24923   24923       0   24925   24926   24927   24926
   24927   24927       0   24929   24930   24931   24930   24931   24931       0
   24933   24934   24935   24934   24935   24935       0   24937   24938   24939
   24938   24939   24939       0   24941   24942   24943   24942   24943   24943
       0   24945   24946   24947   24946   24947   24947       0   24949   24950
   24951   24950   24951   24951       0   24953   24954   24955   24954   24955
   24955       0   24957   24958   24959   24958   24959   24959       0   24961
   24962   24963   24962   24963   24963       0   24965   24966   24967   24966
   24967   24967       0   24969   24970   24971   24970   24971   24971       0
   24973   24974   24975   24974   24975   24975       0   24977   24978   24979
   24978   24979   24979       0   24981   24982   24983   24982   24983   24983
       0   24985   24986   24987   24986   24987   24987       0   24989   24990
   24991   24990   24991   24991       0   24993   24994   24995   24994   24995
   24995       0   24997   24998   24999   24998   24999   24999       0   25001
   25002   25003   25002   25003   25003       0   25005   25006   25007   25006
   25007   25007       0   25009   25010   25011   25010   25011   25011       0
   25013   25014   25015   25014   25015   25015       0   25017   25018   25019
   25018   25019   25019       0   25021   25022   25023   25022   25023   25023
       0   25025   25026   25027   25026   25027   25027       0   25029   25030
   25031   25030   25031   25031       0   25033   25034   25035   25034   25035
   25035       0   25037   25038   25039   25038   25039   25039       0   25041
   25042   25043   25042   25043   25043       0   25045   25046   25047   25046
   25047   25047       0   25049   25050   25051   25050   25051   25051       0
   25053   25054   25055   25054   25055   25055       0   25057   25058   25059
   25058   25059   25059       0   25061   25062   25063   25062   25063   25063
       0   25065   25066   25067   25066   25067   25067       0   25069   25070
   25071   25070   25071   25071       0   25073   25074   25075   25074   25075
   25075       0   25077   25078   25079   25078   25079   25079       0   25081
   25082   25083   25082   25083   25083       0   25085   25086   25087   25086
   25087   25087       0   25089   25090   25091   25090   25091   25091       0
   25093   25094   25095   25094   25095   25095       0   25097   25098   25099
   25098   25099   25099       0   25101   25102   25103   25102   25103   25103
       0   25105   25106   25107   25106   25107   25107       0   25109   25110
   25111   25110   25111   25111       0   25113   25114   25115   25114   25115
   25115       0   25117   25118   25119   25118   25119   25119       0   25121
   25122   25123   25122   25123   25123       0   25125   25126   25127   25126
   25127   25127       0   25129   25130   25131   25130   25131   25131       0
   25133   25134   25135   25134   25135   25135       0   25137   25138   25139
   25138   25139   25139       0   25141   25142   25143   25142   25143   25143
       0   25145   25146   25147   25146   25147   25147       0   25149   25150
   25151   25150   25151   25151       0   25153   25154   25155   25154   25155
   25155       0   25157   25158   25159   25158   25159   25159       0   25161
   25162   25163   25162   25163   25163       0   25165   25166   25167   25166
   25167   25167       0   25169   25170   25171   25170   25171   25171       0
   25173   25174   25175   25174   25175   25175       0   25177   25178   25179
   25178   25179   25179       0   25181   25182   25183   25182   25183   25183
       0   25185   25186   25187   25186   25187   25187       0   25189   25190
   25191   25190   25191   25191       0   25193   25194   25195   25194   25195
   25195       0   25197   25198   25199   25198   25199   25199       0   25201
   25202   25203   25202   25203   25203       0   25205   25206   25207   25206
   25207   25207       0   25209   25210   25211   25210   25211   25211       0
   25213   25214   25215   25214   25215   25215       0   25217   25218   25219
   25218   25219   25219       0   25221   25222   25223   25222   25223   25223
       0   25225   25226   25227   25226   25227   25227       0   25229   25230
   25231   25230   25231   25231       0   25233   25234   25235   25234   25235
   25235       0   25237   25238   25239   25238   25239   25239       0   25241
   25242   25243   25242   25243   25243       0   25245   25246   25247   25246
   25247   25247       0   25249   25250   25251   25250   25251   25251       0
   25253   25254   25255   25254   25255   25255       0   25257   25258   25259
   25258   25259   25259       0   25261   25262   25263   25262   25263   25263
       0   25265   25266   25267   25266   25267   25267       0   25269   25270
   25271   25270   25271   25271       0   25273   25274   25275   25274   25275
   25275       0   25277   25278   25279   25278   25279   25279       0   25281
   25282   25283   25282   25283   25283       0   25285   25286   25287   25286
   25287   25287       0   25289   25290   25291   25290   25291   25291       0
   25293   25294   25295   25294   25295   25295       0   25297   25298   25299
   25298   25299   25299       0   25301   25302   25303   25302   25303   25303
       0   25305   25306   25307   25306   25307   25307       0   25309   25310
   25311   25310   25311   25311       0   25313   25314   25315   25314   25315
   25315       0   25317   25318   25319   25318   25319   25319       0   25321
   25322   25323   25322   25323   25323       0   25325   25326   25327   25326
   25327   25327       0   25329   25330   25331   25330   25331   25331       0
   25333   25334   25335   25334   25335   25335       0   25337   25338   25339
   25338   25339   25339       0   25341   25342   25343   25342   25343   25343
       0   25345   25346   25347   25346   25347   25347       0   25349   25350
   25351   25350   25351   25351       0   25353   25354   25355   25354   25355
   25355       0   25357   25358   25359   25358   25359   25359       0   25361
   25362   25363   25362   25363   25363       0   25365   25366   25367   25366
   25367   25367       0   25369   25370   25371   25370   25371   25371       0
   25373   25374   25375   25374   25375   25375       0   25377   25378   25379
   25378   25379   25379       0   25381   25382   25383   25382   25383   25383
       0   25385   25386   25387   25386   25387   25387       0   25389   25390
   25391   25390   25391   25391       0   25393   25394   25395   25394   25395
   25395       0   25397   25398   25399   25398   25399   25399       0   25401
   25402   25403   25402   25403   25403       0   25405   25406   25407   25406
   25407   25407       0   25409   25410   25411   25410   25411   25411       0
   25413   25414   25415   25414   25415   25415       0   25417   25418   25419
   25418   25419   25419       0   25421   25422   25423   25422   25423   25423
       0   25425   25426   25427   25426   25427   25427       0   25429   25430
   25431   25430   25431   25431       0   25433   25434   25435   25434   25435
   25435       0   25437   25438   25439   25438   25439   25439       0   25441
   25442   25443   25442   25443   25443       0   25445   25446   25447   25446
   25447   25447       0   25449   25450   25451   25450   25451   25451       0
   25453   25454   25455   25454   25455   25455       0   25457   25458   25459
   25458   25459   25459       0   25461   25462   25463   25462   25463   25463
       0   25465   25466   25467   25466   25467   25467       0   25469   25470
   25471   25470   25471   25471       0   25473   25474   25475   25474   25475
   25475       0   25477   25478   25479   25478   25479   25479       0   25481
   25482   25483   25482   25483   25483       0   25485   25486   25487   25486
   25487   25487       0   25489   25490   25491   25490   25491   25491       0
   25493   25494   25495   25494   25495   25495       0   25497   25498   25499
   25498   25499   25499       0   25501   25502   25503   25502   25503   25503
       0   25505   25506   25507   25506   25507   25507       0   25509   25510
   25511   25510   25511   25511       0   25513   25514   25515   25514   25515
   25515       0   25517   25518   25519   25518   25519   25519       0   25521
   25522   25523   25522   25523   25523       0   25525   25526   25527   25526
   25527   25527       0   25529   25530   25531   25530   25531   25531       0
   25533   25534   25535   25534   25535   25535       0   25537   25538   25539
   25538   25539   25539       0   25541   25542   25543   25542   25543   25543
       0   25545   25546   25547   25546   25547   25547       0   25549   25550
   25551   25550   25551   25551       0   25553   25554   25555   25554   25555
   25555       0   25557   25558   25559   25558   25559   25559       0   25561
   25562   25563   25562   25563   25563       0   25565   25566   25567   25566
   25567   25567       0   25569   25570   25571   25570   25571   25571       0
   25573   25574   25575   25574   25575   25575       0   25577   25578   25579
   25578   25579   25579       0   25581   25582   25583   25582   25583   25583
       0   25585   25586   25587   25586   25587   25587       0   25589   25590
   25591   25590   25591   25591       0   25593   25594   25595   25594   25595
   25595       0   25597   25598   25599   25598   25599   25599       0   25601
   25602   25603   25602   25603   25603       0   25605   25606   25607   25606
   25607   25607       0   25609   25610   25611   25610   25611   25611       0
   25613   25614   25615   25614   25615   25615       0   25617   25618   25619
   25618   25619   25619       0   25621   25622   25623   25622   25623   25623
       0   25625   25626   25627   25626   25627   25627       0   25629   25630
   25631   25630   25631   25631       0   25633   25634   25635   25634   25635
   25635       0   25637   25638   25639   25638   25639   25639       0   25641
   25642   25643   25642   25643   25643       0   25645   25646   25647   25646
   25647   25647       0   25649   25650   25651   25650   25651   25651       0
   25653   25654   25655   25654   25655   25655       0   25657   25658   25659
   25658   25659   25659       0   25661   25662   25663   25662   25663   25663
       0   25665   25666   25667   25666   25667   25667       0   25669   25670
   25671   25670   25671   25671       0   25673   25674   25675   25674   25675
   25675       0   25677   25678   25679   25678   25679   25679       0   25681
   25682   25683   25682   25683   25683       0   25685   25686   25687   25686
   25687   25687       0   25689   25690   25691   25690   25691   25691       0
   25693   25694   25695   25694   25695   25695       0   25697   25698   25699
   25698   25699   25699       0   25701   25702   25703   25702   25703   25703
       0   25705   25706   25707   25706   25707   25707       0   25709   25710
   25711   25710   25711   25711       0   25713   25714   25715   25714   25715
   25715       0   25717   25718   25719   25718   25719   25719       0   25721
   25722   25723   25722   25723   25723       0   25725   25726   25727   25726
   25727   25727       0   25729   25730   25731   25730   25731   25731       0
   25733   25734   25735   25734   25735   25735       0   25737   25738   25739
   25738   25739   25739       0   25741   25742   25743   25742   25743   25743
       0   25745   25746   25747   25746   25747   25747       0   25749   25750
   25751   25750   25751   25751       0   25753   25754   25755   25754   25755
   25755       0   25757   25758   25759   25758   25759   25759       0   25761
   25762   25763   25762   25763   25763       0   25765   25766   25767   25766
   25767   25767       0   25769   25770   25771   25770   25771   25771       0
   25773   25774   25775   25774   25775   25775       0   25777   25778   25779
   25778   25779   25779       0   25781   25782   25783   25782   25783   25783
       0   25785   25786   25787   25786   25787   25787       0   25789   25790
   25791   25790   25791   25791       0   25793   25794   25795   25794   25795
   25795       0   25797   25798   25799   25798   25799   25799       0   25801
   25802   25803   25802   25803   25803       0   25805   25806   25807   25806
   25807   25807       0   25809   25810   25811   25810   25811   25811       0
   25813   25814   25815   25814   25815   25815       0   25817   25818   25819
   25818   25819   25819       0   25821   25822   25823   25822   25823   25823
       0   25825   25826   25827   25826   25827   25827       0   25829   25830
   25831   25830   25831   25831       0   25833   25834   25835   25834   25835
   25835       0   25837   25838   25839   25838   25839   25839       0   25841
   25842   25843   25842   25843   25843       0   25845   25846   25847   25846
   25847   25847       0   25849   25850   25851   25850   25851   25851       0
   25853   25854   25855   25854   25855   25855       0   25857   25858   25859
   25858   25859   25859       0   25861   25862   25863   25862   25863   25863
       0   25865   25866   25867   25866   25867   25867       0   25869   25870
   25871   25870   25871   25871       0   25873   25874   25875   25874   25875
   25875       0   25877   25878   25879   25878   25879   25879       0   25881
   25882   25883   25882   25883   25883       0   25885   25886   25887   25886
   25887   25887       0   25889   25890   25891   25890   25891   25891       0
   25893   25894   25895   25894   25895   25895       0   25897   25898   25899
   25898   25899   25899       0   25901   25902   25903   25902   25903   25903
       0   25905   25906   25907   25906   25907   25907       0   25909   25910
   25911   25910   25911   25911       0   25913   25914   25915   25914   25915
   25915       0   25917   25918   25919   25918   25919   25919       0   25921
   25922   25923   25922   25923   25923       0   25925   25926   25927   25926
   25927   25927       0   25929   25930   25931   25930   25931   25931       0
   25933   25934   25935   25934   25935   25935       0   25937   25938   25939
   25938   25939   25939       0   25941   25942   25943   25942   25943   25943
       0   25945   25946   25947   25946   25947   25947       0   25949   25950
   25951   25950   25951   25951       0   25953   25954   25955   25954   25955
   25955       0   25957   25958   25959   25958   25959   25959       0   25961
   25962   25963   25962   25963   25963       0   25965   25966   25967   25966
   25967   25967       0   25969   25970   25971   25970   25971   25971       0
   25973   25974   25975   25974   25975   25975       0   25977   25978   25979
   25978   25979   25979       0   25981   25982   25983   25982   25983   25983
       0   25985   25986   25987   25986   25987   25987       0   25989   25990
   25991   25990   25991   25991       0   25993   25994   25995   25994   25995
   25995       0   25997   25998   25999   25998   25999   25999       0   26001
   26002   26003   26002   26003   26003       0   26005   26006   26007   26006
   26007   26007       0   26009   26010   26011   26010   26011   26011       0
   26013   26014   26015   26014   26015   26015       0   26017   26018   26019
   26018   26019   26019       0   26021   26022   26023   26022   26023   26023
       0   26025   26026   26027   26026   26027   26027       0   26029   26030
   26031   26030   26031   26031       0   26033   26034   26035   26034   26035
   26035       0   26037   26038   26039   26038   26039   26039       0   26041
   26042   26043   26042   26043   26043       0   26045   26046   26047   26046
   26047   26047       0   26049   26050   26051   26050   26051   26051       0
   26053   26054   26055   26054   26055   26055       0   26057   26058   26059
   26058   26059   26059       0   26061   26062   26063   26062   26063   26063
       0   26065   26066   26067   26066   26067   26067       0   26069   26070
   26071   26070   26071   26071       0   26073   26074   26075   26074   26075
   26075       0   26077   26078   26079   26078   26079   26079       0   26081
   26082   26083   26082   26083   26083       0   26085   26086   26087   26086
   26087   26087       0   26089   26090   26091   26090   26091   26091       0
   26093   26094   26095   26094   26095   26095       0   26097   26098   26099
   26098   26099   26099       0   26101   26102   26103   26102   26103   26103
       0   26105   26106   26107   26106   26107   26107       0   26109   26110
   26111   26110   26111   26111       0   26113   26114   26115   26114   26115
   26115       0   26117   26118   26119   26118   26119   26119       0   26121
   26122   26123   26122   26123   26123       0   26125   26126   26127   26126
   26127   26127       0   26129   26130   26131   26130   26131   26131       0
   26133   26134   26135   26134   26135   26135       0   26137   26138   26139
   26138   26139   26139       0   26141   26142   26143   26142   26143   26143
       0   26145   26146   26147   26146   26147   26147       0   26149   26150
   26151   26150   26151   26151       0   26153   26154   26155   26154   26155
   26155       0   26157   26158   26159   26158   26159   26159       0   26161
   26162   26163   26162   26163   26163       0   26165   26166   26167   26166
   26167   26167       0   26169   26170   26171   26170   26171   26171       0
   26173   26174   26175   26174   26175   26175       0   26177   26178   26179
   26178   26179   26179       0   26181   26182   26183   26182   26183   26183
       0   26185   26186   26187   26186   26187   26187       0   26189   26190
   26191   26190   26191   26191       0   26193   26194   26195   26194   26195
   26195       0   26197   26198   26199   26198   26199   26199       0   26201
   26202   26203   26202   26203   26203       0   26205   26206   26207   26206
   26207   26207       0   26209   26210   26211   26210   26211   26211       0
   26213   26214   26215   26214   26215   26215       0   26217   26218   26219
   26218   26219   26219       0   26221   26222   26223   26222   26223   26223
       0   26225   26226   26227   26226   26227   26227       0   26229   26230
   26231   26230   26231   26231       0   26233   26234   26235   26234   26235
   26235       0   26237   26238   26239   26238   26239   26239       0   26241
   26242   26243   26242   26243   26243       0   26245   26246   26247   26246
   26247   26247       0   26249   26250   26251   26250   26251   26251       0
   26253   26254   26255   26254   26255   26255       0   26257   26258   26259
   26258   26259   26259       0   26261   26262   26263   26262   26263   26263
       0   26265   26266   26267   26266   26267   26267       0   26269   26270
   26271   26270   26271   26271       0   26273   26274   26275   26274   26275
   26275       0   26277   26278   26279   26278   26279   26279       0   26281
   26282   26283   26282   26283   26283       0   26285   26286   26287   26286
   26287   26287       0   26289   26290   26291   26290   26291   26291       0
   26293   26294   26295   26294   26295   26295       0   26297   26298   26299
   26298   26299   26299       0   26301   26302   26303   26302   26303   26303
       0   26305   26306   26307   26306   26307   26307       0   26309   26310
   26311   26310   26311   26311       0   26313   26314   26315   26314   26315
   26315       0   26317   26318   26319   26318   26319   26319       0   26321
   26322   26323   26322   26323   26323       0   26325   26326   26327   26326
   26327   26327       0   26329   26330   26331   26330   26331   26331       0
   26333   26334   26335   26334   26335   26335       0   26337   26338   26339
   26338   26339   26339       0   26341   26342   26343   26342   26343   26343
       0   26345   26346   26347   26346   26347   26347       0   26349   26350
   26351   26350   26351   26351       0   26353   26354   26355   26354   26355
   26355       0   26357   26358   26359   26358   26359   26359       0   26361
   26362   26363   26362   26363   26363       0   26365   26366   26367   26366
   26367   26367       0   26369   26370   26371   26370   26371   26371       0
   26373   26374   26375   26374   26375   26375       0   26377   26378   26379
   26378   26379   26379       0   26381   26382   26383   26382   26383   26383
       0   26385   26386   26387   26386   26387   26387       0   26389   26390
   26391   26390   26391   26391       0   26393   26394   26395   26394   26395
   26395       0   26397   26398   26399   26398   26399   26399       0   26401
   26402   26403   26402   26403   26403       0   26405   26406   26407   26406
   26407   26407       0   26409   26410   26411   26410   26411   26411       0
   26413   26414   26415   26414   26415   26415       0   26417   26418   26419
   26418   26419   26419       0   26421   26422   26423   26422   26423   26423
       0   26425   26426   26427   26426   26427   26427       0   26429   26430
   26431   26430   26431   26431       0   26433   26434   26435   26434   26435
   26435       0   26437   26438   26439   26438   26439   26439       0   26441
   26442   26443   26442   26443   26443       0   26445   26446   26447   26446
   26447   26447       0   26449   26450   26451   26450   26451   26451       0
   26453   26454   26455   26454   26455   26455       0   26457   26458   26459
   26458   26459   26459       0   26461   26462   26463   26462   26463   26463
       0   26465   26466   26467   26466   26467   26467       0   26469   26470
   26471   26470   26471   26471       0   26473   26474   26475   26474   26475
   26475       0   26477   26478   26479   26478   26479   26479       0   26481
   26482   26483   26482   26483   26483       0   26485   26486   26487   26486
   26487   26487       0   26489   26490   26491   26490   26491   26491       0
   26493   26494   26495   26494   26495   26495       0   26497   26498   26499
   26498   26499   26499       0   26501   26502   26503   26502   26503   26503
       0   26505   26506   26507   26506   26507   26507       0   26509   26510
   26511   26510   26511   26511       0   26513   26514   26515   26514   26515
   26515       0   26517   26518   26519   26518   26519   26519       0   26521
   26522   26523   26522   26523   26523       0   26525   26526   26527   26526
   26527   26527       0   26529   26530   26531   26530   26531   26531       0
   26533   26534   26535   26534   26535   26535       0   26537   26538   26539
   26538   26539   26539       0   26541   26542   26543   26542   26543   26543
       0   26545   26546   26547   26546   26547   26547       0   26549   26550
   26551   26550   26551   26551       0   26553   26554   26555   26554   26555
   26555       0   26557   26558   26559   26558   26559   26559       0   26561
   26562   26563   26562   26563   26563       0   26565   26566   26567   26566
   26567   26567       0   26569   26570   26571   26570   26571   26571       0
   26573   26574   26575   26574   26575   26575       0   26577   26578   26579
   26578   26579   26579       0   26581   26582   26583   26582   26583   26583
       0   26585   26586   26587   26586   26587   26587       0   26589   26590
   26591   26590   26591   26591       0   26593   26594   26595   26594   26595
   26595       0   26597   26598   26599   26598   26599   26599       0   26601
   26602   26603   26602   26603   26603       0   26605   26606   26607   26606
   26607   26607       0   26609   26610   26611   26610   26611   26611       0
   26613   26614   26615   26614   26615   26615       0   26617   26618   26619
   26618   26619   26619       0   26621   26622   26623   26622   26623   26623
       0   26625   26626   26627   26626   26627   26627       0   26629   26630
   26631   26630   26631   26631       0   26633   26634   26635   26634   26635
   26635       0   26637   26638   26639   26638   26639   26639       0   26641
   26642   26643   26642   26643   26643       0   26645   26646   26647   26646
   26647   26647       0   26649   26650   26651   26650   26651   26651       0
   26653   26654   26655   26654   26655   26655       0   26657   26658   26659
   26658   26659   26659       0   26661   26662   26663   26662   26663   26663
       0   26665   26666   26667   26666   26667   26667       0   26669   26670
   26671   26670   26671   26671       0   26673   26674   26675   26674   26675
   26675       0   26677   26678   26679   26678   26679   26679       0   26681
   26682   26683   26682   26683   26683       0   26685   26686   26687   26686
   26687   26687       0   26689   26690   26691   26690   26691   26691       0
   26693   26694   26695   26694   26695   26695       0   26697   26698   26699
   26698   26699   26699       0   26701   26702   26703   26702   26703   26703
       0   26705   26706   26707   26706   26707   26707       0   26709   26710
   26711   26710   26711   26711       0   26713   26714   26715   26714   26715
   26715       0   26717   26718   26719   26718   26719   26719       0   26721
   26722   26723   26722   26723   26723       0   26725   26726   26727   26726
   26727   26727       0   26729   26730   26731   26730   26731   26731       0
   26733   26734   26735   26734   26735   26735       0   26737   26738   26739
   26738   26739   26739       0   26741   26742   26743   26742   26743   26743
       0   26745   26746   26747   26746   26747   26747       0   26749   26750
   26751   26750   26751   26751       0   26753   26754   26755   26754   26755
   26755       0   26757   26758   26759   26758   26759   26759       0   26761
   26762   26763   26762   26763   26763       0   26765   26766   26767   26766
   26767   26767       0   26769   26770   26771   26770   26771   26771       0
   26773   26774   26775   26774   26775   26775       0   26777   26778   26779
   26778   26779   26779       0   26781   26782   26783   26782   26783   26783
       0   26785   26786   26787   26786   26787   26787       0   26789   26790
   26791   26790   26791   26791       0   26793   26794   26795   26794   26795
   26795       0   26797   26798   26799   26798   26799   26799       0   26801
   26802   26803   26802   26803   26803       0   26805   26806   26807   26806
   26807   26807       0   26809   26810   26811   26810   26811   26811       0
   26813   26814   26815   26814   26815   26815       0   26817   26818   26819
   26818   26819   26819       0   26821   26822   26823   26822   26823   26823
       0   26825   26826   26827   26826   26827   26827       0   26829   26830
   26831   26830   26831   26831       0   26833   26834   26835   26834   26835
   26835       0   26837   26838   26839   26838   26839   26839       0   26841
   26842   26843   26842   26843   26843       0   26845   26846   26847   26846
   26847   26847       0   26849   26850   26851   26850   26851   26851       0
   26853   26854   26855   26854   26855   26855       0   26857   26858   26859
   26858   26859   26859       0   26861   26862   26863   26862   26863   26863
       0   26865   26866   26867   26866   26867   26867       0   26869   26870
   26871   26870   26871   26871       0   26873   26874   26875   26874   26875
   26875       0   26877   26878   26879   26878   26879   26879       0   26881
   26882   26883   26882   26883   26883       0   26885   26886   26887   26886
   26887   26887       0   26889   26890   26891   26890   26891   26891       0
   26893   26894   26895   26894   26895   26895       0   26897   26898   26899
   26898   26899   26899       0   26901   26902   26903   26902   26903   26903
       0   26905   26906   26907   26906   26907   26907       0   26909   26910
   26911   26910   26911   26911       0   26913   26914   26915   26914   26915
   26915       0   26917   26918   26919   26918   26919   26919       0   26921
   26922   26923   26922   26923   26923       0   26925   26926   26927   26926
   26927   26927       0   26929   26930   26931   26930   26931   26931       0
   26933   26934   26935   26934   26935   26935       0   26937   26938   26939
   26938   26939   26939       0   26941   26942   26943   26942   26943   26943
       0   26945   26946   26947   26946   26947   26947       0   26949   26950
   26951   26950   26951   26951       0   26953   26954   26955   26954   26955
   26955       0   26957   26958   26959   26958   26959   26959       0   26961
   26962   26963   26962   26963   26963       0   26965   26966   26967   26966
   26967   26967       0   26969   26970   26971   26970   26971   26971       0
   26973   26974   26975   26974   26975   26975       0   26977   26978   26979
   26978   26979   26979       0   26981   26982   26983   26982   26983   26983
       0   26985   26986   26987   26986   26987   26987       0   26989   26990
   26991   26990   26991   26991       0   26993   26994   26995   26994   26995
   26995       0   26997   26998   26999   26998   26999   26999       0   27001
   27002   27003   27002   27003   27003       0   27005   27006   27007   27006
   27007   27007       0   27009   27010   27011   27010   27011   27011       0
   27013   27014   27015   27014   27015   27015       0   27017   27018   27019
   27018   27019   27019       0   27021   27022   27023   27022   27023   27023
       0   27025   27026   27027   27026   27027   27027       0   27029   27030
   27031   27030   27031   27031       0   27033   27034   27035   27034   27035
   27035       0   27037   27038   27039   27038   27039   27039       0   27041
   27042   27043   27042   27043   27043       0   27045   27046   27047   27046
   27047   27047       0   27049   27050   27051   27050   27051   27051       0
   27053   27054   27055   27054   27055   27055       0   27057   27058   27059
   27058   27059   27059       0   27061   27062   27063   27062   27063   27063
       0   27065   27066   27067   27066   27067   27067       0   27069   27070
   27071   27070   27071   27071       0   27073   27074   27075   27074   27075
   27075       0   27077   27078   27079   27078   27079   27079       0   27081
   27082   27083   27082   27083   27083       0   27085   27086   27087   27086
   27087   27087       0   27089   27090   27091   27090   27091   27091       0
   27093   27094   27095   27094   27095   27095       0   27097   27098   27099
   27098   27099   27099       0   27101   27102   27103   27102   27103   27103
       0   27105   27106   27107   27106   27107   27107       0   27109   27110
   27111   27110   27111   27111       0   27113   27114   27115   27114   27115
   27115       0   27117   27118   27119   27118   27119   27119       0   27121
   27122   27123   27122   27123   27123       0   27125   27126   27127   27126
   27127   27127       0   27129   27130   27131   27130   27131   27131       0
   27133   27134   27135   27134   27135   27135       0   27137   27138   27139
   27138   27139   27139       0   27141   27142   27143   27142   27143   27143
       0   27145   27146   27147   27146   27147   27147       0   27149   27150
   27151   27150   27151   27151       0   27153   27154   27155   27154   27155
   27155       0   27157   27158   27159   27158   27159   27159       0   27161
   27162   27163   27162   27163   27163       0   27165   27166   27167   27166
   27167   27167       0   27169   27170   27171   27170   27171   27171       0
   27173   27174   27175   27174   27175   27175       0   27177   27178   27179
   27178   27179   27179       0   27181   27182   27183   27182   27183   27183
       0   27185   27186   27187   27186   27187   27187       0   27189   27190
   27191   27190   27191   27191       0   27193   27194   27195   27194   27195
   27195       0   27197   27198   27199   27198   27199   27199       0   27201
   27202   27203   27202   27203   27203       0   27205   27206   27207   27206
   27207   27207       0   27209   27210   27211   27210   27211   27211       0
   27213   27214   27215   27214   27215   27215       0   27217   27218   27219
   27218   27219   27219       0   27221   27222   27223   27222   27223   27223
       0   27225   27226   27227   27226   27227   27227       0   27229   27230
   27231   27230   27231   27231       0   27233   27234   27235   27234   27235
   27235       0   27237   27238   27239   27238   27239   27239       0   27241
   27242   27243   27242   27243   27243       0   27245   27246   27247   27246
   27247   27247       0   27249   27250   27251   27250   27251   27251       0
   27253   27254   27255   27254   27255   27255       0   27257   27258   27259
   27258   27259   27259       0   27261   27262   27263   27262   27263   27263
       0   27265   27266   27267   27266   27267   27267       0   27269   27270
   27271   27270   27271   27271       0   27273   27274   27275   27274   27275
   27275       0   27277   27278   27279   27278   27279   27279       0   27281
   27282   27283   27282   27283   27283       0   27285   27286   27287   27286
   27287   27287       0   27289   27290   27291   27290   27291   27291       0
   27293   27294   27295   27294   27295   27295       0   27297   27298   27299
   27298   27299   27299       0   27301   27302   27303   27302   27303   27303
       0   27305   27306   27307   27306   27307   27307       0   27309   27310
   27311   27310   27311   27311       0   27313   27314   27315   27314   27315
   27315       0   27317   27318   27319   27318   27319   27319       0   27321
   27322   27323   27322   27323   27323       0   27325   27326   27327   27326
   27327   27327       0   27329   27330   27331   27330   27331   27331       0
   27333   27334   27335   27334   27335   27335       0   27337   27338   27339
   27338   27339   27339       0   27341   27342   27343   27342   27343   27343
       0   27345   27346   27347   27346   27347   27347       0   27349   27350
   27351   27350   27351   27351       0   27353   27354   27355   27354   27355
   27355       0   27357   27358   27359   27358   27359   27359       0   27361
   27362   27363   27362   27363   27363       0   27365   27366   27367   27366
   27367   27367       0   27369   27370   27371   27370   27371   27371       0
   27373   27374   27375   27374   27375   27375       0   27377   27378   27379
   27378   27379   27379       0   27381   27382   27383   27382   27383   27383
       0   27385   27386   27387   27386   27387   27387       0   27389   27390
   27391   27390   27391   27391       0   27393   27394   27395   27394   27395
   27395       0   27397   27398   27399   27398   27399   27399       0   27401
   27402   27403   27402   27403   27403       0   27405   27406   27407   27406
   27407   27407       0   27409   27410   27411   27410   27411   27411       0
   27413   27414   27415   27414   27415   27415       0   27417   27418   27419
   27418   27419   27419       0   27421   27422   27423   27422   27423   27423
       0   27425   27426   27427   27426   27427   27427       0   27429   27430
   27431   27430   27431   27431       0   27433   27434   27435   27434   27435
   27435       0   27437   27438   27439   27438   27439   27439       0   27441
   27442   27443   27442   27443   27443       0   27445   27446   27447   27446
   27447   27447       0   27449   27450   27451   27450   27451   27451       0
   27453   27454   27455   27454   27455   27455       0   27457   27458   27459
   27458   27459   27459       0   27461   27462   27463   27462   27463   27463
       0   27465   27466   27467   27466   27467   27467       0   27469   27470
   27471   27470   27471   27471       0   27473   27474   27475   27474   27475
   27475       0   27477   27478   27479   27478   27479   27479       0   27481
   27482   27483   27482   27483   27483       0   27485   27486   27487   27486
   27487   27487       0   27489   27490   27491   27490   27491   27491       0
   27493   27494   27495   27494   27495   27495       0   27497   27498   27499
   27498   27499   27499       0   27501   27502   27503   27502   27503   27503
       0   27505   27506   27507   27506   27507   27507       0   27509   27510
   27511   27510   27511   27511       0   27513   27514   27515   27514   27515
   27515       0   27517   27518   27519   27518   27519   27519       0   27521
   27522   27523   27522   27523   27523       0   27525   27526   27527   27526
   27527   27527       0   27529   27530   27531   27530   27531   27531       0
   27533   27534   27535   27534   27535   27535       0   27537   27538   27539
   27538   27539   27539       0   27541   27542   27543   27542   27543   27543
       0   27545   27546   27547   27546   27547   27547       0   27549   27550
   27551   27550   27551   27551       0   27553   27554   27555   27554   27555
   27555       0   27557   27558   27559   27558   27559   27559       0   27561
   27562   27563   27562   27563   27563       0   27565   27566   27567   27566
   27567   27567       0   27569   27570   27571   27570   27571   27571       0
   27573   27574   27575   27574   27575   27575       0   27577   27578   27579
   27578   27579   27579       0   27581   27582   27583   27582   27583   27583
       0   27585   27586   27587   27586   27587   27587       0   27589   27590
   27591   27590   27591   27591       0   27593   27594   27595   27594   27595
   27595       0   27597   27598   27599   27598   27599   27599       0   27601
   27602   27603   27602   27603   27603       0   27605   27606   27607   27606
   27607   27607       0   27609   27610   27611   27610   27611   27611       0
   27613   27614   27615   27614   27615   27615       0   27617   27618   27619
   27618   27619   27619       0   27621   27622   27623   27622   27623   27623
       0   27625   27626   27627   27626   27627   27627       0   27629   27630
   27631   27630   27631   27631       0   27633   27634   27635   27634   27635
   27635       0   27637   27638   27639   27638   27639   27639       0   27641
   27642   27643   27642   27643   27643       0   27645   27646   27647   27646
   27647   27647       0   27649   27650   27651   27650   27651   27651       0
   27653   27654   27655   27654   27655   27655       0   27657   27658   27659
   27658   27659   27659       0   27661   27662   27663   27662   27663   27663
       0   27665   27666   27667   27666   27667   27667       0   27669   27670
   27671   27670   27671   27671       0   27673   27674   27675   27674   27675
   27675       0   27677   27678   27679   27678   27679   27679       0   27681
   27682   27683   27682   27683   27683       0   27685   27686   27687   27686
   27687   27687       0   27689   27690   27691   27690   27691   27691       0
   27693   27694   27695   27694   27695   27695       0   27697   27698   27699
   27698   27699   27699       0   27701   27702   27703   27702   27703   27703
       0   27705   27706   27707   27706   27707   27707       0   27709   27710
   27711   27710   27711   27711       0   27713   27714   27715   27714   27715
   27715       0   27717   27718   27719   27718   27719   27719       0   27721
   27722   27723   27722   27723   27723       0   27725   27726   27727   27726
   27727   27727       0   27729   27730   27731   27730   27731   27731       0
   27733   27734   27735   27734   27735   27735       0   27737   27738   27739
   27738   27739   27739       0   27741   27742   27743   27742   27743   27743
       0   27745   27746   27747   27746   27747   27747       0   27749   27750
   27751   27750   27751   27751       0   27753   27754   27755   27754   27755
   27755       0   27757   27758   27759   27758   27759   27759       0   27761
   27762   27763   27762   27763   27763       0   27765   27766   27767   27766
   27767   27767       0   27769   27770   27771   27770   27771   27771       0
   27773   27774   27775   27774   27775   27775       0   27777   27778   27779
   27778   27779   27779       0   27781   27782   27783   27782   27783   27783
       0   27785   27786   27787   27786   27787   27787       0   27789   27790
   27791   27790   27791   27791       0   27793   27794   27795   27794   27795
   27795       0   27797   27798   27799   27798   27799   27799       0   27801
   27802   27803   27802   27803   27803       0   27805   27806   27807   27806
   27807   27807       0   27809   27810   27811   27810   27811   27811       0
   27813   27814   27815   27814   27815   27815       0   27817   27818   27819
   27818   27819   27819       0   27821   27822   27823   27822   27823   27823
       0   27825   27826   27827   27826   27827   27827       0   27829   27830
   27831   27830   27831   27831       0   27833   27834   27835   27834   27835
   27835       0   27837   27838   27839   27838   27839   27839       0   27841
   27842   27843   27842   27843   27843       0   27845   27846   27847   27846
   27847   27847       0   27849   27850   27851   27850   27851   27851       0
   27853   27854   27855   27854   27855   27855       0   27857   27858   27859
   27858   27859   27859       0   27861   27862   27863   27862   27863   27863
       0   27865   27866   27867   27866   27867   27867       0   27869   27870
   27871   27870   27871   27871       0   27873   27874   27875   27874   27875
   27875       0   27877   27878   27879   27878   27879   27879       0   27881
   27882   27883   27882   27883   27883       0   27885   27886   27887   27886
   27887   27887       0   27889   27890   27891   27890   27891   27891       0
   27893   27894   27895   27894   27895   27895       0   27897   27898   27899
   27898   27899   27899       0   27901   27902   27903   27902   27903   27903
       0   27905   27906   27907   27906   27907   27907       0   27909   27910
   27911   27910   27911   27911       0   27913   27914   27915   27914   27915
   27915       0   27917   27918   27919   27918   27919   27919       0   27921
   27922   27923   27922   27923   27923       0   27925   27926   27927   27926
   27927   27927       0   27929   27930   27931   27930   27931   27931       0
   27933   27934   27935   27934   27935   27935       0   27937   27938   27939
   27938   27939   27939       0   27941   27942   27943   27942   27943   27943
       0   27945   27946   27947   27946   27947   27947       0   27949   27950
   27951   27950   27951   27951       0   27953   27954   27955   27954   27955
   27955       0   27957   27958   27959   27958   27959   27959       0   27961
   27962   27963   27962   27963   27963       0   27965   27966   27967   27966
   27967   27967       0   27969   27970   27971   27970   27971   27971       0
   27973   27974   27975   27974   27975   27975       0   27977   27978   27979
   27978   27979   27979       0   27981   27982   27983   27982   27983   27983
       0   27985   27986   27987   27986   27987   27987       0   27989   27990
   27991   27990   27991   27991       0   27993   27994   27995   27994   27995
   27995       0   27997   27998   27999   27998   27999   27999       0   28001
   28002   28003   28002   28003   28003       0   28005   28006   28007   28006
   28007   28007       0   28009   28010   28011   28010   28011   28011       0
   28013   28014   28015   28014   28015   28015       0   28017   28018   28019
   28018   28019   28019       0   28021   28022   28023   28022   28023   28023
       0   28025   28026   28027   28026   28027   28027       0   28029   28030
   28031   28030   28031   28031       0   28033   28034   28035   28034   28035
   28035       0   28037   28038   28039   28038   28039   28039       0   28041
   28042   28043   28042   28043   28043       0   28045   28046   28047   28046
   28047   28047       0   28049   28050   28051   28050   28051   28051       0
   28053   28054   28055   28054   28055   28055       0   28057   28058   28059
   28058   28059   28059       0   28061   28062   28063   28062   28063   28063
       0   28065   28066   28067   28066   28067   28067       0   28069   28070
   28071   28070   28071   28071       0   28073   28074   28075   28074   28075
   28075       0   28077   28078   28079   28078   28079   28079       0   28081
   28082   28083   28082   28083   28083       0   28085   28086   28087   28086
   28087   28087       0   28089   28090   28091   28090   28091   28091       0
   28093   28094   28095   28094   28095   28095       0   28097   28098   28099
   28098   28099   28099       0   28101   28102   28103   28102   28103   28103
       0   28105   28106   28107   28106   28107   28107       0   28109   28110
   28111   28110   28111   28111       0   28113   28114   28115   28114   28115
   28115       0   28117   28118   28119   28118   28119   28119       0   28121
   28122   28123   28122   28123   28123       0   28125   28126   28127   28126
   28127   28127       0   28129   28130   28131   28130   28131   28131       0
   28133   28134   28135   28134   28135   28135       0   28137   28138   28139
   28138   28139   28139       0   28141   28142   28143   28142   28143   28143
       0   28145   28146   28147   28146   28147   28147       0   28149   28150
   28151   28150   28151   28151       0   28153   28154   28155   28154   28155
   28155       0   28157   28158   28159   28158   28159   28159       0   28161
   28162   28163   28162   28163   28163       0   28165   28166   28167   28166
   28167   28167       0   28169   28170   28171   28170   28171   28171       0
   28173   28174   28175   28174   28175   28175       0   28177   28178   28179
   28178   28179   28179       0   28181   28182   28183   28182   28183   28183
       0   28185   28186   28187   28186   28187   28187       0   28189   28190
   28191   28190   28191   28191       0   28193   28194   28195   28194   28195
   28195       0   28197   28198   28199   28198   28199   28199       0   28201
   28202   28203   28202   28203   28203       0   28205   28206   28207   28206
   28207   28207       0   28209   28210   28211   28210   28211   28211       0
   28213   28214   28215   28214   28215   28215       0   28217   28218   28219
   28218   28219   28219       0   28221   28222   28223   28222   28223   28223
       0   28225   28226   28227   28226   28227   28227       0   28229   28230
   28231   28230   28231   28231       0   28233   28234   28235   28234   28235
   28235       0   28237   28238   28239   28238   28239   28239       0   28241
   28242   28243   28242   28243   28243       0   28245   28246   28247   28246
   28247   28247       0   28249   28250   28251   28250   28251   28251       0
   28253   28254   28255   28254   28255   28255       0   28257   28258   28259
   28258   28259   28259       0   28261   28262   28263   28262   28263   28263
       0   28265   28266   28267   28266   28267   28267       0   28269   28270
   28271   28270   28271   28271       0   28273   28274   28275   28274   28275
   28275       0   28277   28278   28279   28278   28279   28279       0   28281
   28282   28283   28282   28283   28283       0   28285   28286   28287   28286
   28287   28287       0   28289   28290   28291   28290   28291   28291       0
   28293   28294   28295   28294   28295   28295       0   28297   28298   28299
   28298   28299   28299       0   28301   28302   28303   28302   28303   28303
       0   28305   28306   28307   28306   28307   28307       0   28309   28310
   28311   28310   28311   28311       0   28313   28314   28315   28314   28315
   28315       0   28317   28318   28319   28318   28319   28319       0   28321
   28322   28323   28322   28323   28323       0   28325   28326   28327   28326
   28327   28327       0   28329   28330   28331   28330   28331   28331       0
   28333   28334   28335   28334   28335   28335       0   28337   28338   28339
   28338   28339   28339       0   28341   28342   28343   28342   28343   28343
       0   28345   28346   28347   28346   28347   28347       0   28349   28350
   28351   28350   28351   28351       0   28353   28354   28355   28354   28355
   28355       0   28357   28358   28359   28358   28359   28359       0   28361
   28362   28363   28362   28363   28363       0   28365   28366   28367   28366
   28367   28367       0   28369   28370   28371   28370   28371   28371       0
   28373   28374   28375   28374   28375   28375       0   28377   28378   28379
   28378   28379   28379       0   28381   28382   28383   28382   28383   28383
       0   28385   28386   28387   28386   28387   28387       0   28389   28390
   28391   28390   28391   28391       0   28393   28394   28395   28394   28395
   28395       0   28397   28398   28399   28398   28399   28399       0   28401
   28402   28403   28402   28403   28403       0   28405   28406   28407   28406
   28407   28407       0   28409   28410   28411   28410   28411   28411       0
   28413   28414   28415   28414   28415   28415       0   28417   28418   28419
   28418   28419   28419       0   28421   28422   28423   28422   28423   28423
       0   28425   28426   28427   28426   28427   28427       0   28429   28430
   28431   28430   28431   28431       0   28433   28434   28435   28434   28435
   28435       0   28437   28438   28439   28438   28439   28439       0   28441
   28442   28443   28442   28443   28443       0   28445   28446   28447   28446
   28447   28447       0   28449   28450   28451   28450   28451   28451       0
   28453   28454   28455   28454   28455   28455       0   28457   28458   28459
   28458   28459   28459       0   28461   28462   28463   28462   28463   28463
       0   28465   28466   28467   28466   28467   28467       0   28469   28470
   28471   28470   28471   28471       0   28473   28474   28475   28474   28475
   28475       0   28477   28478   28479   28478   28479   28479       0   28481
   28482   28483   28482   28483   28483       0   28485   28486   28487   28486
   28487   28487       0   28489   28490   28491   28490   28491   28491       0
   28493   28494   28495   28494   28495   28495       0   28497   28498   28499
   28498   28499   28499       0   28501   28502   28503   28502   28503   28503
       0   28505   28506   28507   28506   28507   28507       0   28509   28510
   28511   28510   28511   28511       0   28513   28514   28515   28514   28515
   28515       0   28517   28518   28519   28518   28519   28519       0   28521
   28522   28523   28522   28523   28523       0   28525   28526   28527   28526
   28527   28527       0   28529   28530   28531   28530   28531   28531       0
   28533   28534   28535   28534   28535   28535       0   28537   28538   28539
   28538   28539   28539       0   28541   28542   28543   28542   28543   28543
       0   28545   28546   28547   28546   28547   28547       0   28549   28550
   28551   28550   28551   28551       0   28553   28554   28555   28554   28555
   28555       0   28557   28558   28559   28558   28559   28559       0   28561
   28562   28563   28562   28563   28563       0   28565   28566   28567   28566
   28567   28567       0   28569   28570   28571   28570   28571   28571       0
   28573   28574   28575   28574   28575   28575       0   28577   28578   28579
   28578   28579   28579       0   28581   28582   28583   28582   28583   28583
       0   28585   28586   28587   28586   28587   28587       0   28589   28590
   28591   28590   28591   28591       0   28593   28594   28595   28594   28595
   28595       0   28597   28598   28599   28598   28599   28599       0   28601
   28602   28603   28602   28603   28603       0   28605   28606   28607   28606
   28607   28607       0   28609   28610   28611   28610   28611   28611       0
   28613   28614   28615   28614   28615   28615       0   28617   28618   28619
   28618   28619   28619       0   28621   28622   28623   28622   28623   28623
       0   28625   28626   28627   28626   28627   28627       0   28629   28630
   28631   28630   28631   28631       0   28633   28634   28635   28634   28635
   28635       0   28637   28638   28639   28638   28639   28639       0   28641
   28642   28643   28642   28643   28643       0   28645   28646   28647   28646
   28647   28647       0   28649   28650   28651   28650   28651   28651       0
   28653   28654   28655   28654   28655   28655       0   28657   28658   28659
   28658   28659   28659       0   28661   28662   28663   28662   28663   28663
       0   28665   28666   28667   28666   28667   28667       0   28669   28670
   28671   28670   28671   28671       0   28673   28674   28675   28674   28675
   28675       0   28677   28678   28679   28678   28679   28679       0   28681
   28682   28683   28682   28683   28683       0   28685   28686   28687   28686
   28687   28687       0   28689   28690   28691   28690   28691   28691       0
   28693   28694   28695   28694   28695   28695       0   28697   28698   28699
   28698   28699   28699       0   28701   28702   28703   28702   28703   28703
       0   28705   28706   28707   28706   28707   28707       0   28709   28710
   28711   28710   28711   28711       0   28713   28714   28715   28714   28715
   28715       0   28717   28718   28719   28718   28719   28719       0   28721
   28722   28723   28722   28723   28723       0   28725   28726   28727   28726
   28727   28727       0   28729   28730   28731   28730   28731   28731       0
   28733   28734   28735   28734   28735   28735       0   28737   28738   28739
   28738   28739   28739       0   28741   28742   28743   28742   28743   28743
       0   28745   28746   28747   28746   28747   28747       0   28749   28750
   28751   28750   28751   28751       0   28753   28754   28755   28754   28755
   28755       0   28757   28758   28759   28758   28759   28759       0   28761
   28762   28763   28762   28763   28763       0   28765   28766   28767   28766
   28767   28767       0   28769   28770   28771   28770   28771   28771       0
   28773   28774   28775   28774   28775   28775       0   28777   28778   28779
   28778   28779   28779       0   28781   28782   28783   28782   28783   28783
       0   28785   28786   28787   28786   28787   28787       0   28789   28790
   28791   28790   28791   28791       0   28793   28794   28795   28794   28795
   28795       0   28797   28798   28799   28798   28799   28799       0   28801
   28802   28803   28802   28803   28803       0   28805   28806   28807   28806
   28807   28807       0   28809   28810   28811   28810   28811   28811       0
   28813   28814   28815   28814   28815   28815       0   28817   28818   28819
   28818   28819   28819       0   28821   28822   28823   28822   28823   28823
       0   28825   28826   28827   28826   28827   28827       0   28829   28830
   28831   28830   28831   28831       0   28833   28834   28835   28834   28835
   28835       0   28837   28838   28839   28838   28839   28839       0   28841
   28842   28843   28842   28843   28843       0   28845   28846   28847   28846
   28847   28847       0   28849   28850   28851   28850   28851   28851       0
   28853   28854   28855   28854   28855   28855       0   28857   28858   28859
   28858   28859   28859       0   28861   28862   28863   28862   28863   28863
       0   28865   28866   28867   28866   28867   28867       0   28869   28870
   28871   28870   28871   28871       0   28873   28874   28875   28874   28875
   28875       0   28877   28878   28879   28878   28879   28879       0   28881
   28882   28883   28882   28883   28883       0   28885   28886   28887   28886
   28887   28887       0   28889   28890   28891   28890   28891   28891       0
   28893   28894   28895   28894   28895   28895       0   28897   28898   28899
   28898   28899   28899       0   28901   28902   28903   28902   28903   28903
       0   28905   28906   28907   28906   28907   28907       0   28909   28910
   28911   28910   28911   28911       0   28913   28914   28915   28914   28915
   28915       0   28917   28918   28919   28918   28919   28919       0   28921
   28922   28923   28922   28923   28923       0   28925   28926   28927   28926
   28927   28927       0   28929   28930   28931   28930   28931   28931       0
   28933   28934   28935   28934   28935   28935       0   28937   28938   28939
   28938   28939   28939       0   28941   28942   28943   28942   28943   28943
       0   28945   28946   28947   28946   28947   28947       0   28949   28950
   28951   28950   28951   28951       0   28953   28954   28955   28954   28955
   28955       0   28957   28958   28959   28958   28959   28959       0   28961
   28962   28963   28962   28963   28963       0   28965   28966   28967   28966
   28967   28967       0   28969   28970   28971   28970   28971   28971       0
   28973   28974   28975   28974   28975   28975       0   28977   28978   28979
   28978   28979   28979       0   28981   28982   28983   28982   28983   28983
       0   28985   28986   28987   28986   28987   28987       0   28989   28990
   28991   28990   28991   28991       0   28993   28994   28995   28994   28995
   28995       0   28997   28998   28999   28998   28999   28999       0   29001
   29002   29003   29002   29003   29003       0   29005   29006   29007   29006
   29007   29007       0   29009   29010   29011   29010   29011   29011       0
   29013   29014   29015   29014   29015   29015       0   29017   29018   29019
   29018   29019   29019       0   29021   29022   29023   29022   29023   29023
       0   29025   29026   29027   29026   29027   29027       0   29029   29030
   29031   29030   29031   29031       0   29033   29034   29035   29034   29035
   29035       0   29037   29038   29039   29038   29039   29039       0   29041
   29042   29043   29042   29043   29043       0   29045   29046   29047   29046
   29047   29047       0   29049   29050   29051   29050   29051   29051       0
   29053   29054   29055   29054   29055   29055       0   29057   29058   29059
   29058   29059   29059       0   29061   29062   29063   29062   29063   29063
       0   29065   29066   29067   29066   29067   29067       0   29069   29070
   29071   29070   29071   29071       0   29073   29074   29075   29074   29075
   29075       0   29077   29078   29079   29078   29079   29079       0   29081
   29082   29083   29082   29083   29083       0   29085   29086   29087   29086
   29087   29087       0   29089   29090   29091   29090   29091   29091       0
   29093   29094   29095   29094   29095   29095       0   29097   29098   29099
   29098   29099   29099       0   29101   29102   29103   29102   29103   29103
       0   29105   29106   29107   29106   29107   29107       0   29109   29110
   29111   29110   29111   29111       0   29113   29114   29115   29114   29115
   29115       0   29117   29118   29119   29118   29119   29119       0   29121
   29122   29123   29122   29123   29123       0   29125   29126   29127   29126
   29127   29127       0   29129   29130   29131   29130   29131   29131       0
   29133   29134   29135   29134   29135   29135       0   29137   29138   29139
   29138   29139   29139       0   29141   29142   29143   29142   29143   29143
       0   29145   29146   29147   29146   29147   29147       0   29149   29150
   29151   29150   29151   29151       0   29153   29154   29155   29154   29155
   29155       0   29157   29158   29159   29158   29159   29159       0   29161
   29162   29163   29162   29163   29163       0   29165   29166   29167   29166
   29167   29167       0   29169   29170   29171   29170   29171   29171       0
   29173   29174   29175   29174   29175   29175       0   29177   29178   29179
   29178   29179   29179       0   29181   29182   29183   29182   29183   29183
       0   29185   29186   29187   29186   29187   29187       0   29189   29190
   29191   29190   29191   29191       0   29193   29194   29195   29194   29195
   29195       0   29197   29198   29199   29198   29199   29199       0   29201
   29202   29203   29202   29203   29203       0   29205   29206   29207   29206
   29207   29207       0   29209   29210   29211   29210   29211   29211       0
   29213   29214   29215   29214   29215   29215       0   29217   29218   29219
   29218   29219   29219       0   29221   29222   29223   29222   29223   29223
       0   29225   29226   29227   29226   29227   29227       0   29229   29230
   29231   29230   29231   29231       0   29233   29234   29235   29234   29235
   29235       0   29237   29238   29239   29238   29239   29239       0   29241
   29242   29243   29242   29243   29243       0   29245   29246   29247   29246
   29247   29247       0   29249   29250   29251   29250   29251   29251       0
   29253   29254   29255   29254   29255   29255       0   29257   29258   29259
   29258   29259   29259       0   29261   29262   29263   29262   29263   29263
       0   29265   29266   29267   29266   29267   29267       0   29269   29270
   29271   29270   29271   29271       0   29273   29274   29275   29274   29275
   29275       0   29277   29278   29279   29278   29279   29279       0   29281
   29282   29283   29282   29283   29283       0   29285   29286   29287   29286
   29287   29287       0   29289   29290   29291   29290   29291   29291       0
   29293   29294   29295   29294   29295   29295       0   29297   29298   29299
   29298   29299   29299       0   29301   29302   29303   29302   29303   29303
       0   29305   29306   29307   29306   29307   29307       0   29309   29310
   29311   29310   29311   29311       0   29313   29314   29315   29314   29315
   29315       0   29317   29318   29319   29318   29319   29319       0   29321
   29322   29323   29322   29323   29323       0   29325   29326   29327   29326
   29327   29327       0   29329   29330   29331   29330   29331   29331       0
   29333   29334   29335   29334   29335   29335       0   29337   29338   29339
   29338   29339   29339       0   29341   29342   29343   29342   29343   29343
       0   29345   29346   29347   29346   29347   29347       0   29349   29350
   29351   29350   29351   29351       0   29353   29354   29355   29354   29355
   29355       0   29357   29358   29359   29358   29359   29359       0   29361
   29362   29363   29362   29363   29363       0   29365   29366   29367   29366
   29367   29367       0   29369   29370   29371   29370   29371   29371       0
   29373   29374   29375   29374   29375   29375       0   29377   29378   29379
   29378   29379   29379       0   29381   29382   29383   29382   29383   29383
       0   29385   29386   29387   29386   29387   29387       0   29389   29390
   29391   29390   29391   29391       0   29393   29394   29395   29394   29395
   29395       0   29397   29398   29399   29398   29399   29399       0   29401
   29402   29403   29402   29403   29403       0   29405   29406   29407   29406
   29407   29407       0   29409   29410   29411   29410   29411   29411       0
   29413   29414   29415   29414   29415   29415       0   29417   29418   29419
   29418   29419   29419       0   29421   29422   29423   29422   29423   29423
       0   29425   29426   29427   29426   29427   29427       0   29429   29430
   29431   29430   29431   29431       0   29433   29434   29435   29434   29435
   29435       0   29437   29438   29439   29438   29439   29439       0   29441
   29442   29443   29442   29443   29443       0   29445   29446   29447   29446
   29447   29447       0   29449   29450   29451   29450   29451   29451       0
   29453   29454   29455   29454   29455   29455       0   29457   29458   29459
   29458   29459   29459       0   29461   29462   29463   29462   29463   29463
       0   29465   29466   29467   29466   29467   29467       0   29469   29470
   29471   29470   29471   29471       0   29473   29474   29475   29474   29475
   29475       0   29477   29478   29479   29478   29479   29479       0   29481
   29482   29483   29482   29483   29483       0   29485   29486   29487   29486
   29487   29487       0   29489   29490   29491   29490   29491   29491       0
   29493   29494   29495   29494   29495   29495       0   29497   29498   29499
   29498   29499   29499       0   29501   29502   29503   29502   29503   29503
       0   29505   29506   29507   29506   29507   29507       0   29509   29510
   29511   29510   29511   29511       0   29513   29514   29515   29514   29515
   29515       0   29517   29518   29519   29518   29519   29519       0   29521
   29522   29523   29522   29523   29523       0   29525   29526   29527   29526
   29527   29527       0   29529   29530   29531   29530   29531   29531       0
   29533   29534   29535   29534   29535   29535       0   29537   29538   29539
   29538   29539   29539       0   29541   29542   29543   29542   29543   29543
       0   29545   29546   29547   29546   29547   29547       0   29549   29550
   29551   29550   29551   29551       0   29553   29554   29555   29554   29555
   29555       0   29557   29558   29559   29558   29559   29559       0   29561
   29562   29563   29562   29563   29563       0   29565   29566   29567   29566
   29567   29567       0   29569   29570   29571   29570   29571   29571       0
   29573   29574   29575   29574   29575   29575       0   29577   29578   29579
   29578   29579   29579       0   29581   29582   29583   29582   29583   29583
       0   29585   29586   29587   29586   29587   29587       0   29589   29590
   29591   29590   29591   29591       0   29593   29594   29595   29594   29595
   29595       0   29597   29598   29599   29598   29599   29599       0   29601
   29602   29603   29602   29603   29603       0   29605   29606   29607   29606
   29607   29607       0   29609   29610   29611   29610   29611   29611       0
   29613   29614   29615   29614   29615   29615       0   29617   29618   29619
   29618   29619   29619       0   29621   29622   29623   29622   29623   29623
       0   29625   29626   29627   29626   29627   29627       0   29629   29630
   29631   29630   29631   29631       0   29633   29634   29635   29634   29635
   29635       0   29637   29638   29639   29638   29639   29639       0   29641
   29642   29643   29642   29643   29643       0   29645   29646   29647   29646
   29647   29647       0   29649   29650   29651   29650   29651   29651       0
   29653   29654   29655   29654   29655   29655       0   29657   29658   29659
   29658   29659   29659       0   29661   29662   29663   29662   29663   29663
       0   29665   29666   29667   29666   29667   29667       0   29669   29670
   29671   29670   29671   29671       0   29673   29674   29675   29674   29675
   29675       0   29677   29678   29679   29678   29679   29679       0   29681
   29682   29683   29682   29683   29683       0   29685   29686   29687   29686
   29687   29687       0   29689   29690   29691   29690   29691   29691       0
   29693   29694   29695   29694   29695   29695       0   29697   29698   29699
   29698   29699   29699       0   29701   29702   29703   29702   29703   29703
       0   29705   29706   29707   29706   29707   29707       0   29709   29710
   29711   29710   29711   29711       0   29713   29714   29715   29714   29715
   29715       0   29717   29718   29719   29718   29719   29719       0   29721
   29722   29723   29722   29723   29723       0   29725   29726   29727   29726
   29727   29727       0   29729   29730   29731   29730   29731   29731       0
   29733   29734   29735   29734   29735   29735       0   29737   29738   29739
   29738   29739   29739       0   29741   29742   29743   29742   29743   29743
       0   29745   29746   29747   29746   29747   29747       0   29749   29750
   29751   29750   29751   29751       0   29753   29754   29755   29754   29755
   29755       0   29757   29758   29759   29758   29759   29759       0   29761
   29762   29763   29762   29763   29763       0   29765   29766   29767   29766
   29767   29767       0   29769   29770   29771   29770   29771   29771       0
   29773   29774   29775   29774   29775   29775       0   29777   29778   29779
   29778   29779   29779       0   29781   29782   29783   29782   29783   29783
       0   29785   29786   29787   29786   29787   29787       0   29789   29790
   29791   29790   29791   29791       0   29793   29794   29795   29794   29795
   29795       0   29797   29798   29799   29798   29799   29799       0   29801
   29802   29803   29802   29803   29803       0   29805   29806   29807   29806
   29807   29807       0   29809   29810   29811   29810   29811   29811       0
   29813   29814   29815   29814   29815   29815       0   29817   29818   29819
   29818   29819   29819       0   29821   29822   29823   29822   29823   29823
       0   29825   29826   29827   29826   29827   29827       0   29829   29830
   29831   29830   29831   29831       0   29833   29834   29835   29834   29835
   29835       0   29837   29838   29839   29838   29839   29839       0   29841
   29842   29843   29842   29843   29843       0   29845   29846   29847   29846
   29847   29847       0   29849   29850   29851   29850   29851   29851       0
   29853   29854   29855   29854   29855   29855       0   29857   29858   29859
   29858   29859   29859       0   29861   29862   29863   29862   29863   29863
       0   29865   29866   29867   29866   29867   29867       0   29869   29870
   29871   29870   29871   29871       0   29873   29874   29875   29874   29875
   29875       0   29877   29878   29879   29878   29879   29879       0   29881
   29882   29883   29882   29883   29883       0   29885   29886   29887   29886
   29887   29887       0   29889   29890   29891   29890   29891   29891       0
   29893   29894   29895   29894   29895   29895       0   29897   29898   29899
   29898   29899   29899       0   29901   29902   29903   29902   29903   29903
       0   29905   29906   29907   29906   29907   29907       0   29909   29910
   29911   29910   29911   29911       0   29913   29914   29915   29914   29915
   29915       0   29917   29918   29919   29918   29919   29919       0   29921
   29922   29923   29922   29923   29923       0   29925   29926   29927   29926
   29927   29927       0   29929   29930   29931   29930   29931   29931       0
   29933   29934   29935   29934   29935   29935       0   29937   29938   29939
   29938   29939   29939       0   29941   29942   29943   29942   29943   29943
       0   29945   29946   29947   29946   29947   29947       0   29949   29950
   29951   29950   29951   29951       0   29953   29954   29955   29954   29955
   29955       0   29957   29958   29959   29958   29959   29959       0   29961
   29962   29963   29962   29963   29963       0   29965   29966   29967   29966
   29967   29967       0   29969   29970   29971   29970   29971   29971       0
   29973   29974   29975   29974   29975   29975       0   29977   29978   29979
   29978   29979   29979       0   29981   29982   29983   29982   29983   29983
       0   29985   29986   29987   29986   29987   29987       0   29989   29990
   29991   29990   29991   29991       0   29993   29994   29995   29994   29995
   29995       0   29997   29998   29999   29998   29999   29999       0   30001
   30002   30003   30002   30003   30003       0   30005   30006   30007   30006
   30007   30007       0   30009   30010   30011   30010   30011   30011       0
   30013   30014   30015   30014   30015   30015       0   30017   30018   30019
   30018   30019   30019       0   30021   30022   30023   30022   30023   30023
       0   30025   30026   30027   30026   30027   30027       0   30029   30030
   30031   30030   30031   30031       0   30033   30034   30035   30034   30035
   30035       0   30037   30038   30039   30038   30039   30039       0   30041
   30042   30043   30042   30043   30043       0   30045   30046   30047   30046
   30047   30047       0   30049   30050   30051   30050   30051   30051       0
   30053   30054   30055   30054   30055   30055       0   30057   30058   30059
   30058   30059   30059       0   30061   30062   30063   30062   30063   30063
       0   30065   30066   30067   30066   30067   30067       0   30069   30070
   30071   30070   30071   30071       0   30073   30074   30075   30074   30075
   30075       0   30077   30078   30079   30078   30079   30079       0   30081
   30082   30083   30082   30083   30083       0   30085   30086   30087   30086
   30087   30087       0   30089   30090   30091   30090   30091   30091       0
   30093   30094   30095   30094   30095   30095       0   30097   30098   30099
   30098   30099   30099       0   30101   30102   30103   30102   30103   30103
       0   30105   30106   30107   30106   30107   30107       0   30109   30110
   30111   30110   30111   30111       0   30113   30114   30115   30114   30115
   30115       0   30117   30118   30119   30118   30119   30119       0   30121
   30122   30123   30122   30123   30123       0   30125   30126   30127   30126
   30127   30127       0   30129   30130   30131   30130   30131   30131       0
   30133   30134   30135   30134   30135   30135       0   30137   30138   30139
   30138   30139   30139       0   30141   30142   30143   30142   30143   30143
       0   30145   30146   30147   30146   30147   30147       0   30149   30150
   30151   30150   30151   30151       0   30153   30154   30155   30154   30155
   30155       0   30157   30158   30159   30158   30159   30159       0   30161
   30162   30163   30162   30163   30163       0   30165   30166   30167   30166
   30167   30167       0   30169   30170   30171   30170   30171   30171       0
   30173   30174   30175   30174   30175   30175       0   30177   30178   30179
   30178   30179   30179       0   30181   30182   30183   30182   30183   30183
       0   30185   30186   30187   30186   30187   30187       0   30189   30190
   30191   30190   30191   30191       0   30193   30194   30195   30194   30195
   30195       0   30197   30198   30199   30198   30199   30199       0   30201
   30202   30203   30202   30203   30203       0   30205   30206   30207   30206
   30207   30207       0   30209   30210   30211   30210   30211   30211       0
   30213   30214   30215   30214   30215   30215       0   30217   30218   30219
   30218   30219   30219       0   30221   30222   30223   30222   30223   30223
       0   30225   30226   30227   30226   30227   30227       0   30229   30230
   30231   30230   30231   30231       0   30233   30234   30235   30234   30235
   30235       0   30237   30238   30239   30238   30239   30239       0   30241
   30242   30243   30242   30243   30243       0   30245   30246   30247   30246
   30247   30247       0   30249   30250   30251   30250   30251   30251       0
   30253   30254   30255   30254   30255   30255       0   30257   30258   30259
   30258   30259   30259       0   30261   30262   30263   30262   30263   30263
       0   30265   30266   30267   30266   30267   30267       0   30269   30270
   30271   30270   30271   30271       0   30273   30274   30275   30274   30275
   30275       0   30277   30278   30279   30278   30279   30279       0   30281
   30282   30283   30282   30283   30283       0   30285   30286   30287   30286
   30287   30287       0   30289   30290   30291   30290   30291   30291       0
   30293   30294   30295   30294   30295   30295       0   30297   30298   30299
   30298   30299   30299       0   30301   30302   30303   30302   30303   30303
       0   30305   30306   30307   30306   30307   30307       0   30309   30310
   30311   30310   30311   30311       0   30313   30314   30315   30314   30315
   30315       0   30317   30318   30319   30318   30319   30319       0   30321
   30322   30323   30322   30323   30323       0   30325   30326   30327   30326
   30327   30327       0   30329   30330   30331   30330   30331   30331       0
   30333   30334   30335   30334   30335   30335       0   30337   30338   30339
   30338   30339   30339       0   30341   30342   30343   30342   30343   30343
       0   30345   30346   30347   30346   30347   30347       0   30349   30350
   30351   30350   30351   30351       0   30353   30354   30355   30354   30355
   30355       0   30357   30358   30359   30358   30359   30359       0   30361
   30362   30363   30362   30363   30363       0   30365   30366   30367   30366
   30367   30367       0   30369   30370   30371   30370   30371   30371       0
   30373   30374   30375   30374   30375   30375       0   30377   30378   30379
   30378   30379   30379       0   30381   30382   30383   30382   30383   30383
       0   30385   30386   30387   30386   30387   30387       0   30389   30390
   30391   30390   30391   30391       0   30393   30394   30395   30394   30395
   30395       0   30397   30398   30399   30398   30399   30399       0   30401
   30402   30403   30402   30403   30403       0   30405   30406   30407   30406
   30407   30407       0   30409   30410   30411   30410   30411   30411       0
   30413   30414   30415   30414   30415   30415       0   30417   30418   30419
   30418   30419   30419       0   30421   30422   30423   30422   30423   30423
       0   30425   30426   30427   30426   30427   30427       0   30429   30430
   30431   30430   30431   30431       0   30433   30434   30435   30434   30435
   30435       0   30437   30438   30439   30438   30439   30439       0   30441
   30442   30443   30442   30443   30443       0   30445   30446   30447   30446
   30447   30447       0   30449   30450   30451   30450   30451   30451       0
   30453   30454   30455   30454   30455   30455       0   30457   30458   30459
   30458   30459   30459       0   30461   30462   30463   30462   30463   30463
       0   30465   30466   30467   30466   30467   30467       0   30469   30470
   30471   30470   30471   30471       0   30473   30474   30475   30474   30475
   30475       0   30477   30478   30479   30478   30479   30479       0   30481
   30482   30483   30482   30483   30483       0   30485   30486   30487   30486
   30487   30487       0   30489   30490   30491   30490   30491   30491       0
   30493   30494   30495   30494   30495   30495       0   30497   30498   30499
   30498   30499   30499       0   30501   30502   30503   30502   30503   30503
       0   30505   30506   30507   30506   30507   30507       0   30509   30510
   30511   30510   30511   30511       0   30513   30514   30515   30514   30515
   30515       0   30517   30518   30519   30518   30519   30519       0   30521
   30522   30523   30522   30523   30523       0   30525   30526   30527   30526
   30527   30527       0   30529   30530   30531   30530   30531   30531       0
   30533   30534   30535   30534   30535   30535       0   30537   30538   30539
   30538   30539   30539       0   30541   30542   30543   30542   30543   30543
       0   30545   30546   30547   30546   30547   30547       0   30549   30550
   30551   30550   30551   30551       0   30553   30554   30555   30554   30555
   30555       0   30557   30558   30559   30558   30559   30559       0   30561
   30562   30563   30562   30563   30563       0   30565   30566   30567   30566
   30567   30567       0   30569   30570   30571   30570   30571   30571       0
   30573   30574   30575   30574   30575   30575       0   30577   30578   30579
   30578   30579   30579       0   30581   30582   30583   30582   30583   30583
       0   30585   30586   30587   30586   30587   30587       0   30589   30590
   30591   30590   30591   30591       0   30593   30594   30595   30594   30595
   30595       0   30597   30598   30599   30598   30599   30599       0   30601
   30602   30603   30602   30603   30603       0   30605   30606   30607   30606
   30607   30607       0   30609   30610   30611   30610   30611   30611       0
   30613   30614   30615   30614   30615   30615       0   30617   30618   30619
   30618   30619   30619       0   30621   30622   30623   30622   30623   30623
       0   30625   30626   30627   30626   30627   30627       0   30629   30630
   30631   30630   30631   30631       0   30633   30634   30635   30634   30635
   30635       0   30637   30638   30639   30638   30639   30639       0   30641
   30642   30643   30642   30643   30643       0   30645   30646   30647   30646
   30647   30647       0   30649   30650   30651   30650   30651   30651       0
   30653   30654   30655   30654   30655   30655       0   30657   30658   30659
   30658   30659   30659       0   30661   30662   30663   30662   30663   30663
       0   30665   30666   30667   30666   30667   30667       0   30669   30670
   30671   30670   30671   30671       0   30673   30674   30675   30674   30675
   30675       0   30677   30678   30679   30678   30679   30679       0   30681
   30682   30683   30682   30683   30683       0   30685   30686   30687   30686
   30687   30687       0   30689   30690   30691   30690   30691   30691       0
   30693   30694   30695   30694   30695   30695       0   30697   30698   30699
   30698   30699   30699       0   30701   30702   30703   30702   30703   30703
       0   30705   30706   30707   30706   30707   30707       0   30709   30710
   30711   30710   30711   30711       0   30713   30714   30715   30714   30715
   30715       0   30717   30718   30719   30718   30719   30719       0   30721
   30722   30723   30722   30723   30723       0   30725   30726   30727   30726
   30727   30727       0   30729   30730   30731   30730   30731   30731       0
   30733   30734   30735   30734   30735   30735       0   30737   30738   30739
   30738   30739   30739       0   30741   30742   30743   30742   30743   30743
       0   30745   30746   30747   30746   30747   30747       0   30749   30750
   30751   30750   30751   30751       0   30753   30754   30755   30754   30755
   30755       0   30757   30758   30759   30758   30759   30759       0   30761
   30762   30763   30762   30763   30763       0   30765   30766   30767   30766
   30767   30767       0   30769   30770   30771   30770   30771   30771       0
   30773   30774   30775   30774   30775   30775       0   30777   30778   30779
   30778   30779   30779       0   30781   30782   30783   30782   30783   30783
       0   30785   30786   30787   30786   30787   30787       0   30789   30790
   30791   30790   30791   30791       0   30793   30794   30795   30794   30795
   30795       0   30797   30798   30799   30798   30799   30799       0   30801
   30802   30803   30802   30803   30803       0   30805   30806   30807   30806
   30807   30807       0   30809   30810   30811   30810   30811   30811       0
   30813   30814   30815   30814   30815   30815       0   30817   30818   30819
   30818   30819   30819       0   30821   30822   30823   30822   30823   30823
       0   30825   30826   30827   30826   30827   30827       0   30829   30830
   30831   30830   30831   30831       0   30833   30834   30835   30834   30835
   30835       0   30837   30838   30839   30838   30839   30839       0   30841
   30842   30843   30842   30843   30843       0   30845   30846   30847   30846
   30847   30847       0   30849   30850   30851   30850   30851   30851       0
   30853   30854   30855   30854   30855   30855       0   30857   30858   30859
   30858   30859   30859       0   30861   30862   30863   30862   30863   30863
       0   30865   30866   30867   30866   30867   30867       0   30869   30870
   30871   30870   30871   30871       0   30873   30874   30875   30874   30875
   30875       0   30877   30878   30879   30878   30879   30879       0   30881
   30882   30883   30882   30883   30883       0   30885   30886   30887   30886
   30887   30887       0   30889   30890   30891   30890   30891   30891       0
   30893   30894   30895   30894   30895   30895       0   30897   30898   30899
   30898   30899   30899       0   30901   30902   30903   30902   30903   30903
       0   30905   30906   30907   30906   30907   30907       0   30909   30910
   30911   30910   30911   30911       0   30913   30914   30915   30914   30915
   30915       0   30917   30918   30919   30918   30919   30919       0   30921
   30922   30923   30922   30923   30923       0   30925   30926   30927   30926
   30927   30927       0   30929   30930   30931   30930   30931   30931       0
   30933   30934   30935   30934   30935   30935       0   30937   30938   30939
   30938   30939   30939       0   30941   30942   30943   30942   30943   30943
       0   30945   30946   30947   30946   30947   30947       0   30949   30950
   30951   30950   30951   30951       0   30953   30954   30955   30954   30955
   30955       0   30957   30958   30959   30958   30959   30959       0   30961
   30962   30963   30962   30963   30963       0   30965   30966   30967   30966
   30967   30967       0   30969   30970   30971   30970   30971   30971       0
   30973   30974   30975   30974   30975   30975       0   30977   30978   30979
   30978   30979   30979       0   30981   30982   30983   30982   30983   30983
       0   30985   30986   30987   30986   30987   30987       0   30989   30990
   30991   30990   30991   30991       0   30993   30994   30995   30994   30995
   30995       0   30997   30998   30999   30998   30999   30999       0   31001
   31002   31003   31002   31003   31003       0   31005   31006   31007   31006
   31007   31007       0   31009   31010   31011   31010   31011   31011       0
   31013   31014   31015   31014   31015   31015       0   31017   31018   31019
   31018   31019   31019       0   31021   31022   31023   31022   31023   31023
       0   31025   31026   31027   31026   31027   31027       0   31029   31030
   31031   31030   31031   31031       0   31033   31034   31035   31034   31035
   31035       0   31037   31038   31039   31038   31039   31039       0   31041
   31042   31043   31042   31043   31043       0   31045   31046   31047   31046
   31047   31047       0   31049   31050   31051   31050   31051   31051       0
   31053   31054   31055   31054   31055   31055       0   31057   31058   31059
   31058   31059   31059       0   31061   31062   31063   31062   31063   31063
       0   31065   31066   31067   31066   31067   31067       0   31069   31070
   31071   31070   31071   31071       0   31073   31074   31075   31074   31075
   31075       0   31077   31078   31079   31078   31079   31079       0   31081
   31082   31083   31082   31083   31083       0   31085   31086   31087   31086
   31087   31087       0   31089   31090   31091   31090   31091   31091       0
   31093   31094   31095   31094   31095   31095       0   31097   31098   31099
   31098   31099   31099       0   31101   31102   31103   31102   31103   31103
       0   31105   31106   31107   31106   31107   31107       0   31109   31110
   31111   31110   31111   31111       0   31113   31114   31115   31114   31115
   31115       0   31117   31118   31119   31118   31119   31119       0   31121
   31122   31123   31122   31123   31123       0   31125   31126   31127   31126
   31127   31127       0   31129   31130   31131   31130   31131   31131       0
   31133   31134   31135   31134   31135   31135       0   31137   31138   31139
   31138   31139   31139       0   31141   31142   31143   31142   31143   31143
       0   31145   31146   31147   31146   31147   31147       0   31149   31150
   31151   31150   31151   31151       0   31153   31154   31155   31154   31155
   31155       0   31157   31158   31159   31158   31159   31159       0   31161
   31162   31163   31162   31163   31163       0   31165   31166   31167   31166
   31167   31167       0   31169   31170   31171   31170   31171   31171       0
   31173   31174   31175   31174   31175   31175       0   31177   31178   31179
   31178   31179   31179       0   31181   31182   31183   31182   31183   31183
       0   31185   31186   31187   31186   31187   31187       0   31189   31190
   31191   31190   31191   31191       0   31193   31194   31195   31194   31195
   31195       0   31197   31198   31199   31198   31199   31199       0   31201
   31202   31203   31202   31203   31203       0   31205   31206   31207   31206
   31207   31207       0   31209   31210   31211   31210   31211   31211       0
   31213   31214   31215   31214   31215   31215       0   31217   31218   31219
   31218   31219   31219       0   31221   31222   31223   31222   31223   31223
       0   31225   31226   31227   31226   31227   31227       0   31229   31230
   31231   31230   31231   31231       0   31233   31234   31235   31234   31235
   31235       0   31237   31238   31239   31238   31239   31239       0   31241
   31242   31243   31242   31243   31243       0   31245   31246   31247   31246
   31247   31247       0   31249   31250   31251   31250   31251   31251       0
   31253   31254   31255   31254   31255   31255       0   31257   31258   31259
   31258   31259   31259       0   31261   31262   31263   31262   31263   31263
       0   31265   31266   31267   31266   31267   31267       0   31269   31270
   31271   31270   31271   31271       0   31273   31274   31275   31274   31275
   31275       0   31277   31278   31279   31278   31279   31279       0   31281
   31282   31283   31282   31283   31283       0   31285   31286   31287   31286
   31287   31287       0   31289   31290   31291   31290   31291   31291       0
   31293   31294   31295   31294   31295   31295       0   31297   31298   31299
   31298   31299   31299       0   31301   31302   31303   31302   31303   31303
       0   31305   31306   31307   31306   31307   31307       0   31309   31310
   31311   31310   31311   31311       0   31313   31314   31315   31314   31315
   31315       0   31317   31318   31319   31318   31319   31319       0   31321
   31322   31323   31322   31323   31323       0   31325   31326   31327   31326
   31327   31327       0   31329   31330   31331   31330   31331   31331       0
   31333   31334   31335   31334   31335   31335       0   31337   31338   31339
   31338   31339   31339       0   31341   31342   31343   31342   31343   31343
       0   31345   31346   31347   31346   31347   31347       0   31349   31350
   31351   31350   31351   31351       0   31353   31354   31355   31354   31355
   31355       0   31357   31358   31359   31358   31359   31359       0   31361
   31362   31363   31362   31363   31363       0   31365   31366   31367   31366
   31367   31367       0   31369   31370   31371   31370   31371   31371       0
   31373   31374   31375   31374   31375   31375       0   31377   31378   31379
   31378   31379   31379       0   31381   31382   31383   31382   31383   31383
       0   31385   31386   31387   31386   31387   31387       0   31389   31390
   31391   31390   31391   31391       0   31393   31394   31395   31394   31395
   31395       0   31397   31398   31399   31398   31399   31399       0   31401
   31402   31403   31402   31403   31403       0   31405   31406   31407   31406
   31407   31407       0   31409   31410   31411   31410   31411   31411       0
   31413   31414   31415   31414   31415   31415       0   31417   31418   31419
   31418   31419   31419       0   31421   31422   31423   31422   31423   31423
       0   31425   31426   31427   31426   31427   31427       0   31429   31430
   31431   31430   31431   31431       0   31433   31434   31435   31434   31435
   31435       0   31437   31438   31439   31438   31439   31439       0   31441
   31442   31443   31442   31443   31443       0   31445   31446   31447   31446
   31447   31447       0   31449   31450   31451   31450   31451   31451       0
   31453   31454   31455   31454   31455   31455       0   31457   31458   31459
   31458   31459   31459       0   31461   31462   31463   31462   31463   31463
       0   31465   31466   31467   31466   31467   31467       0   31469   31470
   31471   31470   31471   31471       0   31473   31474   31475   31474   31475
   31475       0   31477   31478   31479   31478   31479   31479       0   31481
   31482   31483   31482   31483   31483       0   31485   31486   31487   31486
   31487   31487       0   31489   31490   31491   31490   31491   31491       0
   31493   31494   31495   31494   31495   31495       0   31497   31498   31499
   31498   31499   31499       0   31501   31502   31503   31502   31503   31503
       0   31505   31506   31507   31506   31507   31507       0   31509   31510
   31511   31510   31511   31511       0   31513   31514   31515   31514   31515
   31515       0   31517   31518   31519   31518   31519   31519       0   31521
   31522   31523   31522   31523   31523       0   31525   31526   31527   31526
   31527   31527       0   31529   31530   31531   31530   31531   31531       0
   31533   31534   31535   31534   31535   31535       0   31537   31538   31539
   31538   31539   31539       0   31541   31542   31543   31542   31543   31543
       0   31545   31546   31547   31546   31547   31547       0   31549   31550
   31551   31550   31551   31551       0   31553   31554   31555   31554   31555
   31555       0   31557   31558   31559   31558   31559   31559       0   31561
   31562   31563   31562   31563   31563       0   31565   31566   31567   31566
   31567   31567       0   31569   31570   31571   31570   31571   31571       0
   31573   31574   31575   31574   31575   31575       0   31577   31578   31579
   31578   31579   31579       0   31581   31582   31583   31582   31583   31583
       0   31585   31586   31587   31586   31587   31587       0   31589   31590
   31591   31590   31591   31591       0   31593   31594   31595   31594   31595
   31595       0   31597   31598   31599   31598   31599   31599       0   31601
   31602   31603   31602   31603   31603       0   31605   31606   31607   31606
   31607   31607       0   31609   31610   31611   31610   31611   31611       0
   31613   31614   31615   31614   31615   31615       0   31617   31618   31619
   31618   31619   31619       0   31621   31622   31623   31622   31623   31623
       0   31625   31626   31627   31626   31627   31627       0   31629   31630
   31631   31630   31631   31631       0   31633   31634   31635   31634   31635
   31635       0   31637   31638   31639   31638   31639   31639       0   31641
   31642   31643   31642   31643   31643       0   31645   31646   31647   31646
   31647   31647       0   31649   31650   31651   31650   31651   31651       0
   31653   31654   31655   31654   31655   31655       0   31657   31658   31659
   31658   31659   31659       0   31661   31662   31663   31662   31663   31663
       0   31665   31666   31667   31666   31667   31667       0   31669   31670
   31671   31670   31671   31671       0   31673   31674   31675   31674   31675
   31675       0   31677   31678   31679   31678   31679   31679       0   31681
   31682   31683   31682   31683   31683       0   31685   31686   31687   31686
   31687   31687       0   31689   31690   31691   31690   31691   31691       0
   31693   31694   31695   31694   31695   31695       0   31697   31698   31699
   31698   31699   31699       0   31701   31702   31703   31702   31703   31703
       0   31705   31706   31707   31706   31707   31707       0   31709   31710
   31711   31710   31711   31711       0   31713   31714   31715   31714   31715
   31715       0   31717   31718   31719   31718   31719   31719       0   31721
   31722   31723   31722   31723   31723       0   31725   31726   31727   31726
   31727   31727       0   31729   31730   31731   31730   31731   31731       0
   31733   31734   31735   31734   31735   31735       0   31737   31738   31739
   31738   31739   31739       0   31741   31742   31743   31742   31743   31743
       0   31745   31746   31747   31746   31747   31747       0   31749   31750
   31751   31750   31751   31751       0   31753   31754   31755   31754   31755
   31755       0   31757   31758   31759   31758   31759   31759       0   31761
   31762   31763   31762   31763   31763       0   31765   31766   31767   31766
   31767   31767       0   31769   31770   31771   31770   31771   31771       0
   31773   31774   31775   31774   31775   31775       0   31777   31778   31779
   31778   31779   31779       0   31781   31782   31783   31782   31783   31783
       0   31785   31786   31787   31786   31787   31787       0   31789   31790
   31791   31790   31791   31791       0   31793   31794   31795   31794   31795
   31795       0   31797   31798   31799   31798   31799   31799       0   31801
   31802   31803   31802   31803   31803       0   31805   31806   31807   31806
   31807   31807       0   31809   31810   31811   31810   31811   31811       0
   31813   31814   31815   31814   31815   31815       0   31817   31818   31819
   31818   31819   31819       0   31821   31822   31823   31822   31823   31823
       0   31825   31826   31827   31826   31827   31827       0   31829   31830
   31831   31830   31831   31831       0   31833   31834   31835   31834   31835
   31835       0   31837   31838   31839   31838   31839   31839       0   31841
   31842   31843   31842   31843   31843       0   31845   31846   31847   31846
   31847   31847       0   31849   31850   31851   31850   31851   31851       0
   31853   31854   31855   31854   31855   31855       0   31857   31858   31859
   31858   31859   31859       0   31861   31862   31863   31862   31863   31863
       0   31865   31866   31867   31866   31867   31867       0   31869   31870
   31871   31870   31871   31871       0   31873   31874   31875   31874   31875
   31875       0   31877   31878   31879   31878   31879   31879       0   31881
   31882   31883   31882   31883   31883       0   31885   31886   31887   31886
   31887   31887       0   31889   31890   31891   31890   31891   31891       0
   31893   31894   31895   31894   31895   31895       0   31897   31898   31899
   31898   31899   31899       0   31901   31902   31903   31902   31903   31903
       0   31905   31906   31907   31906   31907   31907       0   31909   31910
   31911   31910   31911   31911       0   31913   31914   31915   31914   31915
   31915       0   31917   31918   31919   31918   31919   31919       0   31921
   31922   31923   31922   31923   31923       0   31925   31926   31927   31926
   31927   31927       0   31929   31930   31931   31930   31931   31931       0
   31933   31934   31935   31934   31935   31935       0   31937   31938   31939
   31938   31939   31939       0   31941   31942   31943   31942   31943   31943
       0   31945   31946   31947   31946   31947   31947       0   31949   31950
   31951   31950   31951   31951       0   31953   31954   31955   31954   31955
   31955       0   31957   31958   31959   31958   31959   31959       0   31961
   31962   31963   31962   31963   31963       0   31965   31966   31967   31966
   31967   31967       0   31969   31970   31971   31970   31971   31971       0
   31973   31974   31975   31974   31975   31975       0   31977   31978   31979
   31978   31979   31979       0   31981   31982   31983   31982   31983   31983
       0   31985   31986   31987   31986   31987   31987       0   31989   31990
   31991   31990   31991   31991       0   31993   31994   31995   31994   31995
   31995       0   31997   31998   31999   31998   31999   31999       0   32001
   32002   32003   32002   32003   32003       0   32005   32006   32007   32006
   32007   32007       0   32009   32010   32011   32010   32011   32011       0
   32013   32014   32015   32014   32015   32015       0   32017   32018   32019
   32018   32019   32019       0   32021   32022   32023   32022   32023   32023
       0   32025   32026   32027   32026   32027   32027       0   32029   32030
   32031   32030   32031   32031       0   32033   32034   32035   32034   32035
   32035       0   32037   32038   32039   32038   32039   32039       0   32041
   32042   32043   32042   32043   32043       0   32045   32046   32047   32046
   32047   32047       0   32049   32050   32051   32050   32051   32051       0
   32053   32054   32055   32054   32055   32055       0   32057   32058   32059
   32058   32059   32059       0   32061   32062   32063   32062   32063   32063
       0   32065   32066   32067   32066   32067   32067       0   32069   32070
   32071   32070   32071   32071       0   32073   32074   32075   32074   32075
   32075       0   32077   32078   32079   32078   32079   32079       0   32081
   32082   32083   32082   32083   32083       0   32085   32086   32087   32086
   32087   32087       0   32089   32090   32091   32090   32091   32091       0
   32093   32094   32095   32094   32095   32095       0   32097   32098   32099
   32098   32099   32099       0   32101   32102   32103   32102   32103   32103
       0   32105   32106   32107   32106   32107   32107       0   32109   32110
   32111   32110   32111   32111       0   32113   32114   32115   32114   32115
   32115       0   32117   32118   32119   32118   32119   32119       0   32121
   32122   32123   32122   32123   32123       0   32125   32126   32127   32126
   32127   32127       0   32129   32130   32131   32130   32131   32131       0
   32133   32134   32135   32134   32135   32135       0   32137   32138   32139
   32138   32139   32139       0   32141   32142   32143   32142   32143   32143
       0   32145   32146   32147   32146   32147   32147       0   32149   32150
   32151   32150   32151   32151       0   32153   32154   32155   32154   32155
   32155       0   32157   32158   32159   32158   32159   32159       0   32161
   32162   32163   32162   32163   32163       0   32165   32166   32167   32166
   32167   32167       0   32169   32170   32171   32170   32171   32171       0
   32173   32174   32175   32174   32175   32175       0   32177   32178   32179
   32178   32179   32179       0   32181   32182   32183   32182   32183   32183
       0   32185   32186   32187   32186   32187   32187       0   32189   32190
   32191   32190   32191   32191       0   32193   32194   32195   32194   32195
   32195       0   32197   32198   32199   32198   32199   32199       0   32201
   32202   32203   32202   32203   32203       0   32205   32206   32207   32206
   32207   32207       0   32209   32210   32211   32210   32211   32211       0
   32213   32214   32215   32214   32215   32215       0   32217   32218   32219
   32218   32219   32219       0   32221   32222   32223   32222   32223   32223
       0   32225   32226   32227   32226   32227   32227       0   32229   32230
   32231   32230   32231   32231       0   32233   32234   32235   32234   32235
   32235       0   32237   32238   32239   32238   32239   32239       0   32241
   32242   32243   32242   32243   32243       0   32245   32246   32247   32246
   32247   32247       0   32249   32250   32251   32250   32251   32251       0
   32253   32254   32255   32254   32255   32255       0   32257   32258   32259
   32258   32259   32259       0   32261   32262   32263   32262   32263   32263
       0   32265   32266   32267   32266   32267   32267       0   32269   32270
   32271   32270   32271   32271       0   32273   32274   32275   32274   32275
   32275       0   32277   32278   32279   32278   32279   32279       0   32281
   32282   32283   32282   32283   32283       0   32285   32286   32287   32286
   32287   32287       0   32289   32290   32291   32290   32291   32291       0
   32293   32294   32295   32294   32295   32295       0   32297   32298   32299
   32298   32299   32299       0   32301   32302   32303   32302   32303   32303
       0   32305   32306   32307   32306   32307   32307       0   32309   32310
   32311   32310   32311   32311       0   32313   32314   32315   32314   32315
   32315       0   32317   32318   32319   32318   32319   32319       0   32321
   32322   32323   32322   32323   32323       0   32325   32326   32327   32326
   32327   32327       0   32329   32330   32331   32330   32331   32331       0
   32333   32334   32335   32334   32335   32335       0   32337   32338   32339
   32338   32339   32339       0   32341   32342   32343   32342   32343   32343
       0   32345   32346   32347   32346   32347   32347       0   32349   32350
   32351   32350   32351   32351       0   32353   32354   32355   32354   32355
   32355       0   32357   32358   32359   32358   32359   32359       0   32361
   32362   32363   32362   32363   32363       0   32365   32366   32367   32366
   32367   32367       0   32369   32370   32371   32370   32371   32371       0
   32373   32374   32375   32374   32375   32375       0   32377   32378   32379
   32378   32379   32379       0   32381   32382   32383   32382   32383   32383
       0   32385   32386   32387   32386   32387   32387       0   32389   32390
   32391   32390   32391   32391       0   32393   32394   32395   32394   32395
   32395       0   32397   32398   32399   32398   32399   32399       0   32401
   32402   32403   32402   32403   32403       0   32405   32406   32407   32406
   32407   32407       0   32409   32410   32411   32410   32411   32411       0
   32413   32414   32415   32414   32415   32415       0   32417   32418   32419
   32418   32419   32419       0   32421   32422   32423   32422   32423   32423
       0   32425   32426   32427   32426   32427   32427       0   32429   32430
   32431   32430   32431   32431       0   32433   32434   32435   32434   32435
   32435       0   32437   32438   32439   32438   32439   32439       0   32441
   32442   32443   32442   32443   32443       0   32445   32446   32447   32446
   32447   32447       0   32449   32450   32451   32450   32451   32451       0
   32453   32454   32455   32454   32455   32455       0   32457   32458   32459
   32458   32459   32459       0   32461   32462   32463   32462   32463   32463
       0   32465   32466   32467   32466   32467   32467       0   32469   32470
   32471   32470   32471   32471       0   32473   32474   32475   32474   32475
   32475       0   32477   32478   32479   32478   32479   32479       0   32481
   32482   32483   32482   32483   32483       0   32485   32486   32487   32486
   32487   32487       0   32489   32490   32491   32490   32491   32491       0
   32493   32494   32495   32494   32495   32495       0   32497   32498   32499
   32498   32499   32499       0   32501   32502   32503   32502   32503   32503
       0   32505   32506   32507   32506   32507   32507       0   32509   32510
   32511   32510   32511   32511       0   32513   32514   32515   32514   32515
   32515       0   32517   32518   32519   32518   32519   32519       0   32521
   32522   32523   32522   32523   32523       0   32525   32526   32527   32526
   32527   32527       0   32529   32530   32531   32530   32531   32531       0
   32533   32534   32535   32534   32535   32535       0   32537   32538   32539
   32538   32539   32539       0   32541   32542   32543   32542   32543   32543
       0   32545   32546   32547   32546   32547   32547       0   32549   32550
   32551   32550   32551   32551       0   32553   32554   32555   32554   32555
   32555       0   32557   32558   32559   32558   32559   32559       0   32561
   32562   32563   32562   32563   32563       0   32565   32566   32567   32566
   32567   32567       0   32569   32570   32571   32570   32571   32571       0
   32573   32574   32575   32574   32575   32575       0   32577   32578   32579
   32578   32579   32579       0   32581   32582   32583   32582   32583   32583
       0   32585   32586   32587   32586   32587   32587       0   32589   32590
   32591   32590   32591   32591       0   32593   32594   32595   32594   32595
   32595       0   32597   32598   32599   32598   32599   32599       0   32601
   32602   32603   32602   32603   32603       0   32605   32606   32607   32606
   32607   32607       0   32609   32610   32611   32610   32611   32611       0
   32613   32614   32615   32614   32615   32615       0   32617   32618   32619
   32618   32619   32619       0   32621   32622   32623   32622   32623   32623
       0   32625   32626   32627   32626   32627   32627       0   32629   32630
   32631   32630   32631   32631       0   32633   32634   32635   32634   32635
   32635       0   32637   32638   32639   32638   32639   32639       0   32641
   32642   32643   32642   32643   32643       0   32645   32646   32647   32646
   32647   32647       0   32649   32650   32651   32650   32651   32651       0
   32653   32654   32655   32654   32655   32655       0   32657   32658   32659
   32658   32659   32659       0   32661   32662   32663   32662   32663   32663
       0   32665   32666   32667   32666   32667   32667       0   32669   32670
   32671   32670   32671   32671       0   32673   32674   32675   32674   32675
   32675       0   32677   32678   32679   32678   32679   32679       0   32681
   32682   32683   32682   32683   32683       0   32685   32686   32687   32686
   32687   32687       0   32689   32690   32691   32690   32691   32691       0
   32693   32694   32695   32694   32695   32695       0   32697   32698   32699
   32698   32699   32699       0   32701   32702   32703   32702   32703   32703
       0   32705   32706   32707   32706   32707   32707       0   32709   32710
   32711   32710   32711   32711       0   32713   32714   32715   32714   32715
   32715       0   32717   32718   32719   32718   32719   32719       0   32721
   32722   32723   32722   32723   32723       0   32725   32726   32727   32726
   32727   32727       0   32729   32730   32731   32730   32731   32731       0
   32733   32734   32735   32734   32735   32735       0   32737   32738   32739
   32738   32739   32739       0   32741   32742   32743   32742   32743   32743
       0   32745   32746   32747   32746   32747   32747       0   32749   32750
   32751   32750   32751   32751       0   32753   32754   32755   32754   32755
   32755       0   32757   32758   32759   32758   32759   32759       0   32761
   32762   32763   32762   32763   32763       0   32765   32766   32767   32766
   32767   32767       0   32769   32770   32771   32770   32771   32771       0
   32773   32774   32775   32774   32775   32775       0   32777   32778   32779
   32778   32779   32779       0   32781   32782   32783   32782   32783   32783
       0   32785   32786   32787   32786   32787   32787       0   32789   32790
   32791   32790   32791   32791       0   32793   32794   32795   32794   32795
   32795       0   32797   32798   32799   32798   32799   32799       0   32801
   32802   32803   32802   32803   32803       0   32805   32806   32807   32806
   32807   32807       0   32809   32810   32811   32810   32811   32811       0
   32813   32814   32815   32814   32815   32815       0   32817   32818   32819
   32818   32819   32819       0   32821   32822   32823   32822   32823   32823
       0   32825   32826   32827   32826   32827   32827       0   32829   32830
   32831   32830   32831   32831       0   32833   32834   32835   32834   32835
   32835       0   32837   32838   32839   32838   32839   32839       0   32841
   32842   32843   32842   32843   32843       0   32845   32846   32847   32846
   32847   32847       0   32849   32850   32851   32850   32851   32851       0
   32853   32854   32855   32854   32855   32855       0   32857   32858   32859
   32858   32859   32859       0   32861   32862   32863   32862   32863   32863
       0   32865   32866   32867   32866   32867   32867       0   32869   32870
   32871   32870   32871   32871       0   32873   32874   32875   32874   32875
   32875       0   32877   32878   32879   32878   32879   32879       0   32881
   32882   32883   32882   32883   32883       0   32885   32886   32887   32886
   32887   32887       0   32889   32890   32891   32890   32891   32891       0
   32893   32894   32895   32894   32895   32895       0   32897   32898   32899
   32898   32899   32899       0   32901   32902   32903   32902   32903   32903
       0   32905   32906   32907   32906   32907   32907       0   32909   32910
   32911   32910   32911   32911       0   32913   32914   32915   32914   32915
   32915       0   32917   32918   32919   32918   32919   32919       0   32921
   32922   32923   32922   32923   32923       0   32925   32926   32927   32926
   32927   32927       0   32929   32930   32931   32930   32931   32931       0
   32933   32934   32935   32934   32935   32935       0   32937   32938   32939
   32938   32939   32939       0   32941   32942   32943   32942   32943   32943
       0   32945   32946   32947   32946   32947   32947       0   32949   32950
   32951   32950   32951   32951       0   32953   32954   32955   32954   32955
   32955       0   32957   32958   32959   32958   32959   32959       0   32961
   32962   32963   32962   32963   32963       0   32965   32966   32967   32966
   32967   32967       0   32969   32970   32971   32970   32971   32971       0
   32973   32974   32975   32974   32975   32975       0   32977   32978   32979
   32978   32979   32979       0   32981   32982   32983   32982   32983   32983
       0   32985   32986   32987   32986   32987   32987       0   32989   32990
   32991   32990   32991   32991       0   32993   32994   32995   32994   32995
   32995       0   32997   32998   32999   32998   32999   32999       0   33001
   33002   33003   33002   33003   33003       0   33005   33006   33007   33006
   33007   33007       0   33009   33010   33011   33010   33011   33011       0
   33013   33014   33015   33014   33015   33015       0   33017   33018   33019
   33018   33019   33019       0   33021   33022   33023   33022   33023   33023
       0   33025   33026   33027   33026   33027   33027       0   33029   33030
   33031   33030   33031   33031       0   33033   33034   33035   33034   33035
   33035       0   33037   33038   33039   33038   33039   33039       0   33041
   33042   33043   33042   33043   33043       0   33045   33046   33047   33046
   33047   33047       0   33049   33050   33051   33050   33051   33051       0
   33053   33054   33055   33054   33055   33055       0   33057   33058   33059
   33058   33059   33059       0   33061   33062   33063   33062   33063   33063
       0   33065   33066   33067   33066   33067   33067       0   33069   33070
   33071   33070   33071   33071       0   33073   33074   33075   33074   33075
   33075       0   33077   33078   33079   33078   33079   33079       0   33081
   33082   33083   33082   33083   33083       0   33085   33086   33087   33086
   33087   33087       0   33089   33090   33091   33090   33091   33091       0
   33093   33094   33095   33094   33095   33095       0   33097   33098   33099
   33098   33099   33099       0   33101   33102   33103   33102   33103   33103
       0   33105   33106   33107   33106   33107   33107       0   33109   33110
   33111   33110   33111   33111       0   33113   33114   33115   33114   33115
   33115       0   33117   33118   33119   33118   33119   33119       0   33121
   33122   33123   33122   33123   33123       0   33125   33126   33127   33126
   33127   33127       0   33129   33130   33131   33130   33131   33131       0
   33133   33134   33135   33134   33135   33135       0   33137   33138   33139
   33138   33139   33139       0   33141   33142   33143   33142   33143   33143
       0   33145   33146   33147   33146   33147   33147       0   33149   33150
   33151   33150   33151   33151       0   33153   33154   33155   33154   33155
   33155       0   33157   33158   33159   33158   33159   33159       0   33161
   33162   33163   33162   33163   33163       0   33165   33166   33167   33166
   33167   33167       0   33169   33170   33171   33170   33171   33171       0
   33173   33174   33175   33174   33175   33175       0   33177   33178   33179
   33178   33179   33179       0   33181   33182   33183   33182   33183   33183
       0   33185   33186   33187   33186   33187   33187       0   33189   33190
   33191   33190   33191   33191       0   33193   33194   33195   33194   33195
   33195       0   33197   33198   33199   33198   33199   33199       0   33201
   33202   33203   33202   33203   33203       0   33205   33206   33207   33206
   33207   33207       0   33209   33210   33211   33210   33211   33211       0
   33213   33214   33215   33214   33215   33215       0   33217   33218   33219
   33218   33219   33219       0   33221   33222   33223   33222   33223   33223
       0   33225   33226   33227   33226   33227   33227       0   33229   33230
   33231   33230   33231   33231       0   33233   33234   33235   33234   33235
   33235       0   33237   33238   33239   33238   33239   33239       0   33241
   33242   33243   33242   33243   33243       0   33245   33246   33247   33246
   33247   33247       0   33249   33250   33251   33250   33251   33251       0
   33253   33254   33255   33254   33255   33255       0   33257   33258   33259
   33258   33259   33259       0   33261   33262   33263   33262   33263   33263
       0   33265   33266   33267   33266   33267   33267       0   33269   33270
   33271   33270   33271   33271       0   33273   33274   33275   33274   33275
   33275       0   33277   33278   33279   33278   33279   33279       0   33281
   33282   33283   33282   33283   33283       0   33285   33286   33287   33286
   33287   33287       0   33289   33290   33291   33290   33291   33291       0
   33293   33294   33295   33294   33295   33295       0   33297   33298   33299
   33298   33299   33299       0   33301   33302   33303   33302   33303   33303
       0   33305   33306   33307   33306   33307   33307       0   33309   33310
   33311   33310   33311   33311       0   33313   33314   33315   33314   33315
   33315       0   33317   33318   33319   33318   33319   33319       0   33321
   33322   33323   33322   33323   33323       0   33325   33326   33327   33326
   33327   33327       0   33329   33330   33331   33330   33331   33331       0
   33333   33334   33335   33334   33335   33335       0   33337   33338   33339
   33338   33339   33339       0   33341   33342   33343   33342   33343   33343
       0   33345   33346   33347   33346   33347   33347       0   33349   33350
   33351   33350   33351   33351       0   33353   33354   33355   33354   33355
   33355       0   33357   33358   33359   33358   33359   33359       0   33361
   33362   33363   33362   33363   33363       0   33365   33366   33367   33366
   33367   33367       0   33369   33370   33371   33370   33371   33371       0
   33373   33374   33375   33374   33375   33375       0   33377   33378   33379
   33378   33379   33379       0   33381   33382   33383   33382   33383   33383
       0   33385   33386   33387   33386   33387   33387       0   33389   33390
   33391   33390   33391   33391       0   33393   33394   33395   33394   33395
   33395       0   33397   33398   33399   33398   33399   33399       0   33401
   33402   33403   33402   33403   33403       0   33405   33406   33407   33406
   33407   33407       0   33409   33410   33411   33410   33411   33411       0
   33413   33414   33415   33414   33415   33415       0   33417   33418   33419
   33418   33419   33419       0   33421   33422   33423   33422   33423   33423
       0   33425   33426   33427   33426   33427   33427       0   33429   33430
   33431   33430   33431   33431       0   33433   33434   33435   33434   33435
   33435       0   33437   33438   33439   33438   33439   33439       0   33441
   33442   33443   33442   33443   33443       0   33445   33446   33447   33446
   33447   33447       0   33449   33450   33451   33450   33451   33451       0
   33453   33454   33455   33454   33455   33455       0   33457   33458   33459
   33458   33459   33459       0   33461   33462   33463   33462   33463   33463
       0   33465   33466   33467   33466   33467   33467       0   33469   33470
   33471   33470   33471   33471       0   33473   33474   33475   33474   33475
   33475       0   33477   33478   33479   33478   33479   33479       0   33481
   33482   33483   33482   33483   33483       0   33485   33486   33487   33486
   33487   33487       0   33489   33490   33491   33490   33491   33491       0
   33493   33494   33495   33494   33495   33495       0   33497   33498   33499
   33498   33499   33499       0   33501   33502   33503   33502   33503   33503
       0   33505   33506   33507   33506   33507   33507       0   33509   33510
   33511   33510   33511   33511       0   33513   33514   33515   33514   33515
   33515       0   33517   33518   33519   33518   33519   33519       0   33521
   33522   33523   33522   33523   33523       0   33525   33526   33527   33526
   33527   33527       0   33529   33530   33531   33530   33531   33531       0
   33533   33534   33535   33534   33535   33535       0   33537   33538   33539
   33538   33539   33539       0   33541   33542   33543   33542   33543   33543
       0   33545   33546   33547   33546   33547   33547       0   33549   33550
   33551   33550   33551   33551       0   33553   33554   33555   33554   33555
   33555       0   33557   33558   33559   33558   33559   33559       0   33561
   33562   33563   33562   33563   33563       0   33565   33566   33567   33566
   33567   33567       0   33569   33570   33571   33570   33571   33571       0
   33573   33574   33575   33574   33575   33575       0   33577   33578   33579
   33578   33579   33579       0   33581   33582   33583   33582   33583   33583
       0   33585   33586   33587   33586   33587   33587       0   33589   33590
   33591   33590   33591   33591       0   33593   33594   33595   33594   33595
   33595       0   33597   33598   33599   33598   33599   33599       0   33601
   33602   33603   33602   33603   33603       0   33605   33606   33607   33606
   33607   33607       0   33609   33610   33611   33610   33611   33611       0
   33613   33614   33615   33614   33615   33615       0   33617   33618   33619
   33618   33619   33619       0   33621   33622   33623   33622   33623   33623
       0   33625   33626   33627   33626   33627   33627       0   33629   33630
   33631   33630   33631   33631       0   33633   33634   33635   33634   33635
   33635       0   33637   33638   33639   33638   33639   33639       0   33641
   33642   33643   33642   33643   33643       0   33645   33646   33647   33646
   33647   33647       0   33649   33650   33651   33650   33651   33651       0
   33653   33654   33655   33654   33655   33655       0   33657   33658   33659
   33658   33659   33659       0   33661   33662   33663   33662   33663   33663
       0   33665   33666   33667   33666   33667   33667       0   33669   33670
   33671   33670   33671   33671       0   33673   33674   33675   33674   33675
   33675       0   33677   33678   33679   33678   33679   33679       0   33681
   33682   33683   33682   33683   33683       0   33685   33686   33687   33686
   33687   33687       0   33689   33690   33691   33690   33691   33691       0
   33693   33694   33695   33694   33695   33695       0   33697   33698   33699
   33698   33699   33699       0   33701   33702   33703   33702   33703   33703
       0   33705   33706   33707   33706   33707   33707       0   33709   33710
   33711   33710   33711   33711       0   33713   33714   33715   33714   33715
   33715       0   33717   33718   33719   33718   33719   33719       0   33721
   33722   33723   33722   33723   33723       0   33725   33726   33727   33726
   33727   33727       0   33729   33730   33731   33730   33731   33731       0
   33733   33734   33735   33734   33735   33735       0   33737   33738   33739
   33738   33739   33739       0   33741   33742   33743   33742   33743   33743
       0   33745   33746   33747   33746   33747   33747       0   33749   33750
   33751   33750   33751   33751       0   33753   33754   33755   33754   33755
   33755       0   33757   33758   33759   33758   33759   33759       0   33761
   33762   33763   33762   33763   33763       0   33765   33766   33767   33766
   33767   33767       0   33769   33770   33771   33770   33771   33771       0
   33773   33774   33775   33774   33775   33775       0   33777   33778   33779
   33778   33779   33779       0   33781   33782   33783   33782   33783   33783
       0   33785   33786   33787   33786   33787   33787       0   33789   33790
   33791   33790   33791   33791       0   33793   33794   33795   33794   33795
   33795       0   33797   33798   33799   33798   33799   33799       0   33801
   33802   33803   33802   33803   33803       0   33805   33806   33807   33806
   33807   33807       0   33809   33810   33811   33810   33811   33811       0
   33813   33814   33815   33814   33815   33815       0   33817   33818   33819
   33818   33819   33819       0   33821   33822   33823   33822   33823   33823
       0   33825   33826   33827   33826   33827   33827       0   33829   33830
   33831   33830   33831   33831       0   33833   33834   33835   33834   33835
   33835       0   33837   33838   33839   33838   33839   33839       0   33841
   33842   33843   33842   33843   33843       0   33845   33846   33847   33846
   33847   33847       0   33849   33850   33851   33850   33851   33851       0
   33853   33854   33855   33854   33855   33855       0   33857   33858   33859
   33858   33859   33859       0   33861   33862   33863   33862   33863   33863
       0   33865   33866   33867   33866   33867   33867       0   33869   33870
   33871   33870   33871   33871       0   33873   33874   33875   33874   33875
   33875       0   33877   33878   33879   33878   33879   33879       0   33881
   33882   33883   33882   33883   33883       0   33885   33886   33887   33886
   33887   33887       0   33889   33890   33891   33890   33891   33891       0
   33893   33894   33895   33894   33895   33895       0   33897   33898   33899
   33898   33899   33899       0   33901   33902   33903   33902   33903   33903
       0   33905   33906   33907   33906   33907   33907       0   33909   33910
   33911   33910   33911   33911       0   33913   33914   33915   33914   33915
   33915       0   33917   33918   33919   33918   33919   33919       0   33921
   33922   33923   33922   33923   33923       0   33925   33926   33927   33926
   33927   33927       0   33929   33930   33931   33930   33931   33931       0
   33933   33934   33935   33934   33935   33935       0   33937   33938   33939
   33938   33939   33939       0   33941   33942   33943   33942   33943   33943
       0   33945   33946   33947   33946   33947   33947       0   33949   33950
   33951   33950   33951   33951       0   33953   33954   33955   33954   33955
   33955       0   33957   33958   33959   33958   33959   33959       0   33961
   33962   33963   33962   33963   33963       0   33965   33966   33967   33966
   33967   33967       0   33969   33970   33971   33970   33971   33971       0
   33973   33974   33975   33974   33975   33975       0   33977   33978   33979
   33978   33979   33979       0   33981   33982   33983   33982   33983   33983
       0   33985   33986   33987   33986   33987   33987       0   33989   33990
   33991   33990   33991   33991       0   33993   33994   33995   33994   33995
   33995       0   33997   33998   33999   33998   33999   33999       0   34001
   34002   34003   34002   34003   34003       0   34005   34006   34007   34006
   34007   34007       0   34009   34010   34011   34010   34011   34011       0
   34013   34014   34015   34014   34015   34015       0   34017   34018   34019
   34018   34019   34019       0   34021   34022   34023   34022   34023   34023
       0   34025   34026   34027   34026   34027   34027       0   34029   34030
   34031   34030   34031   34031       0   34033   34034   34035   34034   34035
   34035       0   34037   34038   34039   34038   34039   34039       0   34041
   34042   34043   34042   34043   34043       0   34045   34046   34047   34046
   34047   34047       0   34049   34050   34051   34050   34051   34051       0
   34053   34054   34055   34054   34055   34055       0   34057   34058   34059
   34058   34059   34059       0   34061   34062   34063   34062   34063   34063
       0   34065   34066   34067   34066   34067   34067       0   34069   34070
   34071   34070   34071   34071       0   34073   34074   34075   34074   34075
   34075       0   34077   34078   34079   34078   34079   34079       0   34081
   34082   34083   34082   34083   34083       0   34085   34086   34087   34086
   34087   34087       0   34089   34090   34091   34090   34091   34091       0
   34093   34094   34095   34094   34095   34095       0   34097   34098   34099
   34098   34099   34099       0   34101   34102   34103   34102   34103   34103
       0   34105   34106   34107   34106   34107   34107       0   34109   34110
   34111   34110   34111   34111       0   34113   34114   34115   34114   34115
   34115       0   34117   34118   34119   34118   34119   34119       0   34121
   34122   34123   34122   34123   34123       0   34125   34126   34127   34126
   34127   34127       0   34129   34130   34131   34130   34131   34131       0
   34133   34134   34135   34134   34135   34135       0   34137   34138   34139
   34138   34139   34139       0   34141   34142   34143   34142   34143   34143
       0   34145   34146   34147   34146   34147   34147       0   34149   34150
   34151   34150   34151   34151       0   34153   34154   34155   34154   34155
   34155       0   34157   34158   34159   34158   34159   34159       0   34161
   34162   34163   34162   34163   34163       0   34165   34166   34167   34166
   34167   34167       0   34169   34170   34171   34170   34171   34171       0
   34173   34174   34175   34174   34175   34175       0   34177   34178   34179
   34178   34179   34179       0   34181   34182   34183   34182   34183   34183
       0   34185   34186   34187   34186   34187   34187       0   34189   34190
   34191   34190   34191   34191       0   34193   34194   34195   34194   34195
   34195       0   34197   34198   34199   34198   34199   34199       0   34201
   34202   34203   34202   34203   34203       0   34205   34206   34207   34206
   34207   34207       0   34209   34210   34211   34210   34211   34211       0
   34213   34214   34215   34214   34215   34215       0   34217   34218   34219
   34218   34219   34219       0   34221   34222   34223   34222   34223   34223
       0   34225   34226   34227   34226   34227   34227       0   34229   34230
   34231   34230   34231   34231       0   34233   34234   34235   34234   34235
   34235       0   34237   34238   34239   34238   34239   34239       0   34241
   34242   34243   34242   34243   34243       0   34245   34246   34247   34246
   34247   34247       0   34249   34250   34251   34250   34251   34251       0
   34253   34254   34255   34254   34255   34255       0   34257   34258   34259
   34258   34259   34259       0   34261   34262   34263   34262   34263   34263
       0   34265   34266   34267   34266   34267   34267       0   34269   34270
   34271   34270   34271   34271       0   34273   34274   34275   34274   34275
   34275       0   34277   34278   34279   34278   34279   34279       0   34281
   34282   34283   34282   34283   34283       0   34285   34286   34287   34286
   34287   34287       0   34289   34290   34291   34290   34291   34291       0
   34293   34294   34295   34294   34295   34295       0   34297   34298   34299
   34298   34299   34299       0   34301   34302   34303   34302   34303   34303
       0   34305   34306   34307   34306   34307   34307       0   34309   34310
   34311   34310   34311   34311       0   34313   34314   34315   34314   34315
   34315       0   34317   34318   34319   34318   34319   34319       0   34321
   34322   34323   34322   34323   34323       0   34325   34326   34327   34326
   34327   34327       0   34329   34330   34331   34330   34331   34331       0
   34333   34334   34335   34334   34335   34335       0   34337   34338   34339
   34338   34339   34339       0   34341   34342   34343   34342   34343   34343
       0   34345   34346   34347   34346   34347   34347       0   34349   34350
   34351   34350   34351   34351       0   34353   34354   34355   34354   34355
   34355       0   34357   34358   34359   34358   34359   34359       0   34361
   34362   34363   34362   34363   34363       0   34365   34366   34367   34366
   34367   34367       0   34369   34370   34371   34370   34371   34371       0
   34373   34374   34375   34374   34375   34375       0   34377   34378   34379
   34378   34379   34379       0   34381   34382   34383   34382   34383   34383
       0   34385   34386   34387   34386   34387   34387       0   34389   34390
   34391   34390   34391   34391       0   34393   34394   34395   34394   34395
   34395       0   34397   34398   34399   34398   34399   34399       0   34401
   34402   34403   34402   34403   34403       0   34405   34406   34407   34406
   34407   34407       0   34409   34410   34411   34410   34411   34411       0
   34413   34414   34415   34414   34415   34415       0   34417   34418   34419
   34418   34419   34419       0   34421   34422   34423   34422   34423   34423
       0   34425   34426   34427   34426   34427   34427       0   34429   34430
   34431   34430   34431   34431       0   34433   34434   34435   34434   34435
   34435       0   34437   34438   34439   34438   34439   34439       0   34441
   34442   34443   34442   34443   34443       0   34445   34446   34447   34446
   34447   34447       0   34449   34450   34451   34450   34451   34451       0
   34453   34454   34455   34454   34455   34455       0   34457   34458   34459
   34458   34459   34459       0   34461   34462   34463   34462   34463   34463
       0   34465   34466   34467   34466   34467   34467       0   34469   34470
   34471   34470   34471   34471       0   34473   34474   34475   34474   34475
   34475       0   34477   34478   34479   34478   34479   34479       0   34481
   34482   34483   34482   34483   34483       0   34485   34486   34487   34486
   34487   34487       0   34489   34490   34491   34490   34491   34491       0
   34493   34494   34495   34494   34495   34495       0   34497   34498   34499
   34498   34499   34499       0   34501   34502   34503   34502   34503   34503
       0   34505   34506   34507   34506   34507   34507       0   34509   34510
   34511   34510   34511   34511       0   34513   34514   34515   34514   34515
   34515       0   34517   34518   34519   34518   34519   34519       0   34521
   34522   34523   34522   34523   34523       0   34525   34526   34527   34526
   34527   34527       0   34529   34530   34531   34530   34531   34531       0
   34533   34534   34535   34534   34535   34535       0   34537   34538   34539
   34538   34539   34539       0   34541   34542   34543   34542   34543   34543
       0   34545   34546   34547   34546   34547   34547       0   34549   34550
   34551   34550   34551   34551       0   34553   34554   34555   34554   34555
   34555       0   34557   34558   34559   34558   34559   34559       0   34561
   34562   34563   34562   34563   34563       0   34565   34566   34567   34566
   34567   34567       0   34569   34570   34571   34570   34571   34571       0
   34573   34574   34575   34574   34575   34575       0   34577   34578   34579
   34578   34579   34579       0   34581   34582   34583   34582   34583   34583
       0   34585   34586   34587   34586   34587   34587       0   34589   34590
   34591   34590   34591   34591       0   34593   34594   34595   34594   34595
   34595       0   34597   34598   34599   34598   34599   34599       0   34601
   34602   34603   34602   34603   34603       0   34605   34606   34607   34606
   34607   34607       0   34609   34610   34611   34610   34611   34611       0
   34613   34614   34615   34614   34615   34615       0   34617   34618   34619
   34618   34619   34619       0   34621   34622   34623   34622   34623   34623
       0   34625   34626   34627   34626   34627   34627       0   34629   34630
   34631   34630   34631   34631       0   34633   34634   34635   34634   34635
   34635       0   34637   34638   34639   34638   34639   34639       0   34641
   34642   34643   34642   34643   34643       0   34645   34646   34647   34646
   34647   34647       0   34649   34650   34651   34650   34651   34651       0
   34653   34654   34655   34654   34655   34655       0   34657   34658   34659
   34658   34659   34659       0   34661   34662   34663   34662   34663   34663
       0   34665   34666   34667   34666   34667   34667       0   34669   34670
   34671   34670   34671   34671       0   34673   34674   34675   34674   34675
   34675       0   34677   34678   34679   34678   34679   34679       0   34681
   34682   34683   34682   34683   34683       0   34685   34686   34687   34686
   34687   34687       0   34689   34690   34691   34690   34691   34691       0
   34693   34694   34695   34694   34695   34695       0   34697   34698   34699
   34698   34699   34699       0   34701   34702   34703   34702   34703   34703
       0   34705   34706   34707   34706   34707   34707       0   34709   34710
   34711   34710   34711   34711       0   34713   34714   34715   34714   34715
   34715       0   34717   34718   34719   34718   34719   34719       0   34721
   34722   34723   34722   34723   34723       0   34725   34726   34727   34726
   34727   34727       0   34729   34730   34731   34730   34731   34731       0
   34733   34734   34735   34734   34735   34735       0   34737   34738   34739
   34738   34739   34739       0   34741   34742   34743   34742   34743   34743
       0   34745   34746   34747   34746   34747   34747       0   34749   34750
   34751   34750   34751   34751       0   34753   34754   34755   34754   34755
   34755       0   34757   34758   34759   34758   34759   34759       0   34761
   34762   34763   34762   34763   34763       0   34765   34766   34767   34766
   34767   34767       0   34769   34770   34771   34770   34771   34771       0
   34773   34774   34775   34774   34775   34775       0   34777   34778   34779
   34778   34779   34779       0   34781   34782   34783   34782   34783   34783
       0   34785   34786   34787   34786   34787   34787       0   34789   34790
   34791   34790   34791   34791       0   34793   34794   34795   34794   34795
   34795       0   34797   34798   34799   34798   34799   34799       0   34801
   34802   34803   34802   34803   34803       0   34805   34806   34807   34806
   34807   34807       0   34809   34810   34811   34810   34811   34811       0
   34813   34814   34815   34814   34815   34815       0   34817   34818   34819
   34818   34819   34819       0   34821   34822   34823   34822   34823   34823
       0   34825   34826   34827   34826   34827   34827       0   34829   34830
   34831   34830   34831   34831       0   34833   34834   34835   34834   34835
   34835       0   34837   34838   34839   34838   34839   34839       0   34841
   34842   34843   34842   34843   34843       0   34845   34846   34847   34846
   34847   34847       0   34849   34850   34851   34850   34851   34851       0
   34853   34854   34855   34854   34855   34855       0   34857   34858   34859
   34858   34859   34859       0   34861   34862   34863   34862   34863   34863
       0   34865   34866   34867   34866   34867   34867       0   34869   34870
   34871   34870   34871   34871       0   34873   34874   34875   34874   34875
   34875       0   34877   34878   34879   34878   34879   34879       0   34881
   34882   34883   34882   34883   34883       0   34885   34886   34887   34886
   34887   34887       0   34889   34890   34891   34890   34891   34891       0
   34893   34894   34895   34894   34895   34895       0   34897   34898   34899
   34898   34899   34899       0   34901   34902   34903   34902   34903   34903
       0   34905   34906   34907   34906   34907   34907       0   34909   34910
   34911   34910   34911   34911       0   34913   34914   34915   34914   34915
   34915       0   34917   34918   34919   34918   34919   34919       0   34921
   34922   34923   34922   34923   34923       0   34925   34926   34927   34926
   34927   34927       0   34929   34930   34931   34930   34931   34931       0
   34933   34934   34935   34934   34935   34935       0   34937   34938   34939
   34938   34939   34939       0   34941   34942   34943   34942   34943   34943
       0   34945   34946   34947   34946   34947   34947       0   34949   34950
   34951   34950   34951   34951       0   34953   34954   34955   34954   34955
   34955       0   34957   34958   34959   34958   34959   34959       0   34961
   34962   34963   34962   34963   34963       0   34965   34966   34967   34966
   34967   34967       0   34969   34970   34971   34970   34971   34971       0
   34973   34974   34975   34974   34975   34975       0   34977   34978   34979
   34978   34979   34979       0   34981   34982   34983   34982   34983   34983
       0   34985   34986   34987   34986   34987   34987       0   34989   34990
   34991   34990   34991   34991       0   34993   34994   34995   34994   34995
   34995       0   34997   34998   34999   34998   34999   34999       0   35001
   35002   35003   35002   35003   35003       0   35005   35006   35007   35006
   35007   35007       0   35009   35010   35011   35010   35011   35011       0
   35013   35014   35015   35014   35015   35015       0   35017   35018   35019
   35018   35019   35019       0   35021   35022   35023   35022   35023   35023
       0   35025   35026   35027   35026   35027   35027       0   35029   35030
   35031   35030   35031   35031       0   35033   35034   35035   35034   35035
   35035       0   35037   35038   35039   35038   35039   35039       0   35041
   35042   35043   35042   35043   35043       0   35045   35046   35047   35046
   35047   35047       0   35049   35050   35051   35050   35051   35051       0
   35053   35054   35055   35054   35055   35055       0   35057   35058   35059
   35058   35059   35059       0   35061   35062   35063   35062   35063   35063
       0   35065   35066   35067   35066   35067   35067       0   35069   35070
   35071   35070   35071   35071       0   35073   35074   35075   35074   35075
   35075       0   35077   35078   35079   35078   35079   35079       0   35081
   35082   35083   35082   35083   35083       0   35085   35086   35087   35086
   35087   35087       0   35089   35090   35091   35090   35091   35091       0
   35093   35094   35095   35094   35095   35095       0   35097   35098   35099
   35098   35099   35099       0   35101   35102   35103   35102   35103   35103
       0   35105   35106   35107   35106   35107   35107       0   35109   35110
   35111   35110   35111   35111       0   35113   35114   35115   35114   35115
   35115       0   35117   35118   35119   35118   35119   35119       0   35121
   35122   35123   35122   35123   35123       0   35125   35126   35127   35126
   35127   35127       0   35129   35130   35131   35130   35131   35131       0
   35133   35134   35135   35134   35135   35135       0   35137   35138   35139
   35138   35139   35139       0   35141   35142   35143   35142   35143   35143
       0   35145   35146   35147   35146   35147   35147       0   35149   35150
   35151   35150   35151   35151       0   35153   35154   35155   35154   35155
   35155       0   35157   35158   35159   35158   35159   35159       0   35161
   35162   35163   35162   35163   35163       0   35165   35166   35167   35166
   35167   35167       0   35169   35170   35171   35170   35171   35171       0
   35173   35174   35175   35174   35175   35175       0   35177   35178   35179
   35178   35179   35179       0   35181   35182   35183   35182   35183   35183
       0   35185   35186   35187   35186   35187   35187       0   35189   35190
   35191   35190   35191   35191       0   35193   35194   35195   35194   35195
   35195       0   35197   35198   35199   35198   35199   35199       0   35201
   35202   35203   35202   35203   35203       0   35205   35206   35207   35206
   35207   35207       0   35209   35210   35211   35210   35211   35211       0
   35213   35214   35215   35214   35215   35215       0   35217   35218   35219
   35218   35219   35219       0   35221   35222   35223   35222   35223   35223
       0   35225   35226   35227   35226   35227   35227       0   35229   35230
   35231   35230   35231   35231       0   35233   35234   35235   35234   35235
   35235       0   35237   35238   35239   35238   35239   35239       0   35241
   35242   35243   35242   35243   35243       0   35245   35246   35247   35246
   35247   35247       0   35249   35250   35251   35250   35251   35251       0
   35253   35254   35255   35254   35255   35255       0   35257   35258   35259
   35258   35259   35259       0   35261   35262   35263   35262   35263   35263
       0   35265   35266   35267   35266   35267   35267       0   35269   35270
   35271   35270   35271   35271       0   35273   35274   35275   35274   35275
   35275       0   35277   35278   35279   35278   35279   35279       0   35281
   35282   35283   35282   35283   35283       0   35285   35286   35287   35286
   35287   35287       0   35289   35290   35291   35290   35291   35291       0
   35293   35294   35295   35294   35295   35295       0   35297   35298   35299
   35298   35299   35299       0   35301   35302   35303   35302   35303   35303
       0   35305   35306   35307   35306   35307   35307       0   35309   35310
   35311   35310   35311   35311       0   35313   35314   35315   35314   35315
   35315       0   35317   35318   35319   35318   35319   35319       0   35321
   35322   35323   35322   35323   35323       0   35325   35326   35327   35326
   35327   35327       0   35329   35330   35331   35330   35331   35331       0
   35333   35334   35335   35334   35335   35335       0   35337   35338   35339
   35338   35339   35339       0   35341   35342   35343   35342   35343   35343
       0   35345   35346   35347   35346   35347   35347       0   35349   35350
   35351   35350   35351   35351       0   35353   35354   35355   35354   35355
   35355       0   35357   35358   35359   35358   35359   35359       0   35361
   35362   35363   35362   35363   35363       0   35365   35366   35367   35366
   35367   35367       0   35369   35370   35371   35370   35371   35371       0
   35373   35374   35375   35374   35375   35375       0   35377   35378   35379
   35378   35379   35379       0   35381   35382   35383   35382   35383   35383
       0   35385   35386   35387   35386   35387   35387       0   35389   35390
   35391   35390   35391   35391       0   35393   35394   35395   35394   35395
   35395       0   35397   35398   35399   35398   35399   35399       0   35401
   35402   35403   35402   35403   35403       0   35405   35406   35407   35406
   35407   35407       0   35409   35410   35411   35410   35411   35411       0
   35413   35414   35415   35414   35415   35415       0   35417   35418   35419
   35418   35419   35419       0   35421   35422   35423   35422   35423   35423
       0   35425   35426   35427   35426   35427   35427       0   35429   35430
   35431   35430   35431   35431       0   35433   35434   35435   35434   35435
   35435       0   35437   35438   35439   35438   35439   35439       0   35441
   35442   35443   35442   35443   35443       0   35445   35446   35447   35446
   35447   35447       0   35449   35450   35451   35450   35451   35451       0
   35453   35454   35455   35454   35455   35455       0   35457   35458   35459
   35458   35459   35459       0   35461   35462   35463   35462   35463   35463
       0   35465   35466   35467   35466   35467   35467       0   35469   35470
   35471   35470   35471   35471       0   35473   35474   35475   35474   35475
   35475       0   35477   35478   35479   35478   35479   35479       0   35481
   35482   35483   35482   35483   35483       0   35485   35486   35487   35486
   35487   35487       0   35489   35490   35491   35490   35491   35491       0
   35493   35494   35495   35494   35495   35495       0   35497   35498   35499
   35498   35499   35499       0   35501   35502   35503   35502   35503   35503
       0   35505   35506   35507   35506   35507   35507       0   35509   35510
   35511   35510   35511   35511       0   35513   35514   35515   35514   35515
   35515       0   35517   35518   35519   35518   35519   35519       0   35521
   35522   35523   35522   35523   35523       0   35525   35526   35527   35526
   35527   35527       0   35529   35530   35531   35530   35531   35531       0
   35533   35534   35535   35534   35535   35535       0   35537   35538   35539
   35538   35539   35539       0   35541   35542   35543   35542   35543   35543
       0   35545   35546   35547   35546   35547   35547       0   35549   35550
   35551   35550   35551   35551       0   35553   35554   35555   35554   35555
   35555       0   35557   35558   35559   35558   35559   35559       0   35561
   35562   35563   35562   35563   35563       0   35565   35566   35567   35566
   35567   35567       0   35569   35570   35571   35570   35571   35571       0
   35573   35574   35575   35574   35575   35575       0   35577   35578   35579
   35578   35579   35579       0   35581   35582   35583   35582   35583   35583
       0   35585   35586   35587   35586   35587   35587       0   35589   35590
   35591   35590   35591   35591       0   35593   35594   35595   35594   35595
   35595       0   35597   35598   35599   35598   35599   35599       0   35601
   35602   35603   35602   35603   35603       0   35605   35606   35607   35606
   35607   35607       0   35609   35610   35611   35610   35611   35611       0
   35613   35614   35615   35614   35615   35615       0   35617   35618   35619
   35618   35619   35619       0   35621   35622   35623   35622   35623   35623
       0   35625   35626   35627   35626   35627   35627       0   35629   35630
   35631   35630   35631   35631       0   35633   35634   35635   35634   35635
   35635       0   35637   35638   35639   35638   35639   35639       0   35641
   35642   35643   35642   35643   35643       0   35645   35646   35647   35646
   35647   35647       0   35649   35650   35651   35650   35651   35651       0
   35653   35654   35655   35654   35655   35655       0   35657   35658   35659
   35658   35659   35659       0   35661   35662   35663   35662   35663   35663
       0   35665   35666   35667   35666   35667   35667       0   35669   35670
   35671   35670   35671   35671       0   35673   35674   35675   35674   35675
   35675       0   35677   35678   35679   35678   35679   35679       0   35681
   35682   35683   35682   35683   35683       0   35685   35686   35687   35686
   35687   35687       0   35689   35690   35691   35690   35691   35691       0
   35693   35694   35695   35694   35695   35695       0   35697   35698   35699
   35698   35699   35699       0   35701   35702   35703   35702   35703   35703
       0   35705   35706   35707   35706   35707   35707       0   35709   35710
   35711   35710   35711   35711       0   35713   35714   35715   35714   35715
   35715       0   35717   35718   35719   35718   35719   35719       0   35721
   35722   35723   35722   35723   35723       0   35725   35726   35727   35726
   35727   35727       0   35729   35730   35731   35730   35731   35731       0
   35733   35734   35735   35734   35735   35735       0   35737   35738   35739
   35738   35739   35739       0   35741   35742   35743   35742   35743   35743
       0   35745   35746   35747   35746   35747   35747       0   35749   35750
   35751   35750   35751   35751       0   35753   35754   35755   35754   35755
   35755       0   35757   35758   35759   35758   35759   35759       0   35761
   35762   35763   35762   35763   35763       0   35765   35766   35767   35766
   35767   35767       0   35769   35770   35771   35770   35771   35771       0
   35773   35774   35775   35774   35775   35775       0   35777   35778   35779
   35778   35779   35779       0   35781   35782   35783   35782   35783   35783
       0   35785   35786   35787   35786   35787   35787       0   35789   35790
   35791   35790   35791   35791       0   35793   35794   35795   35794   35795
   35795       0   35797   35798   35799   35798   35799   35799       0   35801
   35802   35803   35802   35803   35803       0   35805   35806   35807   35806
   35807   35807       0   35809   35810   35811   35810   35811   35811       0
   35813   35814   35815   35814   35815   35815       0   35817   35818   35819
   35818   35819   35819       0   35821   35822   35823   35822   35823   35823
       0   35825   35826   35827   35826   35827   35827       0   35829   35830
   35831   35830   35831   35831       0   35833   35834   35835   35834   35835
   35835       0   35837   35838   35839   35838   35839   35839       0   35841
   35842   35843   35842   35843   35843       0   35845   35846   35847   35846
   35847   35847       0   35849   35850   35851   35850   35851   35851       0
   35853   35854   35855   35854   35855   35855       0   35857   35858   35859
   35858   35859   35859       0   35861   35862   35863   35862   35863   35863
       0   35865   35866   35867   35866   35867   35867       0   35869   35870
   35871   35870   35871   35871       0   35873   35874   35875   35874   35875
   35875       0   35877   35878   35879   35878   35879   35879       0   35881
   35882   35883   35882   35883   35883       0   35885   35886   35887   35886
   35887   35887       0   35889   35890   35891   35890   35891   35891       0
   35893   35894   35895   35894   35895   35895       0   35897   35898   35899
   35898   35899   35899       0   35901   35902   35903   35902   35903   35903
       0   35905   35906   35907   35906   35907   35907       0   35909   35910
   35911   35910   35911   35911       0   35913   35914   35915   35914   35915
   35915       0   35917   35918   35919   35918   35919   35919       0   35921
   35922   35923   35922   35923   35923       0   35925   35926   35927   35926
   35927   35927       0   35929   35930   35931   35930   35931   35931       0
   35933   35934   35935   35934   35935   35935       0   35937   35938   35939
   35938   35939   35939       0   35941   35942   35943   35942   35943   35943
       0   35945   35946   35947   35946   35947   35947       0   35949   35950
   35951   35950   35951   35951       0   35953   35954   35955   35954   35955
   35955       0   35957   35958   35959   35958   35959   35959       0   35961
   35962   35963   35962   35963   35963       0   35965   35966   35967   35966
   35967   35967       0   35969   35970   35971   35970   35971   35971       0
   35973   35974   35975   35974   35975   35975       0   35977   35978   35979
   35978   35979   35979       0   35981   35982   35983   35982   35983   35983
       0   35985   35986   35987   35986   35987   35987       0   35989   35990
   35991   35990   35991   35991       0   35993   35994   35995   35994   35995
   35995       0   35997   35998   35999   35998   35999   35999       0   36001
   36002   36003   36002   36003   36003       0   36005   36006   36007   36006
   36007   36007       0   36009   36010   36011   36010   36011   36011       0
   36013   36014   36015   36014   36015   36015       0   36017   36018   36019
   36018   36019   36019       0   36021   36022   36023   36022   36023   36023
       0   36025   36026   36027   36026   36027   36027       0   36029   36030
   36031   36030   36031   36031       0   36033   36034   36035   36034   36035
   36035       0   36037   36038   36039   36038   36039   36039       0   36041
   36042   36043   36042   36043   36043       0   36045   36046   36047   36046
   36047   36047       0   36049   36050   36051   36050   36051   36051       0
   36053   36054   36055   36054   36055   36055       0   36057   36058   36059
   36058   36059   36059       0   36061   36062   36063   36062   36063   36063
       0   36065   36066   36067   36066   36067   36067       0   36069   36070
   36071   36070   36071   36071       0   36073   36074   36075   36074   36075
   36075       0   36077   36078   36079   36078   36079   36079       0   36081
   36082   36083   36082   36083   36083       0   36085   36086   36087   36086
   36087   36087       0   36089   36090   36091   36090   36091   36091       0
   36093   36094   36095   36094   36095   36095       0   36097   36098   36099
   36098   36099   36099       0   36101   36102   36103   36102   36103   36103
       0   36105   36106   36107   36106   36107   36107       0   36109   36110
   36111   36110   36111   36111       0   36113   36114   36115   36114   36115
   36115       0   36117   36118   36119   36118   36119   36119       0   36121
   36122   36123   36122   36123   36123       0   36125   36126   36127   36126
   36127   36127       0   36129   36130   36131   36130   36131   36131       0
   36133   36134   36135   36134   36135   36135       0   36137   36138   36139
   36138   36139   36139       0   36141   36142   36143   36142   36143   36143
       0   36145   36146   36147   36146   36147   36147       0   36149   36150
   36151   36150   36151   36151       0   36153   36154   36155   36154   36155
   36155       0   36157   36158   36159   36158   36159   36159       0   36161
   36162   36163   36162   36163   36163       0   36165   36166   36167   36166
   36167   36167       0   36169   36170   36171   36170   36171   36171       0
   36173   36174   36175   36174   36175   36175       0   36177   36178   36179
   36178   36179   36179       0   36181   36182   36183   36182   36183   36183
       0   36185   36186   36187   36186   36187   36187       0   36189   36190
   36191   36190   36191   36191       0   36193   36194   36195   36194   36195
   36195       0   36197   36198   36199   36198   36199   36199       0   36201
   36202   36203   36202   36203   36203       0   36205   36206   36207   36206
   36207   36207       0   36209   36210   36211   36210   36211   36211       0
   36213   36214   36215   36214   36215   36215       0   36217   36218   36219
   36218   36219   36219       0   36221   36222   36223   36222   36223   36223
       0   36225   36226   36227   36226   36227   36227       0   36229   36230
   36231   36230   36231   36231       0   36233   36234   36235   36234   36235
   36235       0   36237   36238   36239   36238   36239   36239       0   36241
   36242   36243   36242   36243   36243       0   36245   36246   36247   36246
   36247   36247       0   36249   36250   36251   36250   36251   36251       0
   36253   36254   36255   36254   36255   36255       0   36257   36258   36259
   36258   36259   36259       0   36261   36262   36263   36262   36263   36263
       0   36265   36266   36267   36266   36267   36267       0   36269   36270
   36271   36270   36271   36271       0   36273   36274   36275   36274   36275
   36275       0   36277   36278   36279   36278   36279   36279       0   36281
   36282   36283   36282   36283   36283       0   36285   36286   36287   36286
   36287   36287       0   36289   36290   36291   36290   36291   36291       0
   36293   36294   36295   36294   36295   36295       0   36297   36298   36299
   36298   36299   36299       0   36301   36302   36303   36302   36303   36303
       0   36305   36306   36307   36306   36307   36307       0   36309   36310
   36311   36310   36311   36311       0   36313   36314   36315   36314   36315
   36315       0   36317   36318   36319   36318   36319   36319       0   36321
   36322   36323   36322   36323   36323       0   36325   36326   36327   36326
   36327   36327       0   36329   36330   36331   36330   36331   36331       0
   36333   36334   36335   36334   36335   36335       0   36337   36338   36339
   36338   36339   36339       0   36341   36342   36343   36342   36343   36343
       0   36345   36346   36347   36346   36347   36347       0   36349   36350
   36351   36350   36351   36351       0   36353   36354   36355   36354   36355
   36355       0   36357   36358   36359   36358   36359   36359       0   36361
   36362   36363   36362   36363   36363       0   36365   36366   36367   36366
   36367   36367       0   36369   36370   36371   36370   36371   36371       0
   36373   36374   36375   36374   36375   36375       0   36377   36378   36379
   36378   36379   36379       0   36381   36382   36383   36382   36383   36383
       0   36385   36386   36387   36386   36387   36387       0   36389   36390
   36391   36390   36391   36391       0   36393   36394   36395   36394   36395
   36395       0   36397   36398   36399   36398   36399   36399       0   36401
   36402   36403   36402   36403   36403       0   36405   36406   36407   36406
   36407   36407       0   36409   36410   36411   36410   36411   36411       0
   36413   36414   36415   36414   36415   36415       0   36417   36418   36419
   36418   36419   36419       0   36421   36422   36423   36422   36423   36423
       0   36425   36426   36427   36426   36427   36427       0   36429   36430
   36431   36430   36431   36431       0   36433   36434   36435   36434   36435
   36435       0   36437   36438   36439   36438   36439   36439       0   36441
   36442   36443   36442   36443   36443       0   36445   36446   36447   36446
   36447   36447       0   36449   36450   36451   36450   36451   36451       0
   36453   36454   36455   36454   36455   36455       0   36457   36458   36459
   36458   36459   36459       0   36461   36462   36463   36462   36463   36463
       0   36465   36466   36467   36466   36467   36467       0   36469   36470
   36471   36470   36471   36471       0   36473   36474   36475   36474   36475
   36475       0   36477   36478   36479   36478   36479   36479       0   36481
   36482   36483   36482   36483   36483       0   36485   36486   36487   36486
   36487   36487       0   36489   36490   36491   36490   36491   36491       0
   36493   36494   36495   36494   36495   36495       0   36497   36498   36499
   36498   36499   36499       0   36501   36502   36503   36502   36503   36503
       0   36505   36506   36507   36506   36507   36507       0   36509   36510
   36511   36510   36511   36511       0   36513   36514   36515   36514   36515
   36515       0   36517   36518   36519   36518   36519   36519       0   36521
   36522   36523   36522   36523   36523       0   36525   36526   36527   36526
   36527   36527       0   36529   36530   36531   36530   36531   36531       0
   36533   36534   36535   36534   36535   36535       0   36537   36538   36539
   36538   36539   36539       0   36541   36542   36543   36542   36543   36543
       0   36545   36546   36547   36546   36547   36547       0   36549   36550
   36551   36550   36551   36551       0   36553   36554   36555   36554   36555
   36555       0   36557   36558   36559   36558   36559   36559       0   36561
   36562   36563   36562   36563   36563       0   36565   36566   36567   36566
   36567   36567       0   36569   36570   36571   36570   36571   36571       0
   36573   36574   36575   36574   36575   36575       0   36577   36578   36579
   36578   36579   36579       0   36581   36582   36583   36582   36583   36583
       0   36585   36586   36587   36586   36587   36587       0   36589   36590
   36591   36590   36591   36591       0   36593   36594   36595   36594   36595
   36595       0   36597   36598   36599   36598   36599   36599       0   36601
   36602   36603   36602   36603   36603       0   36605   36606   36607   36606
   36607   36607       0   36609   36610   36611   36610   36611   36611       0
   36613   36614   36615   36614   36615   36615       0   36617   36618   36619
   36618   36619   36619       0   36621   36622   36623   36622   36623   36623
       0   36625   36626   36627   36626   36627   36627       0   36629   36630
   36631   36630   36631   36631       0   36633   36634   36635   36634   36635
   36635       0   36637   36638   36639   36638   36639   36639       0   36641
   36642   36643   36642   36643   36643       0   36645   36646   36647   36646
   36647   36647       0   36649   36650   36651   36650   36651   36651       0
   36653   36654   36655   36654   36655   36655       0   36657   36658   36659
   36658   36659   36659       0   36661   36662   36663   36662   36663   36663
       0   36665   36666   36667   36666   36667   36667       0   36669   36670
   36671   36670   36671   36671       0   36673   36674   36675   36674   36675
   36675       0   36677   36678   36679   36678   36679   36679       0   36681
   36682   36683   36682   36683   36683       0   36685   36686   36687   36686
   36687   36687       0   36689   36690   36691   36690   36691   36691       0
   36693   36694   36695   36694   36695   36695       0   36697   36698   36699
   36698   36699   36699       0   36701   36702   36703   36702   36703   36703
       0   36705   36706   36707   36706   36707   36707       0   36709   36710
   36711   36710   36711   36711       0   36713   36714   36715   36714   36715
   36715       0   36717   36718   36719   36718   36719   36719       0   36721
   36722   36723   36722   36723   36723       0   36725   36726   36727   36726
   36727   36727       0   36729   36730   36731   36730   36731   36731       0
   36733   36734   36735   36734   36735   36735       0   36737   36738   36739
   36738   36739   36739       0   36741   36742   36743   36742   36743   36743
       0   36745   36746   36747   36746   36747   36747       0   36749   36750
   36751   36750   36751   36751       0   36753   36754   36755   36754   36755
   36755       0   36757   36758   36759   36758   36759   36759       0   36761
   36762   36763   36762   36763   36763       0   36765   36766   36767   36766
   36767   36767       0   36769   36770   36771   36770   36771   36771       0
   36773   36774   36775   36774   36775   36775       0   36777   36778   36779
   36778   36779   36779       0   36781   36782   36783   36782   36783   36783
       0   36785   36786   36787   36786   36787   36787       0   36789   36790
   36791   36790   36791   36791       0   36793   36794   36795   36794   36795
   36795       0   36797   36798   36799   36798   36799   36799       0   36801
   36802   36803   36802   36803   36803       0   36805   36806   36807   36806
   36807   36807       0   36809   36810   36811   36810   36811   36811       0
   36813   36814   36815   36814   36815   36815       0   36817   36818   36819
   36818   36819   36819       0   36821   36822   36823   36822   36823   36823
       0   36825   36826   36827   36826   36827   36827       0   36829   36830
   36831   36830   36831   36831       0   36833   36834   36835   36834   36835
   36835       0   36837   36838   36839   36838   36839   36839       0   36841
   36842   36843   36842   36843   36843       0   36845   36846   36847   36846
   36847   36847       0   36849   36850   36851   36850   36851   36851       0
   36853   36854   36855   36854   36855   36855       0   36857   36858   36859
   36858   36859   36859       0   36861   36862   36863   36862   36863   36863
       0   36865   36866   36867   36866   36867   36867       0   36869   36870
   36871   36870   36871   36871       0   36873   36874   36875   36874   36875
   36875       0   36877   36878   36879   36878   36879   36879       0   36881
   36882   36883   36882   36883   36883       0   36885   36886   36887   36886
   36887   36887       0   36889   36890   36891   36890   36891   36891       0
   36893   36894   36895   36894   36895   36895       0   36897   36898   36899
   36898   36899   36899       0   36901   36902   36903   36902   36903   36903
       0   36905   36906   36907   36906   36907   36907       0   36909   36910
   36911   36910   36911   36911       0   36913   36914   36915   36914   36915
   36915       0   36917   36918   36919   36918   36919   36919       0   36921
   36922   36923   36922   36923   36923       0   36925   36926   36927   36926
   36927   36927       0   36929   36930   36931   36930   36931   36931       0
   36933   36934   36935   36934   36935   36935       0   36937   36938   36939
   36938   36939   36939       0   36941   36942   36943   36942   36943   36943
       0   36945   36946   36947   36946   36947   36947       0   36949   36950
   36951   36950   36951   36951       0   36953   36954   36955   36954   36955
   36955       0   36957   36958   36959   36958   36959   36959       0   36961
   36962   36963   36962   36963   36963       0   36965   36966   36967   36966
   36967   36967       0   36969   36970   36971   36970   36971   36971       0
   36973   36974   36975   36974   36975   36975       0   36977   36978   36979
   36978   36979   36979       0   36981   36982   36983   36982   36983   36983
       0   36985   36986   36987   36986   36987   36987       0   36989   36990
   36991   36990   36991   36991       0   36993   36994   36995   36994   36995
   36995       0   36997   36998   36999   36998   36999   36999       0   37001
   37002   37003   37002   37003   37003       0   37005   37006   37007   37006
   37007   37007       0   37009   37010   37011   37010   37011   37011       0
   37013   37014   37015   37014   37015   37015       0   37017   37018   37019
   37018   37019   37019       0   37021   37022   37023   37022   37023   37023
       0   37025   37026   37027   37026   37027   37027       0   37029   37030
   37031   37030   37031   37031       0   37033   37034   37035   37034   37035
   37035       0   37037   37038   37039   37038   37039   37039       0   37041
   37042   37043   37042   37043   37043       0   37045   37046   37047   37046
   37047   37047       0   37049   37050   37051   37050   37051   37051       0
   37053   37054   37055   37054   37055   37055       0   37057   37058   37059
   37058   37059   37059       0   37061   37062   37063   37062   37063   37063
       0   37065   37066   37067   37066   37067   37067       0   37069   37070
   37071   37070   37071   37071       0   37073   37074   37075   37074   37075
   37075       0   37077   37078   37079   37078   37079   37079       0   37081
   37082   37083   37082   37083   37083       0   37085   37086   37087   37086
   37087   37087       0   37089   37090   37091   37090   37091   37091       0
   37093   37094   37095   37094   37095   37095       0   37097   37098   37099
   37098   37099   37099       0   37101   37102   37103   37102   37103   37103
       0   37105   37106   37107   37106   37107   37107       0   37109   37110
   37111   37110   37111   37111       0   37113   37114   37115   37114   37115
   37115       0   37117   37118   37119   37118   37119   37119       0   37121
   37122   37123   37122   37123   37123       0   37125   37126   37127   37126
   37127   37127       0   37129   37130   37131   37130   37131   37131       0
   37133   37134   37135   37134   37135   37135       0   37137   37138   37139
   37138   37139   37139       0   37141   37142   37143   37142   37143   37143
       0   37145   37146   37147   37146   37147   37147       0   37149   37150
   37151   37150   37151   37151       0   37153   37154   37155   37154   37155
   37155       0   37157   37158   37159   37158   37159   37159       0   37161
   37162   37163   37162   37163   37163       0   37165   37166   37167   37166
   37167   37167       0   37169   37170   37171   37170   37171   37171       0
   37173   37174   37175   37174   37175   37175       0   37177   37178   37179
   37178   37179   37179       0   37181   37182   37183   37182   37183   37183
       0   37185   37186   37187   37186   37187   37187       0   37189   37190
   37191   37190   37191   37191       0   37193   37194   37195   37194   37195
   37195       0   37197   37198   37199   37198   37199   37199       0   37201
   37202   37203   37202   37203   37203       0   37205   37206   37207   37206
   37207   37207       0   37209   37210   37211   37210   37211   37211       0
   37213   37214   37215   37214   37215   37215       0   37217   37218   37219
   37218   37219   37219       0   37221   37222   37223   37222   37223   37223
       0   37225   37226   37227   37226   37227   37227       0   37229   37230
   37231   37230   37231   37231       0   37233   37234   37235   37234   37235
   37235       0   37237   37238   37239   37238   37239   37239       0   37241
   37242   37243   37242   37243   37243       0   37245   37246   37247   37246
   37247   37247       0   37249   37250   37251   37250   37251   37251       0
   37253   37254   37255   37254   37255   37255       0   37257   37258   37259
   37258   37259   37259       0   37261   37262   37263   37262   37263   37263
       0   37265   37266   37267   37266   37267   37267       0   37269   37270
   37271   37270   37271   37271       0   37273   37274   37275   37274   37275
   37275       0   37277   37278   37279   37278   37279   37279       0   37281
   37282   37283   37282   37283   37283       0   37285   37286   37287   37286
   37287   37287       0   37289   37290   37291   37290   37291   37291       0
   37293   37294   37295   37294   37295   37295       0   37297   37298   37299
   37298   37299   37299       0   37301   37302   37303   37302   37303   37303
       0   37305   37306   37307   37306   37307   37307       0   37309   37310
   37311   37310   37311   37311       0   37313   37314   37315   37314   37315
   37315       0   37317   37318   37319   37318   37319   37319       0   37321
   37322   37323   37322   37323   37323       0   37325   37326   37327   37326
   37327   37327       0   37329   37330   37331   37330   37331   37331       0
   37333   37334   37335   37334   37335   37335       0   37337   37338   37339
   37338   37339   37339       0   37341   37342   37343   37342   37343   37343
       0   37345   37346   37347   37346   37347   37347       0   37349   37350
   37351   37350   37351   37351       0   37353   37354   37355   37354   37355
   37355       0   37357   37358   37359   37358   37359   37359       0   37361
   37362   37363   37362   37363   37363       0   37365   37366   37367   37366
   37367   37367       0   37369   37370   37371   37370   37371   37371       0
   37373   37374   37375   37374   37375   37375       0   37377   37378   37379
   37378   37379   37379       0   37381   37382   37383   37382   37383   37383
       0   37385   37386   37387   37386   37387   37387       0   37389   37390
   37391   37390   37391   37391       0   37393   37394   37395   37394   37395
   37395       0   37397   37398   37399   37398   37399   37399       0   37401
   37402   37403   37402   37403   37403       0   37405   37406   37407   37406
   37407   37407       0   37409   37410   37411   37410   37411   37411       0
   37413   37414   37415   37414   37415   37415       0   37417   37418   37419
   37418   37419   37419       0   37421   37422   37423   37422   37423   37423
       0   37425   37426   37427   37426   37427   37427       0   37429   37430
   37431   37430   37431   37431       0   37433   37434   37435   37434   37435
   37435       0   37437   37438   37439   37438   37439   37439       0   37441
   37442   37443   37442   37443   37443       0   37445   37446   37447   37446
   37447   37447       0   37449   37450   37451   37450   37451   37451       0
   37453   37454   37455   37454   37455   37455       0   37457   37458   37459
   37458   37459   37459       0   37461   37462   37463   37462   37463   37463
       0   37465   37466   37467   37466   37467   37467       0   37469   37470
   37471   37470   37471   37471       0   37473   37474   37475   37474   37475
   37475       0   37477   37478   37479   37478   37479   37479       0   37481
   37482   37483   37482   37483   37483       0   37485   37486   37487   37486
   37487   37487       0   37489   37490   37491   37490   37491   37491       0
   37493   37494   37495   37494   37495   37495       0   37497   37498   37499
   37498   37499   37499       0   37501   37502   37503   37502   37503   37503
       0   37505   37506   37507   37506   37507   37507       0   37509   37510
   37511   37510   37511   37511       0   37513   37514   37515   37514   37515
   37515       0   37517   37518   37519   37518   37519   37519       0   37521
   37522   37523   37522   37523   37523       0   37525   37526   37527   37526
   37527   37527       0   37529   37530   37531   37530   37531   37531       0
   37533   37534   37535   37534   37535   37535       0   37537   37538   37539
   37538   37539   37539       0   37541   37542   37543   37542   37543   37543
       0   37545   37546   37547   37546   37547   37547       0   37549   37550
   37551   37550   37551   37551       0   37553   37554   37555   37554   37555
   37555       0   37557   37558   37559   37558   37559   37559       0   37561
   37562   37563   37562   37563   37563       0   37565   37566   37567   37566
   37567   37567       0   37569   37570   37571   37570   37571   37571       0
   37573   37574   37575   37574   37575   37575       0   37577   37578   37579
   37578   37579   37579       0   37581   37582   37583   37582   37583   37583
       0   37585   37586   37587   37586   37587   37587       0   37589   37590
   37591   37590   37591   37591       0   37593   37594   37595   37594   37595
   37595       0   37597   37598   37599   37598   37599   37599       0   37601
   37602   37603   37602   37603   37603       0   37605   37606   37607   37606
   37607   37607       0   37609   37610   37611   37610   37611   37611       0
   37613   37614   37615   37614   37615   37615       0   37617   37618   37619
   37618   37619   37619       0   37621   37622   37623   37622   37623   37623
       0   37625   37626   37627   37626   37627   37627       0   37629   37630
   37631   37630   37631   37631       0   37633   37634   37635   37634   37635
   37635       0   37637   37638   37639   37638   37639   37639       0   37641
   37642   37643   37642   37643   37643       0   37645   37646   37647   37646
   37647   37647       0   37649   37650   37651   37650   37651   37651       0
   37653   37654   37655   37654   37655   37655       0   37657   37658   37659
   37658   37659   37659       0   37661   37662   37663   37662   37663   37663
       0   37665   37666   37667   37666   37667   37667       0   37669   37670
   37671   37670   37671   37671       0   37673   37674   37675   37674   37675
   37675       0   37677   37678   37679   37678   37679   37679       0   37681
   37682   37683   37682   37683   37683       0   37685   37686   37687   37686
   37687   37687       0   37689   37690   37691   37690   37691   37691       0
   37693   37694   37695   37694   37695   37695       0   37697   37698   37699
   37698   37699   37699       0   37701   37702   37703   37702   37703   37703
       0   37705   37706   37707   37706   37707   37707       0   37709   37710
   37711   37710   37711   37711       0   37713   37714   37715   37714   37715
   37715       0   37717   37718   37719   37718   37719   37719       0   37721
   37722   37723   37722   37723   37723       0   37725   37726   37727   37726
   37727   37727       0   37729   37730   37731   37730   37731   37731       0
   37733   37734   37735   37734   37735   37735       0   37737   37738   37739
   37738   37739   37739       0   37741   37742   37743   37742   37743   37743
       0   37745   37746   37747   37746   37747   37747       0   37749   37750
   37751   37750   37751   37751       0   37753   37754   37755   37754   37755
   37755       0   37757   37758   37759   37758   37759   37759       0   37761
   37762   37763   37762   37763   37763       0   37765   37766   37767   37766
   37767   37767       0   37769   37770   37771   37770   37771   37771       0
   37773   37774   37775   37774   37775   37775       0   37777   37778   37779
   37778   37779   37779       0   37781   37782   37783   37782   37783   37783
       0   37785   37786   37787   37786   37787   37787       0   37789   37790
   37791   37790   37791   37791       0   37793   37794   37795   37794   37795
   37795       0   37797   37798   37799   37798   37799   37799       0   37801
   37802   37803   37802   37803   37803       0   37805   37806   37807   37806
   37807   37807       0   37809   37810   37811   37810   37811   37811       0
   37813   37814   37815   37814   37815   37815       0   37817   37818   37819
   37818   37819   37819       0   37821   37822   37823   37822   37823   37823
       0   37825   37826   37827   37826   37827   37827       0   37829   37830
   37831   37830   37831   37831       0   37833   37834   37835   37834   37835
   37835       0   37837   37838   37839   37838   37839   37839       0   37841
   37842   37843   37842   37843   37843       0   37845   37846   37847   37846
   37847   37847       0   37849   37850   37851   37850   37851   37851       0
   37853   37854   37855   37854   37855   37855       0   37857   37858   37859
   37858   37859   37859       0   37861   37862   37863   37862   37863   37863
       0   37865   37866   37867   37866   37867   37867       0   37869   37870
   37871   37870   37871   37871       0   37873   37874   37875   37874   37875
   37875       0   37877   37878   37879   37878   37879   37879       0   37881
   37882   37883   37882   37883   37883       0   37885   37886   37887   37886
   37887   37887       0   37889   37890   37891   37890   37891   37891       0
   37893   37894   37895   37894   37895   37895       0   37897   37898   37899
   37898   37899   37899       0   37901   37902   37903   37902   37903   37903
       0   37905   37906   37907   37906   37907   37907       0   37909   37910
   37911   37910   37911   37911       0   37913   37914   37915   37914   37915
   37915       0   37917   37918   37919   37918   37919   37919       0   37921
   37922   37923   37922   37923   37923       0   37925   37926   37927   37926
   37927   37927       0   37929   37930   37931   37930   37931   37931       0
   37933   37934   37935   37934   37935   37935       0   37937   37938   37939
   37938   37939   37939       0   37941   37942   37943   37942   37943   37943
       0   37945   37946   37947   37946   37947   37947       0   37949   37950
   37951   37950   37951   37951       0   37953   37954   37955   37954   37955
   37955       0   37957   37958   37959   37958   37959   37959       0   37961
   37962   37963   37962   37963   37963       0   37965   37966   37967   37966
   37967   37967       0   37969   37970   37971   37970   37971   37971       0
   37973   37974   37975   37974   37975   37975       0   37977   37978   37979
   37978   37979   37979       0   37981   37982   37983   37982   37983   37983
       0   37985   37986   37987   37986   37987   37987       0   37989   37990
   37991   37990   37991   37991       0   37993   37994   37995   37994   37995
   37995       0   37997   37998   37999   37998   37999   37999       0   38001
   38002   38003   38002   38003   38003       0   38005   38006   38007   38006
   38007   38007       0   38009   38010   38011   38010   38011   38011       0
   38013   38014   38015   38014   38015   38015       0   38017   38018   38019
   38018   38019   38019       0   38021   38022   38023   38022   38023   38023
       0   38025   38026   38027   38026   38027   38027       0   38029   38030
   38031   38030   38031   38031       0   38033   38034   38035   38034   38035
   38035       0   38037   38038   38039   38038   38039   38039       0   38041
   38042   38043   38042   38043   38043       0   38045   38046   38047   38046
   38047   38047       0   38049   38050   38051   38050   38051   38051       0
   38053   38054   38055   38054   38055   38055       0   38057   38058   38059
   38058   38059   38059       0   38061   38062   38063   38062   38063   38063
       0   38065   38066   38067   38066   38067   38067       0   38069   38070
   38071   38070   38071   38071       0   38073   38074   38075   38074   38075
   38075       0   38077   38078   38079   38078   38079   38079       0   38081
   38082   38083   38082   38083   38083       0   38085   38086   38087   38086
   38087   38087       0   38089   38090   38091   38090   38091   38091       0
   38093   38094   38095   38094   38095   38095       0   38097   38098   38099
   38098   38099   38099       0   38101   38102   38103   38102   38103   38103
       0   38105   38106   38107   38106   38107   38107       0   38109   38110
   38111   38110   38111   38111       0   38113   38114   38115   38114   38115
   38115       0   38117   38118   38119   38118   38119   38119       0   38121
   38122   38123   38122   38123   38123       0   38125   38126   38127   38126
   38127   38127       0   38129   38130   38131   38130   38131   38131       0
   38133   38134   38135   38134   38135   38135       0   38137   38138   38139
   38138   38139   38139       0   38141   38142   38143   38142   38143   38143
       0   38145   38146   38147   38146   38147   38147       0   38149   38150
   38151   38150   38151   38151       0   38153   38154   38155   38154   38155
   38155       0   38157   38158   38159   38158   38159   38159       0   38161
   38162   38163   38162   38163   38163       0   38165   38166   38167   38166
   38167   38167       0   38169   38170   38171   38170   38171   38171       0
   38173   38174   38175   38174   38175   38175       0   38177   38178   38179
   38178   38179   38179       0   38181   38182   38183   38182   38183   38183
       0   38185   38186   38187   38186   38187   38187       0   38189   38190
   38191   38190   38191   38191       0   38193   38194   38195   38194   38195
   38195       0   38197   38198   38199   38198   38199   38199       0   38201
   38202   38203   38202   38203   38203       0   38205   38206   38207   38206
   38207   38207       0   38209   38210   38211   38210   38211   38211       0
   38213   38214   38215   38214   38215   38215       0   38217   38218   38219
   38218   38219   38219       0   38221   38222   38223   38222   38223   38223
       0   38225   38226   38227   38226   38227   38227       0   38229   38230
   38231   38230   38231   38231       0   38233   38234   38235   38234   38235
   38235       0   38237   38238   38239   38238   38239   38239       0   38241
   38242   38243   38242   38243   38243       0   38245   38246   38247   38246
   38247   38247       0   38249   38250   38251   38250   38251   38251       0
   38253   38254   38255   38254   38255   38255       0   38257   38258   38259
   38258   38259   38259       0   38261   38262   38263   38262   38263   38263
       0   38265   38266   38267   38266   38267   38267       0   38269   38270
   38271   38270   38271   38271       0   38273   38274   38275   38274   38275
   38275       0   38277   38278   38279   38278   38279   38279       0   38281
   38282   38283   38282   38283   38283       0   38285   38286   38287   38286
   38287   38287       0   38289   38290   38291   38290   38291   38291       0
   38293   38294   38295   38294   38295   38295       0   38297   38298   38299
   38298   38299   38299       0   38301   38302   38303   38302   38303   38303
       0   38305   38306   38307   38306   38307   38307       0   38309   38310
   38311   38310   38311   38311       0   38313   38314   38315   38314   38315
   38315       0   38317   38318   38319   38318   38319   38319       0   38321
   38322   38323   38322   38323   38323       0   38325   38326   38327   38326
   38327   38327       0   38329   38330   38331   38330   38331   38331       0
   38333   38334   38335   38334   38335   38335       0   38337   38338   38339
   38338   38339   38339       0   38341   38342   38343   38342   38343   38343
       0   38345   38346   38347   38346   38347   38347       0   38349   38350
   38351   38350   38351   38351       0   38353   38354   38355   38354   38355
   38355       0   38357   38358   38359   38358   38359   38359       0   38361
   38362   38363   38362   38363   38363       0   38365   38366   38367   38366
   38367   38367       0   38369   38370   38371   38370   38371   38371       0
   38373   38374   38375   38374   38375   38375       0   38377   38378   38379
   38378   38379   38379       0   38381   38382   38383   38382   38383   38383
       0   38385   38386   38387   38386   38387   38387       0   38389   38390
   38391   38390   38391   38391       0   38393   38394   38395   38394   38395
   38395       0   38397   38398   38399   38398   38399   38399       0   38401
   38402   38403   38402   38403   38403       0   38405   38406   38407   38406
   38407   38407       0   38409   38410   38411   38410   38411   38411       0
   38413   38414   38415   38414   38415   38415       0   38417   38418   38419
   38418   38419   38419       0   38421   38422   38423   38422   38423   38423
       0   38425   38426   38427   38426   38427   38427       0   38429   38430
   38431   38430   38431   38431       0   38433   38434   38435   38434   38435
   38435       0   38437   38438   38439   38438   38439   38439       0   38441
   38442   38443   38442   38443   38443       0   38445   38446   38447   38446
   38447   38447       0   38449   38450   38451   38450   38451   38451       0
   38453   38454   38455   38454   38455   38455       0   38457   38458   38459
   38458   38459   38459       0   38461   38462   38463   38462   38463   38463
       0   38465   38466   38467   38466   38467   38467       0   38469   38470
   38471   38470   38471   38471       0   38473   38474   38475   38474   38475
   38475       0   38477   38478   38479   38478   38479   38479       0   38481
   38482   38483   38482   38483   38483       0   38485   38486   38487   38486
   38487   38487       0   38489   38490   38491   38490   38491   38491       0
   38493   38494   38495   38494   38495   38495       0   38497   38498   38499
   38498   38499   38499       0   38501   38502   38503   38502   38503   38503
       0   38505   38506   38507   38506   38507   38507       0   38509   38510
   38511   38510   38511   38511       0   38513   38514   38515   38514   38515
   38515       0   38517   38518   38519   38518   38519   38519       0   38521
   38522   38523   38522   38523   38523       0   38525   38526   38527   38526
   38527   38527       0   38529   38530   38531   38530   38531   38531       0
   38533   38534   38535   38534   38535   38535       0   38537   38538   38539
   38538   38539   38539       0   38541   38542   38543   38542   38543   38543
       0   38545   38546   38547   38546   38547   38547       0   38549   38550
   38551   38550   38551   38551       0   38553   38554   38555   38554   38555
   38555       0   38557   38558   38559   38558   38559   38559       0   38561
   38562   38563   38562   38563   38563       0   38565   38566   38567   38566
   38567   38567       0   38569   38570   38571   38570   38571   38571       0
   38573   38574   38575   38574   38575   38575       0   38577   38578   38579
   38578   38579   38579       0   38581   38582   38583   38582   38583   38583
       0   38585   38586   38587   38586   38587   38587       0   38589   38590
   38591   38590   38591   38591       0   38593   38594   38595   38594   38595
   38595       0   38597   38598   38599   38598   38599   38599       0   38601
   38602   38603   38602   38603   38603       0   38605   38606   38607   38606
   38607   38607       0   38609   38610   38611   38610   38611   38611       0
   38613   38614   38615   38614   38615   38615       0   38617   38618   38619
   38618   38619   38619       0   38621   38622   38623   38622   38623   38623
       0   38625   38626   38627   38626   38627   38627       0   38629   38630
   38631   38630   38631   38631       0   38633   38634   38635   38634   38635
   38635       0   38637   38638   38639   38638   38639   38639       0   38641
   38642   38643   38642   38643   38643       0   38645   38646   38647   38646
   38647   38647       0   38649   38650   38651   38650   38651   38651       0
   38653   38654   38655   38654   38655   38655       0   38657   38658   38659
   38658   38659   38659       0   38661   38662   38663   38662   38663   38663
       0   38665   38666   38667   38666   38667   38667       0   38669   38670
   38671   38670   38671   38671       0   38673   38674   38675   38674   38675
   38675       0   38677   38678   38679   38678   38679   38679       0   38681
   38682   38683   38682   38683   38683       0   38685   38686   38687   38686
   38687   38687       0   38689   38690   38691   38690   38691   38691       0
   38693   38694   38695   38694   38695   38695       0   38697   38698   38699
   38698   38699   38699       0   38701   38702   38703   38702   38703   38703
       0   38705   38706   38707   38706   38707   38707       0   38709   38710
   38711   38710   38711   38711       0   38713   38714   38715   38714   38715
   38715       0   38717   38718   38719   38718   38719   38719       0   38721
   38722   38723   38722   38723   38723       0   38725   38726   38727   38726
   38727   38727       0   38729   38730   38731   38730   38731   38731       0
   38733   38734   38735   38734   38735   38735       0   38737   38738   38739
   38738   38739   38739       0   38741   38742   38743   38742   38743   38743
       0   38745   38746   38747   38746   38747   38747       0   38749   38750
   38751   38750   38751   38751       0   38753   38754   38755   38754   38755
   38755       0   38757   38758   38759   38758   38759   38759       0   38761
   38762   38763   38762   38763   38763       0   38765   38766   38767   38766
   38767   38767       0   38769   38770   38771   38770   38771   38771       0
   38773   38774   38775   38774   38775   38775       0   38777   38778   38779
   38778   38779   38779       0   38781   38782   38783   38782   38783   38783
       0   38785   38786   38787   38786   38787   38787       0   38789   38790
   38791   38790   38791   38791       0   38793   38794   38795   38794   38795
   38795       0   38797   38798   38799   38798   38799   38799       0   38801
   38802   38803   38802   38803   38803       0   38805   38806   38807   38806
   38807   38807       0   38809   38810   38811   38810   38811   38811       0
   38813   38814   38815   38814   38815   38815       0   38817   38818   38819
   38818   38819   38819       0   38821   38822   38823   38822   38823   38823
       0   38825   38826   38827   38826   38827   38827       0   38829   38830
   38831   38830   38831   38831       0   38833   38834   38835   38834   38835
   38835       0   38837   38838   38839   38838   38839   38839       0   38841
   38842   38843   38842   38843   38843       0   38845   38846   38847   38846
   38847   38847       0   38849   38850   38851   38850   38851   38851       0
   38853   38854   38855   38854   38855   38855       0   38857   38858   38859
   38858   38859   38859       0   38861   38862   38863   38862   38863   38863
       0   38865   38866   38867   38866   38867   38867       0   38869   38870
   38871   38870   38871   38871       0   38873   38874   38875   38874   38875
   38875       0   38877   38878   38879   38878   38879   38879       0   38881
   38882   38883   38882   38883   38883       0   38885   38886   38887   38886
   38887   38887       0   38889   38890   38891   38890   38891   38891       0
   38893   38894   38895   38894   38895   38895       0   38897   38898   38899
   38898   38899   38899       0   38901   38902   38903   38902   38903   38903
       0   38905   38906   38907   38906   38907   38907       0   38909   38910
   38911   38910   38911   38911       0   38913   38914   38915   38914   38915
   38915       0   38917   38918   38919   38918   38919   38919       0   38921
   38922   38923   38922   38923   38923       0   38925   38926   38927   38926
   38927   38927       0   38929   38930   38931   38930   38931   38931       0
   38933   38934   38935   38934   38935   38935       0   38937   38938   38939
   38938   38939   38939       0   38941   38942   38943   38942   38943   38943
       0   38945   38946   38947   38946   38947   38947       0   38949   38950
   38951   38950   38951   38951       0   38953   38954   38955   38954   38955
   38955       0   38957   38958   38959   38958   38959   38959       0   38961
   38962   38963   38962   38963   38963       0   38965   38966   38967   38966
   38967   38967       0   38969   38970   38971   38970   38971   38971       0
   38973   38974   38975   38974   38975   38975       0   38977   38978   38979
   38978   38979   38979       0   38981   38982   38983   38982   38983   38983
       0   38985   38986   38987   38986   38987   38987       0   38989   38990
   38991   38990   38991   38991       0   38993   38994   38995   38994   38995
   38995       0   38997   38998   38999   38998   38999   38999       0   39001
   39002   39003   39002   39003   39003       0   39005   39006   39007   39006
   39007   39007       0   39009   39010   39011   39010   39011   39011       0
   39013   39014   39015   39014   39015   39015       0   39017   39018   39019
   39018   39019   39019       0   39021   39022   39023   39022   39023   39023
       0   39025   39026   39027   39026   39027   39027       0   39029   39030
   39031   39030   39031   39031       0   39033   39034   39035   39034   39035
   39035       0   39037   39038   39039   39038   39039   39039       0   39041
   39042   39043   39042   39043   39043       0   39045   39046   39047   39046
   39047   39047       0   39049   39050   39051   39050   39051   39051       0
   39053   39054   39055   39054   39055   39055       0   39057   39058   39059
   39058   39059   39059       0   39061   39062   39063   39062   39063   39063
       0   39065   39066   39067   39066   39067   39067       0   39069   39070
   39071   39070   39071   39071       0   39073   39074   39075   39074   39075
   39075       0   39077   39078   39079   39078   39079   39079       0   39081
   39082   39083   39082   39083   39083       0   39085   39086   39087   39086
   39087   39087       0   39089   39090   39091   39090   39091   39091       0
   39093   39094   39095   39094   39095   39095       0   39097   39098   39099
   39098   39099   39099       0   39101   39102   39103   39102   39103   39103
       0   39105   39106   39107   39106   39107   39107       0   39109   39110
   39111   39110   39111   39111       0   39113   39114   39115   39114   39115
   39115       0   39117   39118   39119   39118   39119   39119       0   39121
   39122   39123   39122   39123   39123       0   39125   39126   39127   39126
   39127   39127       0   39129   39130   39131   39130   39131   39131       0
   39133   39134   39135   39134   39135   39135       0   39137   39138   39139
   39138   39139   39139       0   39141   39142   39143   39142   39143   39143
       0   39145   39146   39147   39146   39147   39147       0   39149   39150
   39151   39150   39151   39151       0   39153   39154   39155   39154   39155
   39155       0   39157   39158   39159   39158   39159   39159       0   39161
   39162   39163   39162   39163   39163       0   39165   39166   39167   39166
   39167   39167       0   39169   39170   39171   39170   39171   39171       0
   39173   39174   39175   39174   39175   39175       0   39177   39178   39179
   39178   39179   39179       0   39181   39182   39183   39182   39183   39183
       0   39185   39186   39187   39186   39187   39187       0   39189   39190
   39191   39190   39191   39191       0   39193   39194   39195   39194   39195
   39195       0   39197   39198   39199   39198   39199   39199       0   39201
   39202   39203   39202   39203   39203       0   39205   39206   39207   39206
   39207   39207       0   39209   39210   39211   39210   39211   39211       0
   39213   39214   39215   39214   39215   39215       0   39217   39218   39219
   39218   39219   39219       0   39221   39222   39223   39222   39223   39223
       0   39225   39226   39227   39226   39227   39227       0   39229   39230
   39231   39230   39231   39231       0   39233   39234   39235   39234   39235
   39235       0   39237   39238   39239   39238   39239   39239       0   39241
   39242   39243   39242   39243   39243       0   39245   39246   39247   39246
   39247   39247       0   39249   39250   39251   39250   39251   39251       0
   39253   39254   39255   39254   39255   39255       0   39257   39258   39259
   39258   39259   39259       0   39261   39262   39263   39262   39263   39263
       0   39265   39266   39267   39266   39267   39267       0   39269   39270
   39271   39270   39271   39271       0   39273   39274   39275   39274   39275
   39275       0   39277   39278   39279   39278   39279   39279       0   39281
   39282   39283   39282   39283   39283       0   39285   39286   39287   39286
   39287   39287       0   39289   39290   39291   39290   39291   39291       0
   39293   39294   39295   39294   39295   39295       0   39297   39298   39299
   39298   39299   39299       0   39301   39302   39303   39302   39303   39303
       0   39305   39306   39307   39306   39307   39307       0   39309   39310
   39311   39310   39311   39311       0   39313   39314   39315   39314   39315
   39315       0   39317   39318   39319   39318   39319   39319       0   39321
   39322   39323   39322   39323   39323       0   39325   39326   39327   39326
   39327   39327       0   39329   39330   39331   39330   39331   39331       0
   39333   39334   39335   39334   39335   39335       0   39337   39338   39339
   39338   39339   39339       0   39341   39342   39343   39342   39343   39343
       0   39345   39346   39347   39346   39347   39347       0   39349   39350
   39351   39350   39351   39351       0   39353   39354   39355   39354   39355
   39355       0   39357   39358   39359   39358   39359   39359       0   39361
   39362   39363   39362   39363   39363       0   39365   39366   39367   39366
   39367   39367       0   39369   39370   39371   39370   39371   39371       0
   39373   39374   39375   39374   39375   39375       0   39377   39378   39379
   39378   39379   39379       0   39381   39382   39383   39382   39383   39383
       0   39385   39386   39387   39386   39387   39387       0   39389   39390
   39391   39390   39391   39391       0   39393   39394   39395   39394   39395
   39395       0   39397   39398   39399   39398   39399   39399       0   39401
   39402   39403   39402   39403   39403       0   39405   39406   39407   39406
   39407   39407       0   39409   39410   39411   39410   39411   39411       0
   39413   39414   39415   39414   39415   39415       0   39417   39418   39419
   39418   39419   39419       0   39421   39422   39423   39422   39423   39423
       0   39425   39426   39427   39426   39427   39427       0   39429   39430
   39431   39430   39431   39431       0   39433   39434   39435   39434   39435
   39435       0   39437   39438   39439   39438   39439   39439       0   39441
   39442   39443   39442   39443   39443       0   39445   39446   39447   39446
   39447   39447       0   39449   39450   39451   39450   39451   39451       0
   39453   39454   39455   39454   39455   39455       0   39457   39458   39459
   39458   39459   39459       0   39461   39462   39463   39462   39463   39463
       0   39465   39466   39467   39466   39467   39467       0   39469   39470
   39471   39470   39471   39471       0   39473   39474   39475   39474   39475
   39475       0   39477   39478   39479   39478   39479   39479       0   39481
   39482   39483   39482   39483   39483       0   39485   39486   39487   39486
   39487   39487       0   39489   39490   39491   39490   39491   39491       0
   39493   39494   39495   39494   39495   39495       0   39497   39498   39499
   39498   39499   39499       0   39501   39502   39503   39502   39503   39503
       0   39505   39506   39507   39506   39507   39507       0   39509   39510
   39511   39510   39511   39511       0   39513   39514   39515   39514   39515
   39515       0   39517   39518   39519   39518   39519   39519       0   39521
   39522   39523   39522   39523   39523       0   39525   39526   39527   39526
   39527   39527       0   39529   39530   39531   39530   39531   39531       0
   39533   39534   39535   39534   39535   39535       0   39537   39538   39539
   39538   39539   39539       0   39541   39542   39543   39542   39543   39543
       0   39545   39546   39547   39546   39547   39547       0   39549   39550
   39551   39550   39551   39551       0   39553   39554   39555   39554   39555
   39555       0   39557   39558   39559   39558   39559   39559       0   39561
   39562   39563   39562   39563   39563       0   39565   39566   39567   39566
   39567   39567       0   39569   39570   39571   39570   39571   39571       0
   39573   39574   39575   39574   39575   39575       0   39577   39578   39579
   39578   39579   39579       0   39581   39582   39583   39582   39583   39583
       0   39585   39586   39587   39586   39587   39587       0   39589   39590
   39591   39590   39591   39591       0   39593   39594   39595   39594   39595
   39595       0   39597   39598   39599   39598   39599   39599       0   39601
   39602   39603   39602   39603   39603       0   39605   39606   39607   39606
   39607   39607       0   39609   39610   39611   39610   39611   39611       0
   39613   39614   39615   39614   39615   39615       0   39617   39618   39619
   39618   39619   39619       0   39621   39622   39623   39622   39623   39623
       0   39625   39626   39627   39626   39627   39627       0   39629   39630
   39631   39630   39631   39631       0   39633   39634   39635   39634   39635
   39635       0   39637   39638   39639   39638   39639   39639       0   39641
   39642   39643   39642   39643   39643       0   39645   39646   39647   39646
   39647   39647       0   39649   39650   39651   39650   39651   39651       0
   39653   39654   39655   39654   39655   39655       0   39657   39658   39659
   39658   39659   39659       0   39661   39662   39663   39662   39663   39663
       0   39665   39666   39667   39666   39667   39667       0   39669   39670
   39671   39670   39671   39671       0   39673   39674   39675   39674   39675
   39675       0   39677   39678   39679   39678   39679   39679       0   39681
   39682   39683   39682   39683   39683       0   39685   39686   39687   39686
   39687   39687       0   39689   39690   39691   39690   39691   39691       0
   39693   39694   39695   39694   39695   39695       0   39697   39698   39699
   39698   39699   39699       0   39701   39702   39703   39702   39703   39703
       0   39705   39706   39707   39706   39707   39707       0   39709   39710
   39711   39710   39711   39711       0   39713   39714   39715   39714   39715
   39715       0   39717   39718   39719   39718   39719   39719       0   39721
   39722   39723   39722   39723   39723       0   39725   39726   39727   39726
   39727   39727       0   39729   39730   39731   39730   39731   39731       0
   39733   39734   39735   39734   39735   39735       0   39737   39738   39739
   39738   39739   39739       0   39741   39742   39743   39742   39743   39743
       0   39745   39746   39747   39746   39747   39747       0   39749   39750
   39751   39750   39751   39751       0   39753   39754   39755   39754   39755
   39755       0   39757   39758   39759   39758   39759   39759       0   39761
   39762   39763   39762   39763   39763       0   39765   39766   39767   39766
   39767   39767       0   39769   39770   39771   39770   39771   39771       0
   39773   39774   39775   39774   39775   39775       0   39777   39778   39779
   39778   39779   39779       0   39781   39782   39783   39782   39783   39783
       0   39785   39786   39787   39786   39787   39787       0   39789   39790
   39791   39790   39791   39791       0   39793   39794   39795   39794   39795
   39795       0   39797   39798   39799   39798   39799   39799       0   39801
   39802   39803   39802   39803   39803       0   39805   39806   39807   39806
   39807   39807       0   39809   39810   39811   39810   39811   39811       0
   39813   39814   39815   39814   39815   39815       0   39817   39818   39819
   39818   39819   39819       0   39821   39822   39823   39822   39823   39823
       0   39825   39826   39827   39826   39827   39827       0   39829   39830
   39831   39830   39831   39831       0   39833   39834   39835   39834   39835
   39835       0   39837   39838   39839   39838   39839   39839       0   39841
   39842   39843   39842   39843   39843       0   39845   39846   39847   39846
   39847   39847       0   39849   39850   39851   39850   39851   39851       0
   39853   39854   39855   39854   39855   39855       0   39857   39858   39859
   39858   39859   39859       0   39861   39862   39863   39862   39863   39863
       0   39865   39866   39867   39866   39867   39867       0   39869   39870
   39871   39870   39871   39871       0   39873   39874   39875   39874   39875
   39875       0   39877   39878   39879   39878   39879   39879       0   39881
   39882   39883   39882   39883   39883       0   39885   39886   39887   39886
   39887   39887       0   39889   39890   39891   39890   39891   39891       0
   39893   39894   39895   39894   39895   39895       0   39897   39898   39899
   39898   39899   39899       0   39901   39902   39903   39902   39903   39903
       0   39905   39906   39907   39906   39907   39907       0   39909   39910
   39911   39910   39911   39911       0   39913   39914   39915   39914   39915
   39915       0   39917   39918   39919   39918   39919   39919       0   39921
   39922   39923   39922   39923   39923       0   39925   39926   39927   39926
   39927   39927       0   39929   39930   39931   39930   39931   39931       0
   39933   39934   39935   39934   39935   39935       0   39937   39938   39939
   39938   39939   39939       0   39941   39942   39943   39942   39943   39943
       0   39945   39946   39947   39946   39947   39947       0   39949   39950
   39951   39950   39951   39951       0   39953   39954   39955   39954   39955
   39955       0   39957   39958   39959   39958   39959   39959       0   39961
   39962   39963   39962   39963   39963       0   39965   39966   39967   39966
   39967   39967       0   39969   39970   39971   39970   39971   39971       0
   39973   39974   39975   39974   39975   39975       0   39977   39978   39979
   39978   39979   39979       0   39981   39982   39983   39982   39983   39983
       0   39985   39986   39987   39986   39987   39987       0   39989   39990
   39991   39990   39991   39991       0   39993   39994   39995   39994   39995
   39995       0   39997   39998   39999   39998   39999   39999       0   40001
   40002   40003   40002   40003   40003       0   40005   40006   40007   40006
   40007   40007       0   40009   40010   40011   40010   40011   40011       0
   40013   40014   40015   40014   40015   40015       0   40017   40018   40019
   40018   40019   40019       0   40021   40022   40023   40022   40023   40023
       0   40025   40026   40027   40026   40027   40027       0   40029   40030
   40031   40030   40031   40031       0   40033   40034   40035   40034   40035
   40035       0   40037   40038   40039   40038   40039   40039       0   40041
   40042   40043   40042   40043   40043       0   40045   40046   40047   40046
   40047   40047       0   40049   40050   40051   40050   40051   40051       0
   40053   40054   40055   40054   40055   40055       0   40057   40058   40059
   40058   40059   40059       0   40061   40062   40063   40062   40063   40063
       0   40065   40066   40067   40066   40067   40067       0   40069   40070
   40071   40070   40071   40071       0   40073   40074   40075   40074   40075
   40075       0   40077   40078   40079   40078   40079   40079       0   40081
   40082   40083   40082   40083   40083       0   40085   40086   40087   40086
   40087   40087       0   40089   40090   40091   40090   40091   40091       0
   40093   40094   40095   40094   40095   40095       0   40097   40098   40099
   40098   40099   40099       0   40101   40102   40103   40102   40103   40103
       0   40105   40106   40107   40106   40107   40107       0   40109   40110
   40111   40110   40111   40111       0   40113   40114   40115   40114   40115
   40115       0   40117   40118   40119   40118   40119   40119       0   40121
   40122   40123   40122   40123   40123       0   40125   40126   40127   40126
   40127   40127       0   40129   40130   40131   40130   40131   40131       0
   40133   40134   40135   40134   40135   40135       0   40137   40138   40139
   40138   40139   40139       0   40141   40142   40143   40142   40143   40143
       0   40145   40146   40147   40146   40147   40147       0   40149   40150
   40151   40150   40151   40151       0   40153   40154   40155   40154   40155
   40155       0   40157   40158   40159   40158   40159   40159       0   40161
   40162   40163   40162   40163   40163       0   40165   40166   40167   40166
   40167   40167       0   40169   40170   40171   40170   40171   40171       0
   40173   40174   40175   40174   40175   40175       0   40177   40178   40179
   40178   40179   40179       0   40181   40182   40183   40182   40183   40183
       0   40185   40186   40187   40186   40187   40187       0   40189   40190
   40191   40190   40191   40191       0   40193   40194   40195   40194   40195
   40195       0   40197   40198   40199   40198   40199   40199       0   40201
   40202   40203   40202   40203   40203       0   40205   40206   40207   40206
   40207   40207       0   40209   40210   40211   40210   40211   40211       0
   40213   40214   40215   40214   40215   40215       0   40217   40218   40219
   40218   40219   40219       0   40221   40222   40223   40222   40223   40223
       0   40225   40226   40227   40226   40227   40227       0   40229   40230
   40231   40230   40231   40231       0   40233   40234   40235   40234   40235
   40235       0   40237   40238   40239   40238   40239   40239       0   40241
   40242   40243   40242   40243   40243       0   40245   40246   40247   40246
   40247   40247       0   40249   40250   40251   40250   40251   40251       0
   40253   40254   40255   40254   40255   40255       0   40257   40258   40259
   40258   40259   40259       0   40261   40262   40263   40262   40263   40263
       0   40265   40266   40267   40266   40267   40267       0   40269   40270
   40271   40270   40271   40271       0   40273   40274   40275   40274   40275
   40275       0   40277   40278   40279   40278   40279   40279       0   40281
   40282   40283   40282   40283   40283       0   40285   40286   40287   40286
   40287   40287       0   40289   40290   40291   40290   40291   40291       0
   40293   40294   40295   40294   40295   40295       0   40297   40298   40299
   40298   40299   40299       0   40301   40302   40303   40302   40303   40303
       0   40305   40306   40307   40306   40307   40307       0   40309   40310
   40311   40310   40311   40311       0   40313   40314   40315   40314   40315
   40315       0   40317   40318   40319   40318   40319   40319       0   40321
   40322   40323   40322   40323   40323       0   40325   40326   40327   40326
   40327   40327       0   40329   40330   40331   40330   40331   40331       0
   40333   40334   40335   40334   40335   40335       0   40337   40338   40339
   40338   40339   40339       0   40341   40342   40343   40342   40343   40343
       0   40345   40346   40347   40346   40347   40347       0   40349   40350
   40351   40350   40351   40351       0   40353   40354   40355   40354   40355
   40355       0   40357   40358   40359   40358   40359   40359       0   40361
   40362   40363   40362   40363   40363       0   40365   40366   40367   40366
   40367   40367       0   40369   40370   40371   40370   40371   40371       0
   40373   40374   40375   40374   40375   40375       0   40377   40378   40379
   40378   40379   40379       0   40381   40382   40383   40382   40383   40383
       0   40385   40386   40387   40386   40387   40387       0   40389   40390
   40391   40390   40391   40391       0   40393   40394   40395   40394   40395
   40395       0   40397   40398   40399   40398   40399   40399       0   40401
   40402   40403   40402   40403   40403       0   40405   40406   40407   40406
   40407   40407       0   40409   40410   40411   40410   40411   40411       0
   40413   40414   40415   40414   40415   40415       0   40417   40418   40419
   40418   40419   40419       0   40421   40422   40423   40422   40423   40423
       0   40425   40426   40427   40426   40427   40427       0   40429   40430
   40431   40430   40431   40431       0   40433   40434   40435   40434   40435
   40435       0   40437   40438   40439   40438   40439   40439       0   40441
   40442   40443   40442   40443   40443       0   40445   40446   40447   40446
   40447   40447       0   40449   40450   40451   40450   40451   40451       0
   40453   40454   40455   40454   40455   40455       0   40457   40458   40459
   40458   40459   40459       0   40461   40462   40463   40462   40463   40463
       0   40465   40466   40467   40466   40467   40467       0   40469   40470
   40471   40470   40471   40471       0   40473   40474   40475   40474   40475
   40475       0   40477   40478   40479   40478   40479   40479       0   40481
   40482   40483   40482   40483   40483       0   40485   40486   40487   40486
   40487   40487       0   40489   40490   40491   40490   40491   40491       0
   40493   40494   40495   40494   40495   40495       0   40497   40498   40499
   40498   40499   40499       0   40501   40502   40503   40502   40503   40503
       0   40505   40506   40507   40506   40507   40507       0   40509   40510
   40511   40510   40511   40511       0   40513   40514   40515   40514   40515
   40515       0   40517   40518   40519   40518   40519   40519       0   40521
   40522   40523   40522   40523   40523       0   40525   40526   40527   40526
   40527   40527       0   40529   40530   40531   40530   40531   40531       0
   40533   40534   40535   40534   40535   40535       0   40537   40538   40539
   40538   40539   40539       0   40541   40542   40543   40542   40543   40543
       0   40545   40546   40547   40546   40547   40547       0   40549   40550
   40551   40550   40551   40551       0   40553   40554   40555   40554   40555
   40555       0   40557   40558   40559   40558   40559   40559       0   40561
   40562   40563   40562   40563   40563       0   40565   40566   40567   40566
   40567   40567       0   40569   40570   40571   40570   40571   40571       0
   40573   40574   40575   40574   40575   40575       0   40577   40578   40579
   40578   40579   40579       0   40581   40582   40583   40582   40583   40583
       0   40585   40586   40587   40586   40587   40587       0   40589   40590
   40591   40590   40591   40591       0   40593   40594   40595   40594   40595
   40595       0   40597   40598   40599   40598   40599   40599       0   40601
   40602   40603   40602   40603   40603       0   40605   40606   40607   40606
   40607   40607       0   40609   40610   40611   40610   40611   40611       0
   40613   40614   40615   40614   40615   40615       0   40617   40618   40619
   40618   40619   40619       0   40621   40622   40623   40622   40623   40623
       0   40625   40626   40627   40626   40627   40627       0   40629   40630
   40631   40630   40631   40631       0   40633   40634   40635   40634   40635
   40635       0   40637   40638   40639   40638   40639   40639       0   40641
   40642   40643   40642   40643   40643       0   40645   40646   40647   40646
   40647   40647       0   40649   40650   40651   40650   40651   40651       0
   40653   40654   40655   40654   40655   40655       0   40657   40658   40659
   40658   40659   40659       0   40661   40662   40663   40662   40663   40663
       0   40665   40666   40667   40666   40667   40667       0   40669   40670
   40671   40670   40671   40671       0   40673   40674   40675   40674   40675
   40675       0   40677   40678   40679   40678   40679   40679       0   40681
   40682   40683   40682   40683   40683       0   40685   40686   40687   40686
   40687   40687       0   40689   40690   40691   40690   40691   40691       0
   40693   40694   40695   40694   40695   40695       0   40697   40698   40699
   40698   40699   40699       0   40701   40702   40703   40702   40703   40703
       0   40705   40706   40707   40706   40707   40707       0   40709   40710
   40711   40710   40711   40711       0   40713   40714   40715   40714   40715
   40715       0   40717   40718   40719   40718   40719   40719       0   40721
   40722   40723   40722   40723   40723       0   40725   40726   40727   40726
   40727   40727       0   40729   40730   40731   40730   40731   40731       0
   40733   40734   40735   40734   40735   40735       0   40737   40738   40739
   40738   40739   40739       0   40741   40742   40743   40742   40743   40743
       0   40745   40746   40747   40746   40747   40747       0   40749   40750
   40751   40750   40751   40751       0   40753   40754   40755   40754   40755
   40755       0   40757   40758   40759   40758   40759   40759       0   40761
   40762   40763   40762   40763   40763       0   40765   40766   40767   40766
   40767   40767       0   40769   40770   40771   40770   40771   40771       0
   40773   40774   40775   40774   40775   40775       0   40777   40778   40779
   40778   40779   40779       0   40781   40782   40783   40782   40783   40783
       0   40785   40786   40787   40786   40787   40787       0   40789   40790
   40791   40790   40791   40791       0   40793   40794   40795   40794   40795
   40795       0   40797   40798   40799   40798   40799   40799       0   40801
   40802   40803   40802   40803   40803       0   40805   40806   40807   40806
   40807   40807       0   40809   40810   40811   40810   40811   40811       0
   40813   40814   40815   40814   40815   40815       0   40817   40818   40819
   40818   40819   40819       0   40821   40822   40823   40822   40823   40823
       0   40825   40826   40827   40826   40827   40827       0   40829   40830
   40831   40830   40831   40831       0   40833   40834   40835   40834   40835
   40835       0   40837   40838   40839   40838   40839   40839       0   40841
   40842   40843   40842   40843   40843       0   40845   40846   40847   40846
   40847   40847       0   40849   40850   40851   40850   40851   40851       0
   40853   40854   40855   40854   40855   40855       0   40857   40858   40859
   40858   40859   40859       0   40861   40862   40863   40862   40863   40863
       0   40865   40866   40867   40866   40867   40867       0   40869   40870
   40871   40870   40871   40871       0   40873   40874   40875   40874   40875
   40875       0   40877   40878   40879   40878   40879   40879       0   40881
   40882   40883   40882   40883   40883       0   40885   40886   40887   40886
   40887   40887       0   40889   40890   40891   40890   40891   40891       0
   40893   40894   40895   40894   40895   40895       0   40897   40898   40899
   40898   40899   40899       0   40901   40902   40903   40902   40903   40903
       0   40905   40906   40907   40906   40907   40907       0   40909   40910
   40911   40910   40911   40911       0   40913   40914   40915   40914   40915
   40915       0   40917   40918   40919   40918   40919   40919       0   40921
   40922   40923   40922   40923   40923       0   40925   40926   40927   40926
   40927   40927       0   40929   40930   40931   40930   40931   40931       0
   40933   40934   40935   40934   40935   40935       0   40937   40938   40939
   40938   40939   40939       0   40941   40942   40943   40942   40943   40943
       0   40945   40946   40947   40946   40947   40947       0   40949   40950
   40951   40950   40951   40951       0   40953   40954   40955   40954   40955
   40955       0   40957   40958   40959   40958   40959   40959       0   40961
   40962   40963   40962   40963   40963       0   40965   40966   40967   40966
   40967   40967       0   40969   40970   40971   40970   40971   40971       0
   40973   40974   40975   40974   40975   40975       0   40977   40978   40979
   40978   40979   40979       0   40981   40982   40983   40982   40983   40983
       0   40985   40986   40987   40986   40987   40987       0   40989   40990
   40991   40990   40991   40991       0   40993   40994   40995   40994   40995
   40995       0   40997   40998   40999   40998   40999   40999       0   41001
   41002   41003   41002   41003   41003       0   41005   41006   41007   41006
   41007   41007       0   41009   41010   41011   41010   41011   41011       0
   41013   41014   41015   41014   41015   41015       0   41017   41018   41019
   41018   41019   41019       0   41021   41022   41023   41022   41023   41023
       0   41025   41026   41027   41026   41027   41027       0   41029   41030
   41031   41030   41031   41031       0   41033   41034   41035   41034   41035
   41035       0   41037   41038   41039   41038   41039   41039       0   41041
   41042   41043   41042   41043   41043       0   41045   41046   41047   41046
   41047   41047       0   41049   41050   41051   41050   41051   41051       0
   41053   41054   41055   41054   41055   41055       0   41057   41058   41059
   41058   41059   41059       0   41061   41062   41063   41062   41063   41063
       0   41065   41066   41067   41066   41067   41067       0   41069   41070
   41071   41070   41071   41071       0   41073   41074   41075   41074   41075
   41075       0   41077   41078   41079   41078   41079   41079       0   41081
   41082   41083   41082   41083   41083       0   41085   41086   41087   41086
   41087   41087       0   41089   41090   41091   41090   41091   41091       0
   41093   41094   41095   41094   41095   41095       0   41097   41098   41099
   41098   41099   41099       0   41101   41102   41103   41102   41103   41103
       0   41105   41106   41107   41106   41107   41107       0   41109   41110
   41111   41110   41111   41111       0   41113   41114   41115   41114   41115
   41115       0   41117   41118   41119   41118   41119   41119       0   41121
   41122   41123   41122   41123   41123       0   41125   41126   41127   41126
   41127   41127       0   41129   41130   41131   41130   41131   41131       0
   41133   41134   41135   41134   41135   41135       0   41137   41138   41139
   41138   41139   41139       0   41141   41142   41143   41142   41143   41143
       0   41145   41146   41147   41146   41147   41147       0   41149   41150
   41151   41150   41151   41151       0   41153   41154   41155   41154   41155
   41155       0   41157   41158   41159   41158   41159   41159       0   41161
   41162   41163   41162   41163   41163       0   41165   41166   41167   41166
   41167   41167       0   41169   41170   41171   41170   41171   41171       0
   41173   41174   41175   41174   41175   41175       0   41177   41178   41179
   41178   41179   41179       0   41181   41182   41183   41182   41183   41183
       0   41185   41186   41187   41186   41187   41187       0   41189   41190
   41191   41190   41191   41191       0   41193   41194   41195   41194   41195
   41195       0   41197   41198   41199   41198   41199   41199       0   41201
   41202   41203   41202   41203   41203       0   41205   41206   41207   41206
   41207   41207       0   41209   41210   41211   41210   41211   41211       0
   41213   41214   41215   41214   41215   41215       0   41217   41218   41219
   41218   41219   41219       0   41221   41222   41223   41222   41223   41223
       0   41225   41226   41227   41226   41227   41227       0   41229   41230
   41231   41230   41231   41231       0   41233   41234   41235   41234   41235
   41235       0   41237   41238   41239   41238   41239   41239       0   41241
   41242   41243   41242   41243   41243       0   41245   41246   41247   41246
   41247   41247       0   41249   41250   41251   41250   41251   41251       0
   41253   41254   41255   41254   41255   41255       0   41257   41258   41259
   41258   41259   41259       0   41261   41262   41263   41262   41263   41263
       0   41265   41266   41267   41266   41267   41267       0   41269   41270
   41271   41270   41271   41271       0   41273   41274   41275   41274   41275
   41275       0   41277   41278   41279   41278   41279   41279       0   41281
   41282   41283   41282   41283   41283       0   41285   41286   41287   41286
   41287   41287       0   41289   41290   41291   41290   41291   41291       0
   41293   41294   41295   41294   41295   41295       0   41297   41298   41299
   41298   41299   41299       0   41301   41302   41303   41302   41303   41303
       0   41305   41306   41307   41306   41307   41307       0   41309   41310
   41311   41310   41311   41311       0   41313   41314   41315   41314   41315
   41315       0   41317   41318   41319   41318   41319   41319       0   41321
   41322   41323   41322   41323   41323       0   41325   41326   41327   41326
   41327   41327       0   41329   41330   41331   41330   41331   41331       0
   41333   41334   41335   41334   41335   41335       0   41337   41338   41339
   41338   41339   41339       0   41341   41342   41343   41342   41343   41343
       0   41345   41346   41347   41346   41347   41347       0   41349   41350
   41351   41350   41351   41351       0   41353   41354   41355   41354   41355
   41355       0   41357   41358   41359   41358   41359   41359       0   41361
   41362   41363   41362   41363   41363       0   41365   41366   41367   41366
   41367   41367       0   41369   41370   41371   41370   41371   41371       0
   41373   41374   41375   41374   41375   41375       0   41377   41378   41379
   41378   41379   41379       0   41381   41382   41383   41382   41383   41383
       0   41385   41386   41387   41386   41387   41387       0   41389   41390
   41391   41390   41391   41391       0   41393   41394   41395   41394   41395
   41395       0   41397   41398   41399   41398   41399   41399       0   41401
   41402   41403   41402   41403   41403       0   41405   41406   41407   41406
   41407   41407       0   41409   41410   41411   41410   41411   41411       0
   41413   41414   41415   41414   41415   41415       0   41417   41418   41419
   41418   41419   41419       0   41421   41422   41423   41422   41423   41423
       0   41425   41426   41427   41426   41427   41427       0   41429   41430
   41431   41430   41431   41431       0   41433   41434   41435   41434   41435
   41435       0   41437   41438   41439   41438   41439   41439       0   41441
   41442   41443   41442   41443   41443       0   41445   41446   41447   41446
   41447   41447       0   41449   41450   41451   41450   41451   41451       0
   41453   41454   41455   41454   41455   41455       0   41457   41458   41459
   41458   41459   41459       0   41461   41462   41463   41462   41463   41463
       0   41465   41466   41467   41466   41467   41467       0   41469   41470
   41471   41470   41471   41471       0   41473   41474   41475   41474   41475
   41475       0   41477   41478   41479   41478   41479   41479       0   41481
   41482   41483   41482   41483   41483       0   41485   41486   41487   41486
   41487   41487       0   41489   41490   41491   41490   41491   41491       0
   41493   41494   41495   41494   41495   41495       0   41497   41498   41499
   41498   41499   41499       0   41501   41502   41503   41502   41503   41503
       0   41505   41506   41507   41506   41507   41507       0   41509   41510
   41511   41510   41511   41511       0   41513   41514   41515   41514   41515
   41515       0   41517   41518   41519   41518   41519   41519       0   41521
   41522   41523   41522   41523   41523       0   41525   41526   41527   41526
   41527   41527       0   41529   41530   41531   41530   41531   41531       0
   41533   41534   41535   41534   41535   41535       0   41537   41538   41539
   41538   41539   41539       0   41541   41542   41543   41542   41543   41543
       0   41545   41546   41547   41546   41547   41547       0   41549   41550
   41551   41550   41551   41551       0   41553   41554   41555   41554   41555
   41555       0   41557   41558   41559   41558   41559   41559       0   41561
   41562   41563   41562   41563   41563       0   41565   41566   41567   41566
   41567   41567       0   41569   41570   41571   41570   41571   41571       0
   41573   41574   41575   41574   41575   41575       0   41577   41578   41579
   41578   41579   41579       0   41581   41582   41583   41582   41583   41583
       0   41585   41586   41587   41586   41587   41587       0   41589   41590
   41591   41590   41591   41591       0   41593   41594   41595   41594   41595
   41595       0   41597   41598   41599   41598   41599   41599       0   41601
   41602   41603   41602   41603   41603       0   41605   41606   41607   41606
   41607   41607       0   41609   41610   41611   41610   41611   41611       0
   41613   41614   41615   41614   41615   41615       0   41617   41618   41619
   41618   41619   41619       0   41621   41622   41623   41622   41623   41623
       0   41625   41626   41627   41626   41627   41627       0   41629   41630
   41631   41630   41631   41631       0   41633   41634   41635   41634   41635
   41635       0   41637   41638   41639   41638   41639   41639       0   41641
   41642   41643   41642   41643   41643       0   41645   41646   41647   41646
   41647   41647       0   41649   41650   41651   41650   41651   41651       0
   41653   41654   41655   41654   41655   41655       0   41657   41658   41659
   41658   41659   41659       0   41661   41662   41663   41662   41663   41663
       0   41665   41666   41667   41666   41667   41667       0   41669   41670
   41671   41670   41671   41671       0   41673   41674   41675   41674   41675
   41675       0   41677   41678   41679   41678   41679   41679       0   41681
   41682   41683   41682   41683   41683       0   41685   41686   41687   41686
   41687   41687       0   41689   41690   41691   41690   41691   41691       0
   41693   41694   41695   41694   41695   41695       0   41697   41698   41699
   41698   41699   41699       0   41701   41702   41703   41702   41703   41703
       0   41705   41706   41707   41706   41707   41707       0   41709   41710
   41711   41710   41711   41711       0   41713   41714   41715   41714   41715
   41715       0   41717   41718   41719   41718   41719   41719       0   41721
   41722   41723   41722   41723   41723       0   41725   41726   41727   41726
   41727   41727       0   41729   41730   41731   41730   41731   41731       0
   41733   41734   41735   41734   41735   41735       0   41737   41738   41739
   41738   41739   41739       0   41741   41742   41743   41742   41743   41743
       0   41745   41746   41747   41746   41747   41747       0   41749   41750
   41751   41750   41751   41751       0   41753   41754   41755   41754   41755
   41755       0   41757   41758   41759   41758   41759   41759       0   41761
   41762   41763   41762   41763   41763       0   41765   41766   41767   41766
   41767   41767       0   41769   41770   41771   41770   41771   41771       0
   41773   41774   41775   41774   41775   41775       0   41777   41778   41779
   41778   41779   41779       0   41781   41782   41783   41782   41783   41783
       0   41785   41786   41787   41786   41787   41787       0   41789   41790
   41791   41790   41791   41791       0   41793   41794   41795   41794   41795
   41795       0   41797   41798   41799   41798   41799   41799       0   41801
   41802   41803   41802   41803   41803       0   41805   41806   41807   41806
   41807   41807       0   41809   41810   41811   41810   41811   41811       0
   41813   41814   41815   41814   41815   41815       0   41817   41818   41819
   41818   41819   41819       0   41821   41822   41823   41822   41823   41823
       0   41825   41826   41827   41826   41827   41827       0   41829   41830
   41831   41830   41831   41831       0   41833   41834   41835   41834   41835
   41835       0   41837   41838   41839   41838   41839   41839       0   41841
   41842   41843   41842   41843   41843       0   41845   41846   41847   41846
   41847   41847       0   41849   41850   41851   41850   41851   41851       0
   41853   41854   41855   41854   41855   41855       0   41857   41858   41859
   41858   41859   41859       0   41861   41862   41863   41862   41863   41863
       0   41865   41866   41867   41866   41867   41867       0   41869   41870
   41871   41870   41871   41871       0   41873   41874   41875   41874   41875
   41875       0   41877   41878   41879   41878   41879   41879       0   41881
   41882   41883   41882   41883   41883       0   41885   41886   41887   41886
   41887   41887       0   41889   41890   41891   41890   41891   41891       0
   41893   41894   41895   41894   41895   41895       0   41897   41898   41899
   41898   41899   41899       0   41901   41902   41903   41902   41903   41903
       0   41905   41906   41907   41906   41907   41907       0   41909   41910
   41911   41910   41911   41911       0   41913   41914   41915   41914   41915
   41915       0   41917   41918   41919   41918   41919   41919       0   41921
   41922   41923   41922   41923   41923       0   41925   41926   41927   41926
   41927   41927       0   41929   41930   41931   41930   41931   41931       0
   41933   41934   41935   41934   41935   41935       0   41937   41938   41939
   41938   41939   41939       0   41941   41942   41943   41942   41943   41943
       0   41945   41946   41947   41946   41947   41947       0   41949   41950
   41951   41950   41951   41951       0   41953   41954   41955   41954   41955
   41955       0   41957   41958   41959   41958   41959   41959       0   41961
   41962   41963   41962   41963   41963       0   41965   41966   41967   41966
   41967   41967       0   41969   41970   41971   41970   41971   41971       0
   41973   41974   41975   41974   41975   41975       0   41977   41978   41979
   41978   41979   41979       0   41981   41982   41983   41982   41983   41983
       0   41985   41986   41987   41986   41987   41987       0   41989   41990
   41991   41990   41991   41991       0   41993   41994   41995   41994   41995
   41995       0   41997   41998   41999   41998   41999   41999       0   42001
   42002   42003   42002   42003   42003       0   42005   42006   42007   42006
   42007   42007       0   42009   42010   42011   42010   42011   42011       0
   42013   42014   42015   42014   42015   42015       0   42017   42018   42019
   42018   42019   42019       0   42021   42022   42023   42022   42023   42023
       0   42025   42026   42027   42026   42027   42027       0   42029   42030
   42031   42030   42031   42031       0   42033   42034   42035   42034   42035
   42035       0   42037   42038   42039   42038   42039   42039       0   42041
   42042   42043   42042   42043   42043       0   42045   42046   42047   42046
   42047   42047       0   42049   42050   42051   42050   42051   42051       0
   42053   42054   42055   42054   42055   42055       0   42057   42058   42059
   42058   42059   42059       0   42061   42062   42063   42062   42063   42063
       0   42065   42066   42067   42066   42067   42067       0   42069   42070
   42071   42070   42071   42071       0   42073   42074   42075   42074   42075
   42075       0   42077   42078   42079   42078   42079   42079       0   42081
   42082   42083   42082   42083   42083       0   42085   42086   42087   42086
   42087   42087       0   42089   42090   42091   42090   42091   42091       0
   42093   42094   42095   42094   42095   42095       0   42097   42098   42099
   42098   42099   42099       0   42101   42102   42103   42102   42103   42103
       0   42105   42106   42107   42106   42107   42107       0   42109   42110
   42111   42110   42111   42111       0   42113   42114   42115   42114   42115
   42115       0   42117   42118   42119   42118   42119   42119       0   42121
   42122   42123   42122   42123   42123       0   42125   42126   42127   42126
   42127   42127       0   42129   42130   42131   42130   42131   42131       0
   42133   42134   42135   42134   42135   42135       0   42137   42138   42139
   42138   42139   42139       0   42141   42142   42143   42142   42143   42143
       0   42145   42146   42147   42146   42147   42147       0   42149   42150
   42151   42150   42151   42151       0   42153   42154   42155   42154   42155
   42155       0   42157   42158   42159   42158   42159   42159       0   42161
   42162   42163   42162   42163   42163       0   42165   42166   42167   42166
   42167   42167       0   42169   42170   42171   42170   42171   42171       0
   42173   42174   42175   42174   42175   42175       0   42177   42178   42179
   42178   42179   42179       0   42181   42182   42183   42182   42183   42183
       0   42185   42186   42187   42186   42187   42187       0   42189   42190
   42191   42190   42191   42191       0   42193   42194   42195   42194   42195
   42195       0   42197   42198   42199   42198   42199   42199       0   42201
   42202   42203   42202   42203   42203       0   42205   42206   42207   42206
   42207   42207       0   42209   42210   42211   42210   42211   42211       0
   42213   42214   42215   42214   42215   42215       0   42217   42218   42219
   42218   42219   42219       0   42221   42222   42223   42222   42223   42223
       0   42225   42226   42227   42226   42227   42227       0   42229   42230
   42231   42230   42231   42231       0   42233   42234   42235   42234   42235
   42235       0   42237   42238   42239   42238   42239   42239       0   42241
   42242   42243   42242   42243   42243       0   42245   42246   42247   42246
   42247   42247       0   42249   42250   42251   42250   42251   42251       0
   42253   42254   42255   42254   42255   42255       0   42257   42258   42259
   42258   42259   42259       0   42261   42262   42263   42262   42263   42263
       0   42265   42266   42267   42266   42267   42267       0   42269   42270
   42271   42270   42271   42271       0   42273   42274   42275   42274   42275
   42275       0   42277   42278   42279   42278   42279   42279       0   42281
   42282   42283   42282   42283   42283       0   42285   42286   42287   42286
   42287   42287       0   42289   42290   42291   42290   42291   42291       0
   42293   42294   42295   42294   42295   42295       0   42297   42298   42299
   42298   42299   42299       0   42301   42302   42303   42302   42303   42303
       0   42305   42306   42307   42306   42307   42307       0   42309   42310
   42311   42310   42311   42311       0   42313   42314   42315   42314   42315
   42315       0   42317   42318   42319   42318   42319   42319       0   42321
   42322   42323   42322   42323   42323       0   42325   42326   42327   42326
   42327   42327       0   42329   42330   42331   42330   42331   42331       0
   42333   42334   42335   42334   42335   42335       0   42337   42338   42339
   42338   42339   42339       0   42341   42342   42343   42342   42343   42343
       0   42345   42346   42347   42346   42347   42347       0   42349   42350
   42351   42350   42351   42351       0   42353   42354   42355   42354   42355
   42355       0   42357   42358   42359   42358   42359   42359       0   42361
   42362   42363   42362   42363   42363       0   42365   42366   42367   42366
   42367   42367       0   42369   42370   42371   42370   42371   42371       0
   42373   42374   42375   42374   42375   42375       0   42377   42378   42379
   42378   42379   42379       0   42381   42382   42383   42382   42383   42383
       0   42385   42386   42387   42386   42387   42387       0   42389   42390
   42391   42390   42391   42391       0   42393   42394   42395   42394   42395
   42395       0   42397   42398   42399   42398   42399   42399       0   42401
   42402   42403   42402   42403   42403       0   42405   42406   42407   42406
   42407   42407       0   42409   42410   42411   42410   42411   42411       0
   42413   42414   42415   42414   42415   42415       0   42417   42418   42419
   42418   42419   42419       0   42421   42422   42423   42422   42423   42423
       0   42425   42426   42427   42426   42427   42427       0   42429   42430
   42431   42430   42431   42431       0   42433   42434   42435   42434   42435
   42435       0   42437   42438   42439   42438   42439   42439       0   42441
   42442   42443   42442   42443   42443       0   42445   42446   42447   42446
   42447   42447       0   42449   42450   42451   42450   42451   42451       0
   42453   42454   42455   42454   42455   42455       0   42457   42458   42459
   42458   42459   42459       0   42461   42462   42463   42462   42463   42463
       0   42465   42466   42467   42466   42467   42467       0   42469   42470
   42471   42470   42471   42471       0   42473   42474   42475   42474   42475
   42475       0   42477   42478   42479   42478   42479   42479       0   42481
   42482   42483   42482   42483   42483       0   42485   42486   42487   42486
   42487   42487       0   42489   42490   42491   42490   42491   42491       0
   42493   42494   42495   42494   42495   42495       0   42497   42498   42499
   42498   42499   42499       0   42501   42502   42503   42502   42503   42503
       0   42505   42506   42507   42506   42507   42507       0   42509   42510
   42511   42510   42511   42511       0   42513   42514   42515   42514   42515
   42515       0   42517   42518   42519   42518   42519   42519       0   42521
   42522   42523   42522   42523   42523       0   42525   42526   42527   42526
   42527   42527       0   42529   42530   42531   42530   42531   42531       0
   42533   42534   42535   42534   42535   42535       0   42537   42538   42539
   42538   42539   42539       0   42541   42542   42543   42542   42543   42543
       0   42545   42546   42547   42546   42547   42547       0   42549   42550
   42551   42550   42551   42551       0   42553   42554   42555   42554   42555
   42555       0   42557   42558   42559   42558   42559   42559       0   42561
   42562   42563   42562   42563   42563       0   42565   42566   42567   42566
   42567   42567       0   42569   42570   42571   42570   42571   42571       0
   42573   42574   42575   42574   42575   42575       0   42577   42578   42579
   42578   42579   42579       0   42581   42582   42583   42582   42583   42583
       0   42585   42586   42587   42586   42587   42587       0   42589   42590
   42591   42590   42591   42591       0   42593   42594   42595   42594   42595
   42595       0   42597   42598   42599   42598   42599   42599       0   42601
   42602   42603   42602   42603   42603       0   42605   42606   42607   42606
   42607   42607       0   42609   42610   42611   42610   42611   42611       0
   42613   42614   42615   42614   42615   42615       0   42617   42618   42619
   42618   42619   42619       0   42621   42622   42623   42622   42623   42623
       0   42625   42626   42627   42626   42627   42627       0   42629   42630
   42631   42630   42631   42631       0   42633   42634   42635   42634   42635
   42635       0   42637   42638   42639   42638   42639   42639       0   42641
   42642   42643   42642   42643   42643       0   42645   42646   42647   42646
   42647   42647       0   42649   42650   42651   42650   42651   42651       0
   42653   42654   42655   42654   42655   42655       0   42657   42658   42659
   42658   42659   42659       0   42661   42662   42663   42662   42663   42663
       0   42665   42666   42667   42666   42667   42667       0   42669   42670
   42671   42670   42671   42671       0   42673   42674   42675   42674   42675
   42675       0   42677   42678   42679   42678   42679   42679       0   42681
   42682   42683   42682   42683   42683       0   42685   42686   42687   42686
   42687   42687       0   42689   42690   42691   42690   42691   42691       0
   42693   42694   42695   42694   42695   42695       0   42697   42698   42699
   42698   42699   42699       0   42701   42702   42703   42702   42703   42703
       0   42705   42706   42707   42706   42707   42707       0   42709   42710
   42711   42710   42711   42711       0   42713   42714   42715   42714   42715
   42715       0   42717   42718   42719   42718   42719   42719       0   42721
   42722   42723   42722   42723   42723       0   42725   42726   42727   42726
   42727   42727       0   42729   42730   42731   42730   42731   42731       0
   42733   42734   42735   42734   42735   42735       0   42737   42738   42739
   42738   42739   42739       0   42741   42742   42743   42742   42743   42743
       0   42745   42746   42747   42746   42747   42747       0   42749   42750
   42751   42750   42751   42751       0   42753   42754   42755   42754   42755
   42755       0   42757   42758   42759   42758   42759   42759       0   42761
   42762   42763   42762   42763   42763       0   42765   42766   42767   42766
   42767   42767       0   42769   42770   42771   42770   42771   42771       0
   42773   42774   42775   42774   42775   42775       0   42777   42778   42779
   42778   42779   42779       0   42781   42782   42783   42782   42783   42783
       0   42785   42786   42787   42786   42787   42787       0   42789   42790
   42791   42790   42791   42791       0   42793   42794   42795   42794   42795
   42795       0   42797   42798   42799   42798   42799   42799       0   42801
   42802   42803   42802   42803   42803       0   42805   42806   42807   42806
   42807   42807       0   42809   42810   42811   42810   42811   42811       0
   42813   42814   42815   42814   42815   42815       0   42817   42818   42819
   42818   42819   42819       0   42821   42822   42823   42822   42823   42823
       0   42825   42826   42827   42826   42827   42827       0   42829   42830
   42831   42830   42831   42831       0   42833   42834   42835   42834   42835
   42835       0   42837   42838   42839   42838   42839   42839       0   42841
   42842   42843   42842   42843   42843       0   42845   42846   42847   42846
   42847   42847       0   42849   42850   42851   42850   42851   42851       0
   42853   42854   42855   42854   42855   42855       0   42857   42858   42859
   42858   42859   42859       0   42861   42862   42863   42862   42863   42863
       0   42865   42866   42867   42866   42867   42867       0   42869   42870
   42871   42870   42871   42871       0   42873   42874   42875   42874   42875
   42875       0   42877   42878   42879   42878   42879   42879       0   42881
   42882   42883   42882   42883   42883       0   42885   42886   42887   42886
   42887   42887       0   42889   42890   42891   42890   42891   42891       0
   42893   42894   42895   42894   42895   42895       0   42897   42898   42899
   42898   42899   42899       0   42901   42902   42903   42902   42903   42903
       0   42905   42906   42907   42906   42907   42907       0   42909   42910
   42911   42910   42911   42911       0   42913   42914   42915   42914   42915
   42915       0   42917   42918   42919   42918   42919   42919       0   42921
   42922   42923   42922   42923   42923       0   42925   42926   42927   42926
   42927   42927       0   42929   42930   42931   42930   42931   42931       0
   42933   42934   42935   42934   42935   42935       0   42937   42938   42939
   42938   42939   42939       0   42941   42942   42943   42942   42943   42943
       0   42945   42946   42947   42946   42947   42947       0   42949   42950
   42951   42950   42951   42951       0   42953   42954   42955   42954   42955
   42955       0   42957   42958   42959   42958   42959   42959       0   42961
   42962   42963   42962   42963   42963       0   42965   42966   42967   42966
   42967   42967       0   42969   42970   42971   42970   42971   42971       0
   42973   42974   42975   42974   42975   42975       0   42977   42978   42979
   42978   42979   42979       0   42981   42982   42983   42982   42983   42983
       0   42985   42986   42987   42986   42987   42987       0   42989   42990
   42991   42990   42991   42991       0   42993   42994   42995   42994   42995
   42995       0   42997   42998   42999   42998   42999   42999       0   43001
   43002   43003   43002   43003   43003       0   43005   43006   43007   43006
   43007   43007       0   43009   43010   43011   43010   43011   43011       0
   43013   43014   43015   43014   43015   43015       0   43017   43018   43019
   43018   43019   43019       0   43021   43022   43023   43022   43023   43023
       0   43025   43026   43027   43026   43027   43027       0   43029   43030
   43031   43030   43031   43031       0   43033   43034   43035   43034   43035
   43035       0   43037   43038   43039   43038   43039   43039       0   43041
   43042   43043   43042   43043   43043       0   43045   43046   43047   43046
   43047   43047       0   43049   43050   43051   43050   43051   43051       0
   43053   43054   43055   43054   43055   43055       0   43057   43058   43059
   43058   43059   43059       0   43061   43062   43063   43062   43063   43063
       0   43065   43066   43067   43066   43067   43067       0   43069   43070
   43071   43070   43071   43071       0   43073   43074   43075   43074   43075
   43075       0   43077   43078   43079   43078   43079   43079       0   43081
   43082   43083   43082   43083   43083       0   43085   43086   43087   43086
   43087   43087       0   43089   43090   43091   43090   43091   43091       0
   43093   43094   43095   43094   43095   43095       0   43097   43098   43099
   43098   43099   43099       0   43101   43102   43103   43102   43103   43103
       0   43105   43106   43107   43106   43107   43107       0   43109   43110
   43111   43110   43111   43111       0   43113   43114   43115   43114   43115
   43115       0   43117   43118   43119   43118   43119   43119       0   43121
   43122   43123   43122   43123   43123       0   43125   43126   43127   43126
   43127   43127       0   43129   43130   43131   43130   43131   43131       0
   43133   43134   43135   43134   43135   43135       0   43137   43138   43139
   43138   43139   43139       0   43141   43142   43143   43142   43143   43143
       0   43145   43146   43147   43146   43147   43147       0   43149   43150
   43151   43150   43151   43151       0   43153   43154   43155   43154   43155
   43155       0   43157   43158   43159   43158   43159   43159       0   43161
   43162   43163   43162   43163   43163       0   43165   43166   43167   43166
   43167   43167       0   43169   43170   43171   43170   43171   43171       0
   43173   43174   43175   43174   43175   43175       0   43177   43178   43179
   43178   43179   43179       0   43181   43182   43183   43182   43183   43183
       0   43185   43186   43187   43186   43187   43187       0   43189   43190
   43191   43190   43191   43191       0   43193   43194   43195   43194   43195
   43195       0   43197   43198   43199   43198   43199   43199       0   43201
   43202   43203   43202   43203   43203       0   43205   43206   43207   43206
   43207   43207       0   43209   43210   43211   43210   43211   43211       0
   43213   43214   43215   43214   43215   43215       0   43217   43218   43219
   43218   43219   43219       0   43221   43222   43223   43222   43223   43223
       0   43225   43226   43227   43226   43227   43227       0   43229   43230
   43231   43230   43231   43231       0   43233   43234   43235   43234   43235
   43235       0   43237   43238   43239   43238   43239   43239       0   43241
   43242   43243   43242   43243   43243       0   43245   43246   43247   43246
   43247   43247       0   43249   43250   43251   43250   43251   43251       0
   43253   43254   43255   43254   43255   43255       0   43257   43258   43259
   43258   43259   43259       0   43261   43262   43263   43262   43263   43263
       0   43265   43266   43267   43266   43267   43267       0   43269   43270
   43271   43270   43271   43271       0   43273   43274   43275   43274   43275
   43275       0   43277   43278   43279   43278   43279   43279       0   43281
   43282   43283   43282   43283   43283       0   43285   43286   43287   43286
   43287   43287       0   43289   43290   43291   43290   43291   43291       0
   43293   43294   43295   43294   43295   43295       0   43297   43298   43299
   43298   43299   43299       0   43301   43302   43303   43302   43303   43303
       0   43305   43306   43307   43306   43307   43307       0   43309   43310
   43311   43310   43311   43311       0   43313   43314   43315   43314   43315
   43315       0   43317   43318   43319   43318   43319   43319       0   43321
   43322   43323   43322   43323   43323       0   43325   43326   43327   43326
   43327   43327       0   43329   43330   43331   43330   43331   43331       0
   43333   43334   43335   43334   43335   43335       0   43337   43338   43339
   43338   43339   43339       0   43341   43342   43343   43342   43343   43343
       0   43345   43346   43347   43346   43347   43347       0   43349   43350
   43351   43350   43351   43351       0   43353   43354   43355   43354   43355
   43355       0   43357   43358   43359   43358   43359   43359       0   43361
   43362   43363   43362   43363   43363       0   43365   43366   43367   43366
   43367   43367       0   43369   43370   43371   43370   43371   43371       0
   43373   43374   43375   43374   43375   43375       0   43377   43378   43379
   43378   43379   43379       0   43381   43382   43383   43382   43383   43383
       0   43385   43386   43387   43386   43387   43387       0   43389   43390
   43391   43390   43391   43391       0   43393   43394   43395   43394   43395
   43395       0   43397   43398   43399   43398   43399   43399       0   43401
   43402   43403   43402   43403   43403       0   43405   43406   43407   43406
   43407   43407       0   43409   43410   43411   43410   43411   43411       0
   43413   43414   43415   43414   43415   43415       0   43417   43418   43419
   43418   43419   43419       0   43421   43422   43423   43422   43423   43423
       0   43425   43426   43427   43426   43427   43427       0   43429   43430
   43431   43430   43431   43431       0   43433   43434   43435   43434   43435
   43435       0   43437   43438   43439   43438   43439   43439       0   43441
   43442   43443   43442   43443   43443       0   43445   43446   43447   43446
   43447   43447       0   43449   43450   43451   43450   43451   43451       0
   43453   43454   43455   43454   43455   43455       0   43457   43458   43459
   43458   43459   43459       0   43461   43462   43463   43462   43463   43463
       0   43465   43466   43467   43466   43467   43467       0   43469   43470
   43471   43470   43471   43471       0   43473   43474   43475   43474   43475
   43475       0   43477   43478   43479   43478   43479   43479       0   43481
   43482   43483   43482   43483   43483       0   43485   43486   43487   43486
   43487   43487       0   43489   43490   43491   43490   43491   43491       0
   43493   43494   43495   43494   43495   43495       0   43497   43498   43499
   43498   43499   43499       0   43501   43502   43503   43502   43503   43503
       0   43505   43506   43507   43506   43507   43507       0   43509   43510
   43511   43510   43511   43511       0   43513   43514   43515   43514   43515
   43515       0   43517   43518   43519   43518   43519   43519       0   43521
   43522   43523   43522   43523   43523       0   43525   43526   43527   43526
   43527   43527       0   43529   43530   43531   43530   43531   43531       0
   43533   43534   43535   43534   43535   43535       0   43537   43538   43539
   43538   43539   43539       0   43541   43542   43543   43542   43543   43543
       0   43545   43546   43547   43546   43547   43547       0   43549   43550
   43551   43550   43551   43551       0   43553   43554   43555   43554   43555
   43555       0   43557   43558   43559   43558   43559   43559       0   43561
   43562   43563   43562   43563   43563       0   43565   43566   43567   43566
   43567   43567       0   43569   43570   43571   43570   43571   43571       0
   43573   43574   43575   43574   43575   43575       0   43577   43578   43579
   43578   43579   43579       0   43581   43582   43583   43582   43583   43583
       0   43585   43586   43587   43586   43587   43587       0   43589   43590
   43591   43590   43591   43591       0   43593   43594   43595   43594   43595
   43595       0   43597   43598   43599   43598   43599   43599       0   43601
   43602   43603   43602   43603   43603       0   43605   43606   43607   43606
   43607   43607       0   43609   43610   43611   43610   43611   43611       0
   43613   43614   43615   43614   43615   43615       0   43617   43618   43619
   43618   43619   43619       0   43621   43622   43623   43622   43623   43623
       0   43625   43626   43627   43626   43627   43627       0   43629   43630
   43631   43630   43631   43631       0   43633   43634   43635   43634   43635
   43635       0   43637   43638   43639   43638   43639   43639       0   43641
   43642   43643   43642   43643   43643       0   43645   43646   43647   43646
   43647   43647       0   43649   43650   43651   43650   43651   43651       0
   43653   43654   43655   43654   43655   43655       0   43657   43658   43659
   43658   43659   43659       0   43661   43662   43663   43662   43663   43663
       0   43665   43666   43667   43666   43667   43667       0   43669   43670
   43671   43670   43671   43671       0   43673   43674   43675   43674   43675
   43675       0   43677   43678   43679   43678   43679   43679       0   43681
   43682   43683   43682   43683   43683       0   43685   43686   43687   43686
   43687   43687       0   43689   43690   43691   43690   43691   43691       0
   43693   43694   43695   43694   43695   43695       0   43697   43698   43699
   43698   43699   43699       0   43701   43702   43703   43702   43703   43703
       0   43705   43706   43707   43706   43707   43707       0   43709   43710
   43711   43710   43711   43711       0   43713   43714   43715   43714   43715
   43715       0   43717   43718   43719   43718   43719   43719       0   43721
   43722   43723   43722   43723   43723       0   43725   43726   43727   43726
   43727   43727       0   43729   43730   43731   43730   43731   43731       0
   43733   43734   43735   43734   43735   43735       0   43737   43738   43739
   43738   43739   43739       0   43741   43742   43743   43742   43743   43743
       0   43745   43746   43747   43746   43747   43747       0   43749   43750
   43751   43750   43751   43751       0   43753   43754   43755   43754   43755
   43755       0   43757   43758   43759   43758   43759   43759       0   43761
   43762   43763   43762   43763   43763       0   43765   43766   43767   43766
   43767   43767       0   43769   43770   43771   43770   43771   43771       0
   43773   43774   43775   43774   43775   43775       0   43777   43778   43779
   43778   43779   43779       0   43781   43782   43783   43782   43783   43783
       0   43785   43786   43787   43786   43787   43787       0   43789   43790
   43791   43790   43791   43791       0   43793   43794   43795   43794   43795
   43795       0   43797   43798   43799   43798   43799   43799       0   43801
   43802   43803   43802   43803   43803       0   43805   43806   43807   43806
   43807   43807       0   43809   43810   43811   43810   43811   43811       0
   43813   43814   43815   43814   43815   43815       0   43817   43818   43819
   43818   43819   43819       0   43821   43822   43823   43822   43823   43823
       0   43825   43826   43827   43826   43827   43827       0   43829   43830
   43831   43830   43831   43831       0   43833   43834   43835   43834   43835
   43835       0   43837   43838   43839   43838   43839   43839       0   43841
   43842   43843   43842   43843   43843       0   43845   43846   43847   43846
   43847   43847       0   43849   43850   43851   43850   43851   43851       0
   43853   43854   43855   43854   43855   43855       0   43857   43858   43859
   43858   43859   43859       0   43861   43862   43863   43862   43863   43863
       0   43865   43866   43867   43866   43867   43867       0   43869   43870
   43871   43870   43871   43871       0   43873   43874   43875   43874   43875
   43875       0   43877   43878   43879   43878   43879   43879       0   43881
   43882   43883   43882   43883   43883       0   43885   43886   43887   43886
   43887   43887       0   43889   43890   43891   43890   43891   43891       0
   43893   43894   43895   43894   43895   43895       0   43897   43898   43899
   43898   43899   43899       0   43901   43902   43903   43902   43903   43903
       0   43905   43906   43907   43906   43907   43907       0   43909   43910
   43911   43910   43911   43911       0   43913   43914   43915   43914   43915
   43915       0   43917   43918   43919   43918   43919   43919       0   43921
   43922   43923   43922   43923   43923       0   43925   43926   43927   43926
   43927   43927       0   43929   43930   43931   43930   43931   43931       0
   43933   43934   43935   43934   43935   43935       0   43937   43938   43939
   43938   43939   43939       0   43941   43942   43943   43942   43943   43943
       0   43945   43946   43947   43946   43947   43947       0   43949   43950
   43951   43950   43951   43951       0   43953   43954   43955   43954   43955
   43955       0   43957   43958   43959   43958   43959   43959       0   43961
   43962   43963   43962   43963   43963       0   43965   43966   43967   43966
   43967   43967       0   43969   43970   43971   43970   43971   43971       0
   43973   43974   43975   43974   43975   43975       0   43977   43978   43979
   43978   43979   43979       0   43981   43982   43983   43982   43983   43983
       0   43985   43986   43987   43986   43987   43987       0   43989   43990
   43991   43990   43991   43991       0   43993   43994   43995   43994   43995
   43995       0   43997   43998   43999   43998   43999   43999       0   44001
   44002   44003   44002   44003   44003       0   44005   44006   44007   44006
   44007   44007       0   44009   44010   44011   44010   44011   44011       0
   44013   44014   44015   44014   44015   44015       0   44017   44018   44019
   44018   44019   44019       0   44021   44022   44023   44022   44023   44023
       0   44025   44026   44027   44026   44027   44027       0   44029   44030
   44031   44030   44031   44031       0   44033   44034   44035   44034   44035
   44035       0   44037   44038   44039   44038   44039   44039       0   44041
   44042   44043   44042   44043   44043       0   44045   44046   44047   44046
   44047   44047       0   44049   44050   44051   44050   44051   44051       0
   44053   44054   44055   44054   44055   44055       0   44057   44058   44059
   44058   44059   44059       0   44061   44062   44063   44062   44063   44063
       0   44065   44066   44067   44066   44067   44067       0   44069   44070
   44071   44070   44071   44071       0   44073   44074   44075   44074   44075
   44075       0   44077   44078   44079   44078   44079   44079       0   44081
   44082   44083   44082   44083   44083       0   44085   44086   44087   44086
   44087   44087       0   44089   44090   44091   44090   44091   44091       0
   44093   44094   44095   44094   44095   44095       0   44097   44098   44099
   44098   44099   44099       0   44101   44102   44103   44102   44103   44103
       0   44105   44106   44107   44106   44107   44107       0   44109   44110
   44111   44110   44111   44111       0   44113   44114   44115   44114   44115
   44115       0   44117   44118   44119   44118   44119   44119       0   44121
   44122   44123   44122   44123   44123       0   44125   44126   44127   44126
   44127   44127       0   44129   44130   44131   44130   44131   44131       0
   44133   44134   44135   44134   44135   44135       0   44137   44138   44139
   44138   44139   44139       0   44141   44142   44143   44142   44143   44143
       0   44145   44146   44147   44146   44147   44147       0   44149   44150
   44151   44150   44151   44151       0   44153   44154   44155   44154   44155
   44155       0   44157   44158   44159   44158   44159   44159       0   44161
   44162   44163   44162   44163   44163       0   44165   44166   44167   44166
   44167   44167       0   44169   44170   44171   44170   44171   44171       0
   44173   44174   44175   44174   44175   44175       0   44177   44178   44179
   44178   44179   44179       0   44181   44182   44183   44182   44183   44183
       0   44185   44186   44187   44186   44187   44187       0   44189   44190
   44191   44190   44191   44191       0   44193   44194   44195   44194   44195
   44195       0   44197   44198   44199   44198   44199   44199       0   44201
   44202   44203   44202   44203   44203       0   44205   44206   44207   44206
   44207   44207       0   44209   44210   44211   44210   44211   44211       0
   44213   44214   44215   44214   44215   44215       0   44217   44218   44219
   44218   44219   44219       0   44221   44222   44223   44222   44223   44223
       0   44225   44226   44227   44226   44227   44227       0   44229   44230
   44231   44230   44231   44231       0   44233   44234   44235   44234   44235
   44235       0   44237   44238   44239   44238   44239   44239       0   44241
   44242   44243   44242   44243   44243       0   44245   44246   44247   44246
   44247   44247       0   44249   44250   44251   44250   44251   44251       0
   44253   44254   44255   44254   44255   44255       0   44257   44258   44259
   44258   44259   44259       0   44261   44262   44263   44262   44263   44263
       0   44265   44266   44267   44266   44267   44267       0   44269   44270
   44271   44270   44271   44271       0   44273   44274   44275   44274   44275
   44275       0   44277   44278   44279   44278   44279   44279       0   44281
   44282   44283   44282   44283   44283       0   44285   44286   44287   44286
   44287   44287       0   44289   44290   44291   44290   44291   44291       0
   44293   44294   44295   44294   44295   44295       0   44297   44298   44299
   44298   44299   44299       0   44301   44302   44303   44302   44303   44303
       0   44305   44306   44307   44306   44307   44307       0   44309   44310
   44311   44310   44311   44311       0   44313   44314   44315   44314   44315
   44315       0   44317   44318   44319   44318   44319   44319       0   44321
   44322   44323   44322   44323   44323       0   44325   44326   44327   44326
   44327   44327       0   44329   44330   44331   44330   44331   44331       0
   44333   44334   44335   44334   44335   44335       0   44337   44338   44339
   44338   44339   44339       0   44341   44342   44343   44342   44343   44343
       0   44345   44346   44347   44346   44347   44347       0   44349   44350
   44351   44350   44351   44351       0   44353   44354   44355   44354   44355
   44355       0   44357   44358   44359   44358   44359   44359       0   44361
   44362   44363   44362   44363   44363       0   44365   44366   44367   44366
   44367   44367       0   44369   44370   44371   44370   44371   44371       0
   44373   44374   44375   44374   44375   44375       0   44377   44378   44379
   44378   44379   44379       0   44381   44382   44383   44382   44383   44383
       0   44385   44386   44387   44386   44387   44387       0   44389   44390
   44391   44390   44391   44391       0   44393   44394   44395   44394   44395
   44395       0   44397   44398   44399   44398   44399   44399       0   44401
   44402   44403   44402   44403   44403       0   44405   44406   44407   44406
   44407   44407       0   44409   44410   44411   44410   44411   44411       0
   44413   44414   44415   44414   44415   44415       0   44417   44418   44419
   44418   44419   44419       0   44421   44422   44423   44422   44423   44423
       0   44425   44426   44427   44426   44427   44427       0   44429   44430
   44431   44430   44431   44431       0   44433   44434   44435   44434   44435
   44435       0   44437   44438   44439   44438   44439   44439       0   44441
   44442   44443   44442   44443   44443       0   44445   44446   44447   44446
   44447   44447       0   44449   44450   44451   44450   44451   44451       0
   44453   44454   44455   44454   44455   44455       0   44457   44458   44459
   44458   44459   44459       0   44461   44462   44463   44462   44463   44463
       0   44465   44466   44467   44466   44467   44467       0   44469   44470
   44471   44470   44471   44471       0   44473   44474   44475   44474   44475
   44475       0   44477   44478   44479   44478   44479   44479       0   44481
   44482   44483   44482   44483   44483       0   44485   44486   44487   44486
   44487   44487       0   44489   44490   44491   44490   44491   44491       0
   44493   44494   44495   44494   44495   44495       0   44497   44498   44499
   44498   44499   44499       0   44501   44502   44503   44502   44503   44503
       0   44505   44506   44507   44506   44507   44507       0   44509   44510
   44511   44510   44511   44511       0   44513   44514   44515   44514   44515
   44515       0   44517   44518   44519   44518   44519   44519       0   44521
   44522   44523   44522   44523   44523       0   44525   44526   44527   44526
   44527   44527       0   44529   44530   44531   44530   44531   44531       0
   44533   44534   44535   44534   44535   44535       0   44537   44538   44539
   44538   44539   44539       0   44541   44542   44543   44542   44543   44543
       0   44545   44546   44547   44546   44547   44547       0   44549   44550
   44551   44550   44551   44551       0   44553   44554   44555   44554   44555
   44555       0   44557   44558   44559   44558   44559   44559       0   44561
   44562   44563   44562   44563   44563       0   44565   44566   44567   44566
   44567   44567       0   44569   44570   44571   44570   44571   44571       0
   44573   44574   44575   44574   44575   44575       0   44577   44578   44579
   44578   44579   44579       0   44581   44582   44583   44582   44583   44583
       0   44585   44586   44587   44586   44587   44587       0   44589   44590
   44591   44590   44591   44591       0   44593   44594   44595   44594   44595
   44595       0   44597   44598   44599   44598   44599   44599       0   44601
   44602   44603   44602   44603   44603       0   44605   44606   44607   44606
   44607   44607       0   44609   44610   44611   44610   44611   44611       0
   44613   44614   44615   44614   44615   44615       0   44617   44618   44619
   44618   44619   44619       0   44621   44622   44623   44622   44623   44623
       0   44625   44626   44627   44626   44627   44627       0   44629   44630
   44631   44630   44631   44631       0   44633   44634   44635   44634   44635
   44635       0   44637   44638   44639   44638   44639   44639       0   44641
   44642   44643   44642   44643   44643       0   44645   44646   44647   44646
   44647   44647       0   44649   44650   44651   44650   44651   44651       0
   44653   44654   44655   44654   44655   44655       0   44657   44658   44659
   44658   44659   44659       0   44661   44662   44663   44662   44663   44663
       0   44665   44666   44667   44666   44667   44667       0   44669   44670
   44671   44670   44671   44671       0   44673   44674   44675   44674   44675
   44675       0   44677   44678   44679   44678   44679   44679       0   44681
   44682   44683   44682   44683   44683       0   44685   44686   44687   44686
   44687   44687       0   44689   44690   44691   44690   44691   44691       0
   44693   44694   44695   44694   44695   44695       0   44697   44698   44699
   44698   44699   44699       0   44701   44702   44703   44702   44703   44703
       0   44705   44706   44707   44706   44707   44707       0   44709   44710
   44711   44710   44711   44711       0   44713   44714   44715   44714   44715
   44715       0   44717   44718   44719   44718   44719   44719       0   44721
   44722   44723   44722   44723   44723       0   44725   44726   44727   44726
   44727   44727       0   44729   44730   44731   44730   44731   44731       0
   44733   44734   44735   44734   44735   44735       0   44737   44738   44739
   44738   44739   44739       0   44741   44742   44743   44742   44743   44743
       0   44745   44746   44747   44746   44747   44747       0   44749   44750
   44751   44750   44751   44751       0   44753   44754   44755   44754   44755
   44755       0   44757   44758   44759   44758   44759   44759       0   44761
   44762   44763   44762   44763   44763       0   44765   44766   44767   44766
   44767   44767       0   44769   44770   44771   44770   44771   44771       0
   44773   44774   44775   44774   44775   44775       0   44777   44778   44779
   44778   44779   44779       0   44781   44782   44783   44782   44783   44783
       0   44785   44786   44787   44786   44787   44787       0   44789   44790
   44791   44790   44791   44791       0   44793   44794   44795   44794   44795
   44795       0   44797   44798   44799   44798   44799   44799       0   44801
   44802   44803   44802   44803   44803       0   44805   44806   44807   44806
   44807   44807       0   44809   44810   44811   44810   44811   44811       0
   44813   44814   44815   44814   44815   44815       0   44817   44818   44819
   44818   44819   44819       0   44821   44822   44823   44822   44823   44823
       0   44825   44826   44827   44826   44827   44827       0   44829   44830
   44831   44830   44831   44831       0   44833   44834   44835   44834   44835
   44835       0   44837   44838   44839   44838   44839   44839       0   44841
   44842   44843   44842   44843   44843       0   44845   44846   44847   44846
   44847   44847       0   44849   44850   44851   44850   44851   44851       0
   44853   44854   44855   44854   44855   44855       0   44857   44858   44859
   44858   44859   44859       0   44861   44862   44863   44862   44863   44863
       0   44865   44866   44867   44866   44867   44867       0   44869   44870
   44871   44870   44871   44871       0   44873   44874   44875   44874   44875
   44875       0   44877   44878   44879   44878   44879   44879       0   44881
   44882   44883   44882   44883   44883       0   44885   44886   44887   44886
   44887   44887       0   44889   44890   44891   44890   44891   44891       0
   44893   44894   44895   44894   44895   44895       0   44897   44898   44899
   44898   44899   44899       0   44901   44902   44903   44902   44903   44903
       0   44905   44906   44907   44906   44907   44907       0   44909   44910
   44911   44910   44911   44911       0   44913   44914   44915   44914   44915
   44915       0   44917   44918   44919   44918   44919   44919       0   44921
   44922   44923   44922   44923   44923       0   44925   44926   44927   44926
   44927   44927       0   44929   44930   44931   44930   44931   44931       0
   44933   44934   44935   44934   44935   44935       0   44937   44938   44939
   44938   44939   44939       0   44941   44942   44943   44942   44943   44943
       0   44945   44946   44947   44946   44947   44947       0   44949   44950
   44951   44950   44951   44951       0   44953   44954   44955   44954   44955
   44955       0   44957   44958   44959   44958   44959   44959       0   44961
   44962   44963   44962   44963   44963       0   44965   44966   44967   44966
   44967   44967       0   44969   44970   44971   44970   44971   44971       0
   44973   44974   44975   44974   44975   44975       0   44977   44978   44979
   44978   44979   44979       0   44981   44982   44983   44982   44983   44983
       0   44985   44986   44987   44986   44987   44987       0   44989   44990
   44991   44990   44991   44991       0   44993   44994   44995   44994   44995
   44995       0   44997   44998   44999   44998   44999   44999       0   45001
   45002   45003   45002   45003   45003       0   45005   45006   45007   45006
   45007   45007       0   45009   45010   45011   45010   45011   45011       0
   45013   45014   45015   45014   45015   45015       0   45017   45018   45019
   45018   45019   45019       0   45021   45022   45023   45022   45023   45023
       0   45025   45026   45027   45026   45027   45027       0   45029   45030
   45031   45030   45031   45031       0   45033   45034   45035   45034   45035
   45035       0   45037   45038   45039   45038   45039   45039       0   45041
   45042   45043   45042   45043   45043       0   45045   45046   45047   45046
   45047   45047       0   45049   45050   45051   45050   45051   45051       0
   45053   45054   45055   45054   45055   45055       0   45057   45058   45059
   45058   45059   45059       0   45061   45062   45063   45062   45063   45063
       0   45065   45066   45067   45066   45067   45067       0   45069   45070
   45071   45070   45071   45071       0   45073   45074   45075   45074   45075
   45075       0   45077   45078   45079   45078   45079   45079       0   45081
   45082   45083   45082   45083   45083       0   45085   45086   45087   45086
   45087   45087       0   45089   45090   45091   45090   45091   45091       0
   45093   45094   45095   45094   45095   45095       0   45097   45098   45099
   45098   45099   45099       0   45101   45102   45103   45102   45103   45103
       0   45105   45106   45107   45106   45107   45107       0   45109   45110
   45111   45110   45111   45111       0   45113   45114   45115   45114   45115
   45115       0   45117   45118   45119   45118   45119   45119       0   45121
   45122   45123   45122   45123   45123       0   45125   45126   45127   45126
   45127   45127       0   45129   45130   45131   45130   45131   45131       0
   45133   45134   45135   45134   45135   45135       0   45137   45138   45139
   45138   45139   45139       0   45141   45142   45143   45142   45143   45143
       0   45145   45146   45147   45146   45147   45147       0   45149   45150
   45151   45150   45151   45151       0   45153   45154   45155   45154   45155
   45155       0   45157   45158   45159   45158   45159   45159       0   45161
   45162   45163   45162   45163   45163       0   45165   45166   45167   45166
   45167   45167       0   45169   45170   45171   45170   45171   45171       0
   45173   45174   45175   45174   45175   45175       0   45177   45178   45179
   45178   45179   45179       0   45181   45182   45183   45182   45183   45183
       0   45185   45186   45187   45186   45187   45187       0   45189   45190
   45191   45190   45191   45191       0   45193   45194   45195   45194   45195
   45195       0   45197   45198   45199   45198   45199   45199       0   45201
   45202   45203   45202   45203   45203       0   45205   45206   45207   45206
   45207   45207       0   45209   45210   45211   45210   45211   45211       0
   45213   45214   45215   45214   45215   45215       0   45217   45218   45219
   45218   45219   45219       0   45221   45222   45223   45222   45223   45223
       0   45225   45226   45227   45226   45227   45227       0   45229   45230
   45231   45230   45231   45231       0   45233   45234   45235   45234   45235
   45235       0   45237   45238   45239   45238   45239   45239       0   45241
   45242   45243   45242   45243   45243       0   45245   45246   45247   45246
   45247   45247       0   45249   45250   45251   45250   45251   45251       0
   45253   45254   45255   45254   45255   45255       0   45257   45258   45259
   45258   45259   45259       0   45261   45262   45263   45262   45263   45263
       0   45265   45266   45267   45266   45267   45267       0   45269   45270
   45271   45270   45271   45271       0   45273   45274   45275   45274   45275
   45275       0   45277   45278   45279   45278   45279   45279       0   45281
   45282   45283   45282   45283   45283       0   45285   45286   45287   45286
   45287   45287       0   45289   45290   45291   45290   45291   45291       0
   45293   45294   45295   45294   45295   45295       0   45297   45298   45299
   45298   45299   45299       0   45301   45302   45303   45302   45303   45303
       0   45305   45306   45307   45306   45307   45307       0   45309   45310
   45311   45310   45311   45311       0   45313   45314   45315   45314   45315
   45315       0   45317   45318   45319   45318   45319   45319       0   45321
   45322   45323   45322   45323   45323       0   45325   45326   45327   45326
   45327   45327       0   45329   45330   45331   45330   45331   45331       0
   45333   45334   45335   45334   45335   45335       0   45337   45338   45339
   45338   45339   45339       0   45341   45342   45343   45342   45343   45343
       0   45345   45346   45347   45346   45347   45347       0   45349   45350
   45351   45350   45351   45351       0   45353   45354   45355   45354   45355
   45355       0   45357   45358   45359   45358   45359   45359       0   45361
   45362   45363   45362   45363   45363       0   45365   45366   45367   45366
   45367   45367       0   45369   45370   45371   45370   45371   45371       0
   45373   45374   45375   45374   45375   45375       0   45377   45378   45379
   45378   45379   45379       0   45381   45382   45383   45382   45383   45383
       0   45385   45386   45387   45386   45387   45387       0   45389   45390
   45391   45390   45391   45391       0   45393   45394   45395   45394   45395
   45395       0   45397   45398   45399   45398   45399   45399       0   45401
   45402   45403   45402   45403   45403       0   45405   45406   45407   45406
   45407   45407       0   45409   45410   45411   45410   45411   45411       0
   45413   45414   45415   45414   45415   45415       0   45417   45418   45419
   45418   45419   45419       0   45421   45422   45423   45422   45423   45423
       0   45425   45426   45427   45426   45427   45427       0   45429   45430
   45431   45430   45431   45431       0   45433   45434   45435   45434   45435
   45435       0   45437   45438   45439   45438   45439   45439       0   45441
   45442   45443   45442   45443   45443       0   45445   45446   45447   45446
   45447   45447       0   45449   45450   45451   45450   45451   45451       0
   45453   45454   45455   45454   45455   45455       0   45457   45458   45459
   45458   45459   45459       0   45461   45462   45463   45462   45463   45463
       0   45465   45466   45467   45466   45467   45467       0   45469   45470
   45471   45470   45471   45471       0   45473   45474   45475   45474   45475
   45475       0   45477   45478   45479   45478   45479   45479       0   45481
   45482   45483   45482   45483   45483       0   45485   45486   45487   45486
   45487   45487       0   45489   45490   45491   45490   45491   45491       0
   45493   45494   45495   45494   45495   45495       0   45497   45498   45499
   45498   45499   45499       0   45501   45502   45503   45502   45503   45503
       0   45505   45506   45507   45506   45507   45507       0   45509   45510
   45511   45510   45511   45511       0   45513   45514   45515   45514   45515
   45515       0   45517   45518   45519   45518   45519   45519       0   45521
   45522   45523   45522   45523   45523       0   45525   45526   45527   45526
   45527   45527       0   45529   45530   45531   45530   45531   45531       0
   45533   45534   45535   45534   45535   45535       0   45537   45538   45539
   45538   45539   45539       0   45541   45542   45543   45542   45543   45543
       0   45545   45546   45547   45546   45547   45547       0   45549   45550
   45551   45550   45551   45551       0   45553   45554   45555   45554   45555
   45555       0   45557   45558   45559   45558   45559   45559       0   45561
   45562   45563   45562   45563   45563       0   45565   45566   45567   45566
   45567   45567       0   45569   45570   45571   45570   45571   45571       0
   45573   45574   45575   45574   45575   45575       0   45577   45578   45579
   45578   45579   45579       0   45581   45582   45583   45582   45583   45583
       0   45585   45586   45587   45586   45587   45587       0   45589   45590
   45591   45590   45591   45591       0   45593   45594   45595   45594   45595
   45595       0   45597   45598   45599   45598   45599   45599       0   45601
   45602   45603   45602   45603   45603       0   45605   45606   45607   45606
   45607   45607       0   45609   45610   45611   45610   45611   45611       0
   45613   45614   45615   45614   45615   45615       0   45617   45618   45619
   45618   45619   45619       0   45621   45622   45623   45622   45623   45623
       0   45625   45626   45627   45626   45627   45627       0   45629   45630
   45631   45630   45631   45631       0   45633   45634   45635   45634   45635
   45635       0   45637   45638   45639   45638   45639   45639       0   45641
   45642   45643   45642   45643   45643       0   45645   45646   45647   45646
   45647   45647       0   45649   45650   45651   45650   45651   45651       0
   45653   45654   45655   45654   45655   45655       0   45657   45658   45659
   45658   45659   45659       0   45661   45662   45663   45662   45663   45663
       0   45665   45666   45667   45666   45667   45667       0   45669   45670
   45671   45670   45671   45671       0   45673   45674   45675   45674   45675
   45675       0   45677   45678   45679   45678   45679   45679       0   45681
   45682   45683   45682   45683   45683       0   45685   45686   45687   45686
   45687   45687       0   45689   45690   45691   45690   45691   45691       0
   45693   45694   45695   45694   45695   45695       0   45697   45698   45699
   45698   45699   45699       0   45701   45702   45703   45702   45703   45703
       0   45705   45706   45707   45706   45707   45707       0   45709   45710
   45711   45710   45711   45711       0   45713   45714   45715   45714   45715
   45715       0   45717   45718   45719   45718   45719   45719       0   45721
   45722   45723   45722   45723   45723       0   45725   45726   45727   45726
   45727   45727       0   45729   45730   45731   45730   45731   45731       0
   45733   45734   45735   45734   45735   45735       0   45737   45738   45739
   45738   45739   45739       0   45741   45742   45743   45742   45743   45743
       0   45745   45746   45747   45746   45747   45747       0   45749   45750
   45751   45750   45751   45751       0   45753   45754   45755   45754   45755
   45755       0   45757   45758   45759   45758   45759   45759       0   45761
   45762   45763   45762   45763   45763       0   45765   45766   45767   45766
   45767   45767       0   45769   45770   45771   45770   45771   45771       0
   45773   45774   45775   45774   45775   45775       0   45777   45778   45779
   45778   45779   45779       0   45781   45782   45783   45782   45783   45783
       0   45785   45786   45787   45786   45787   45787       0   45789   45790
   45791   45790   45791   45791       0   45793   45794   45795   45794   45795
   45795       0   45797   45798   45799   45798   45799   45799       0   45801
   45802   45803   45802   45803   45803       0   45805   45806   45807   45806
   45807   45807       0   45809   45810   45811   45810   45811   45811       0
   45813   45814   45815   45814   45815   45815       0   45817   45818   45819
   45818   45819   45819       0   45821   45822   45823   45822   45823   45823
       0   45825   45826   45827   45826   45827   45827       0   45829   45830
   45831   45830   45831   45831       0   45833   45834   45835   45834   45835
   45835       0   45837   45838   45839   45838   45839   45839       0   45841
   45842   45843   45842   45843   45843       0   45845   45846   45847   45846
   45847   45847       0   45849   45850   45851   45850   45851   45851       0
   45853   45854   45855   45854   45855   45855       0   45857   45858   45859
   45858   45859   45859       0   45861   45862   45863   45862   45863   45863
       0   45865   45866   45867   45866   45867   45867       0   45869   45870
   45871   45870   45871   45871       0   45873   45874   45875   45874   45875
   45875       0   45877   45878   45879   45878   45879   45879       0   45881
   45882   45883   45882   45883   45883       0   45885   45886   45887   45886
   45887   45887       0   45889   45890   45891   45890   45891   45891       0
   45893   45894   45895   45894   45895   45895       0   45897   45898   45899
   45898   45899   45899       0   45901   45902   45903   45902   45903   45903
       0   45905   45906   45907   45906   45907   45907       0   45909   45910
   45911   45910   45911   45911       0   45913   45914   45915   45914   45915
   45915       0   45917   45918   45919   45918   45919   45919       0   45921
   45922   45923   45922   45923   45923       0   45925   45926   45927   45926
   45927   45927       0   45929   45930   45931   45930   45931   45931       0
   45933   45934   45935   45934   45935   45935       0   45937   45938   45939
   45938   45939   45939       0   45941   45942   45943   45942   45943   45943
       0   45945   45946   45947   45946   45947   45947       0   45949   45950
   45951   45950   45951   45951       0   45953   45954   45955   45954   45955
   45955       0   45957   45958   45959   45958   45959   45959       0   45961
   45962   45963   45962   45963   45963       0   45965   45966   45967   45966
   45967   45967       0   45969   45970   45971   45970   45971   45971       0
   45973   45974   45975   45974   45975   45975       0   45977   45978   45979
   45978   45979   45979       0   45981   45982   45983   45982   45983   45983
       0   45985   45986   45987   45986   45987   45987       0   45989   45990
   45991   45990   45991   45991       0   45993   45994   45995   45994   45995
   45995       0   45997   45998   45999   45998   45999   45999       0   46001
   46002   46003   46002   46003   46003       0   46005   46006   46007   46006
   46007   46007       0   46009   46010   46011   46010   46011   46011       0
   46013   46014   46015   46014   46015   46015       0   46017   46018   46019
   46018   46019   46019       0   46021   46022   46023   46022   46023   46023
       0   46025   46026   46027   46026   46027   46027       0   46029   46030
   46031   46030   46031   46031       0   46033   46034   46035   46034   46035
   46035       0   46037   46038   46039   46038   46039   46039       0   46041
   46042   46043   46042   46043   46043       0   46045   46046   46047   46046
   46047   46047       0   46049   46050   46051   46050   46051   46051       0
   46053   46054   46055   46054   46055   46055       0   46057   46058   46059
   46058   46059   46059       0   46061   46062   46063   46062   46063   46063
       0   46065   46066   46067   46066   46067   46067       0   46069   46070
   46071   46070   46071   46071       0   46073   46074   46075   46074   46075
   46075       0   46077   46078   46079   46078   46079   46079       0   46081
   46082   46083   46082   46083   46083       0   46085   46086   46087   46086
   46087   46087       0   46089   46090   46091   46090   46091   46091       0
   46093   46094   46095   46094   46095   46095       0   46097   46098   46099
   46098   46099   46099       0   46101   46102   46103   46102   46103   46103
       0   46105   46106   46107   46106   46107   46107       0   46109   46110
   46111   46110   46111   46111       0   46113   46114   46115   46114   46115
   46115       0   46117   46118   46119   46118   46119   46119       0   46121
   46122   46123   46122   46123   46123       0   46125   46126   46127   46126
   46127   46127       0   46129   46130   46131   46130   46131   46131       0
   46133   46134   46135   46134   46135   46135       0   46137   46138   46139
   46138   46139   46139       0   46141   46142   46143   46142   46143   46143
       0   46145   46146   46147   46146   46147   46147       0   46149   46150
   46151   46150   46151   46151       0   46153   46154   46155   46154   46155
   46155       0   46157   46158   46159   46158   46159   46159       0   46161
   46162   46163   46162   46163   46163       0   46165   46166   46167   46166
   46167   46167       0   46169   46170   46171   46170   46171   46171       0
   46173   46174   46175   46174   46175   46175       0   46177   46178   46179
   46178   46179   46179       0   46181   46182   46183   46182   46183   46183
       0   46185   46186   46187   46186   46187   46187       0   46189   46190
   46191   46190   46191   46191       0   46193   46194   46195   46194   46195
   46195       0   46197   46198   46199   46198   46199   46199       0   46201
   46202   46203   46202   46203   46203       0   46205   46206   46207   46206
   46207   46207       0   46209   46210   46211   46210   46211   46211       0
   46213   46214   46215   46214   46215   46215       0   46217   46218   46219
   46218   46219   46219       0   46221   46222   46223   46222   46223   46223
       0   46225   46226   46227   46226   46227   46227       0   46229   46230
   46231   46230   46231   46231       0   46233   46234   46235   46234   46235
   46235       0   46237   46238   46239   46238   46239   46239       0   46241
   46242   46243   46242   46243   46243       0   46245   46246   46247   46246
   46247   46247       0   46249   46250   46251   46250   46251   46251       0
   46253   46254   46255   46254   46255   46255       0   46257   46258   46259
   46258   46259   46259       0   46261   46262   46263   46262   46263   46263
       0   46265   46266   46267   46266   46267   46267       0   46269   46270
   46271   46270   46271   46271       0   46273   46274   46275   46274   46275
   46275       0   46277   46278   46279   46278   46279   46279       0   46281
   46282   46283   46282   46283   46283       0   46285   46286   46287   46286
   46287   46287       0   46289   46290   46291   46290   46291   46291       0
   46293   46294   46295   46294   46295   46295       0   46297   46298   46299
   46298   46299   46299       0   46301   46302   46303   46302   46303   46303
       0   46305   46306   46307   46306   46307   46307       0   46309   46310
   46311   46310   46311   46311       0   46313   46314   46315   46314   46315
   46315       0   46317   46318   46319   46318   46319   46319       0   46321
   46322   46323   46322   46323   46323       0   46325   46326   46327   46326
   46327   46327       0   46329   46330   46331   46330   46331   46331       0
   46333   46334   46335   46334   46335   46335       0   46337   46338   46339
   46338   46339   46339       0   46341   46342   46343   46342   46343   46343
       0   46345   46346   46347   46346   46347   46347       0   46349   46350
   46351   46350   46351   46351       0   46353   46354   46355   46354   46355
   46355       0   46357   46358   46359   46358   46359   46359       0   46361
   46362   46363   46362   46363   46363       0   46365   46366   46367   46366
   46367   46367       0   46369   46370   46371   46370   46371   46371       0
   46373   46374   46375   46374   46375   46375       0   46377   46378   46379
   46378   46379   46379       0   46381   46382   46383   46382   46383   46383
       0   46385   46386   46387   46386   46387   46387       0   46389   46390
   46391   46390   46391   46391       0   46393   46394   46395   46394   46395
   46395       0   46397   46398   46399   46398   46399   46399       0   46401
   46402   46403   46402   46403   46403       0   46405   46406   46407   46406
   46407   46407       0   46409   46410   46411   46410   46411   46411       0
   46413   46414   46415   46414   46415   46415       0   46417   46418   46419
   46418   46419   46419       0   46421   46422   46423   46422   46423   46423
       0   46425   46426   46427   46426   46427   46427       0   46429   46430
   46431   46430   46431   46431       0   46433   46434   46435   46434   46435
   46435       0   46437   46438   46439   46438   46439   46439       0   46441
   46442   46443   46442   46443   46443       0   46445   46446   46447   46446
   46447   46447       0   46449   46450   46451   46450   46451   46451       0
   46453   46454   46455   46454   46455   46455       0   46457   46458   46459
   46458   46459   46459       0   46461   46462   46463   46462   46463   46463
       0   46465   46466   46467   46466   46467   46467       0   46469   46470
   46471   46470   46471   46471       0   46473   46474   46475   46474   46475
   46475       0   46477   46478   46479   46478   46479   46479       0   46481
   46482   46483   46482   46483   46483       0   46485   46486   46487   46486
   46487   46487       0   46489   46490   46491   46490   46491   46491       0
   46493   46494   46495   46494   46495   46495       0   46497   46498   46499
   46498   46499   46499       0   46501   46502   46503   46502   46503   46503
       0   46505   46506   46507   46506   46507   46507       0   46509   46510
   46511   46510   46511   46511       0   46513   46514   46515   46514   46515
   46515       0   46517   46518   46519   46518   46519   46519       0   46521
   46522   46523   46522   46523   46523       0   46525   46526   46527   46526
   46527   46527       0   46529   46530   46531   46530   46531   46531       0
   46533   46534   46535   46534   46535   46535       0   46537   46538   46539
   46538   46539   46539       0   46541   46542   46543   46542   46543   46543
       0   46545   46546   46547   46546   46547   46547       0   46549   46550
   46551   46550   46551   46551       0   46553   46554   46555   46554   46555
   46555       0   46557   46558   46559   46558   46559   46559       0   46561
   46562   46563   46562   46563   46563       0   46565   46566   46567   46566
   46567   46567       0   46569   46570   46571   46570   46571   46571       0
   46573   46574   46575   46574   46575   46575       0   46577   46578   46579
   46578   46579   46579       0   46581   46582   46583   46582   46583   46583
       0   46585   46586   46587   46586   46587   46587       0   46589   46590
   46591   46590   46591   46591       0   46593   46594   46595   46594   46595
   46595       0   46597   46598   46599   46598   46599   46599       0   46601
   46602   46603   46602   46603   46603       0   46605   46606   46607   46606
   46607   46607       0   46609   46610   46611   46610   46611   46611       0
   46613   46614   46615   46614   46615   46615       0   46617   46618   46619
   46618   46619   46619       0   46621   46622   46623   46622   46623   46623
       0   46625   46626   46627   46626   46627   46627       0   46629   46630
   46631   46630   46631   46631       0   46633   46634   46635   46634   46635
   46635       0   46637   46638   46639   46638   46639   46639       0   46641
   46642   46643   46642   46643   46643       0   46645   46646   46647   46646
   46647   46647       0   46649   46650   46651   46650   46651   46651       0
   46653   46654   46655   46654   46655   46655       0   46657   46658   46659
   46658   46659   46659       0   46661   46662   46663   46662   46663   46663
       0   46665   46666   46667   46666   46667   46667       0   46669   46670
   46671   46670   46671   46671       0   46673   46674   46675   46674   46675
   46675       0   46677   46678   46679   46678   46679   46679       0   46681
   46682   46683   46682   46683   46683       0   46685   46686   46687   46686
   46687   46687       0   46689   46690   46691   46690   46691   46691       0
   46693   46694   46695   46694   46695   46695       0   46697   46698   46699
   46698   46699   46699       0   46701   46702   46703   46702   46703   46703
       0   46705   46706   46707   46706   46707   46707       0   46709   46710
   46711   46710   46711   46711       0   46713   46714   46715   46714   46715
   46715       0   46717   46718   46719   46718   46719   46719       0   46721
   46722   46723   46722   46723   46723       0   46725   46726   46727   46726
   46727   46727       0   46729   46730   46731   46730   46731   46731       0
   46733   46734   46735   46734   46735   46735       0   46737   46738   46739
   46738   46739   46739       0   46741   46742   46743   46742   46743   46743
       0   46745   46746   46747   46746   46747   46747       0   46749   46750
   46751   46750   46751   46751       0   46753   46754   46755   46754   46755
   46755       0   46757   46758   46759   46758   46759   46759       0   46761
   46762   46763   46762   46763   46763       0   46765   46766   46767   46766
   46767   46767       0   46769   46770   46771   46770   46771   46771       0
   46773   46774   46775   46774   46775   46775       0   46777   46778   46779
   46778   46779   46779       0   46781   46782   46783   46782   46783   46783
       0   46785   46786   46787   46786   46787   46787       0   46789   46790
   46791   46790   46791   46791       0   46793   46794   46795   46794   46795
   46795       0   46797   46798   46799   46798   46799   46799       0   46801
   46802   46803   46802   46803   46803       0   46805   46806   46807   46806
   46807   46807       0   46809   46810   46811   46810   46811   46811       0
   46813   46814   46815   46814   46815   46815       0   46817   46818   46819
   46818   46819   46819       0   46821   46822   46823   46822   46823   46823
       0   46825   46826   46827   46826   46827   46827       0   46829   46830
   46831   46830   46831   46831       0   46833   46834   46835   46834   46835
   46835       0   46837   46838   46839   46838   46839   46839       0   46841
   46842   46843   46842   46843   46843       0   46845   46846   46847   46846
   46847   46847       0   46849   46850   46851   46850   46851   46851       0
   46853   46854   46855   46854   46855   46855       0   46857   46858   46859
   46858   46859   46859       0   46861   46862   46863   46862   46863   46863
       0   46865   46866   46867   46866   46867   46867       0   46869   46870
   46871   46870   46871   46871       0   46873   46874   46875   46874   46875
   46875       0   46877   46878   46879   46878   46879   46879       0   46881
   46882   46883   46882   46883   46883       0   46885   46886   46887   46886
   46887   46887       0   46889   46890   46891   46890   46891   46891       0
   46893   46894   46895   46894   46895   46895       0   46897   46898   46899
   46898   46899   46899       0   46901   46902   46903   46902   46903   46903
       0   46905   46906   46907   46906   46907   46907       0   46909   46910
   46911   46910   46911   46911       0   46913   46914   46915   46914   46915
   46915       0   46917   46918   46919   46918   46919   46919       0   46921
   46922   46923   46922   46923   46923       0   46925   46926   46927   46926
   46927   46927       0   46929   46930   46931   46930   46931   46931       0
   46933   46934   46935   46934   46935   46935       0   46937   46938   46939
   46938   46939   46939       0   46941   46942   46943   46942   46943   46943
       0   46945   46946   46947   46946   46947   46947       0   46949   46950
   46951   46950   46951   46951       0   46953   46954   46955   46954   46955
   46955       0   46957   46958   46959   46958   46959   46959       0   46961
   46962   46963   46962   46963   46963       0   46965   46966   46967   46966
   46967   46967       0   46969   46970   46971   46970   46971   46971       0
   46973   46974   46975   46974   46975   46975       0   46977   46978   46979
   46978   46979   46979       0   46981   46982   46983   46982   46983   46983
       0   46985   46986   46987   46986   46987   46987       0   46989   46990
   46991   46990   46991   46991       0   46993   46994   46995   46994   46995
   46995       0   46997   46998   46999   46998   46999   46999       0   47001
   47002   47003   47002   47003   47003       0   47005   47006   47007   47006
   47007   47007       0   47009   47010   47011   47010   47011   47011       0
   47013   47014   47015   47014   47015   47015       0   47017   47018   47019
   47018   47019   47019       0   47021   47022   47023   47022   47023   47023
       0   47025   47026   47027   47026   47027   47027       0   47029   47030
   47031   47030   47031   47031       0   47033   47034   47035   47034   47035
   47035       0   47037   47038   47039   47038   47039   47039       0   47041
   47042   47043   47042   47043   47043       0   47045   47046   47047   47046
   47047   47047       0   47049   47050   47051   47050   47051   47051       0
   47053   47054   47055   47054   47055   47055       0   47057   47058   47059
   47058   47059   47059       0   47061   47062   47063   47062   47063   47063
       0   47065   47066   47067   47066   47067   47067       0   47069   47070
   47071   47070   47071   47071       0   47073   47074   47075   47074   47075
   47075       0   47077   47078   47079   47078   47079   47079       0   47081
   47082   47083   47082   47083   47083       0   47085   47086   47087   47086
   47087   47087       0   47089   47090   47091   47090   47091   47091       0
   47093   47094   47095   47094   47095   47095       0   47097   47098   47099
   47098   47099   47099       0   47101   47102   47103   47102   47103   47103
       0   47105   47106   47107   47106   47107   47107       0   47109   47110
   47111   47110   47111   47111       0   47113   47114   47115   47114   47115
   47115       0   47117   47118   47119   47118   47119   47119       0   47121
   47122   47123   47122   47123   47123       0   47125   47126   47127   47126
   47127   47127       0   47129   47130   47131   47130   47131   47131       0
   47133   47134   47135   47134   47135   47135       0   47137   47138   47139
   47138   47139   47139       0   47141   47142   47143   47142   47143   47143
       0   47145   47146   47147   47146   47147   47147       0   47149   47150
   47151   47150   47151   47151       0   47153   47154   47155   47154   47155
   47155       0   47157   47158   47159   47158   47159   47159       0   47161
   47162   47163   47162   47163   47163       0   47165   47166   47167   47166
   47167   47167       0   47169   47170   47171   47170   47171   47171       0
   47173   47174   47175   47174   47175   47175       0   47177   47178   47179
   47178   47179   47179       0   47181   47182   47183   47182   47183   47183
       0   47185   47186   47187   47186   47187   47187       0   47189   47190
   47191   47190   47191   47191       0   47193   47194   47195   47194   47195
   47195       0   47197   47198   47199   47198   47199   47199       0   47201
   47202   47203   47202   47203   47203       0   47205   47206   47207   47206
   47207   47207       0   47209   47210   47211   47210   47211   47211       0
   47213   47214   47215   47214   47215   47215       0   47217   47218   47219
   47218   47219   47219       0   47221   47222   47223   47222   47223   47223
       0   47225   47226   47227   47226   47227   47227       0   47229   47230
   47231   47230   47231   47231       0   47233   47234   47235   47234   47235
   47235       0   47237   47238   47239   47238   47239   47239       0   47241
   47242   47243   47242   47243   47243       0   47245   47246   47247   47246
   47247   47247       0   47249   47250   47251   47250   47251   47251       0
   47253   47254   47255   47254   47255   47255       0   47257   47258   47259
   47258   47259   47259       0   47261   47262   47263   47262   47263   47263
       0   47265   47266   47267   47266   47267   47267       0   47269   47270
   47271   47270   47271   47271       0   47273   47274   47275   47274   47275
   47275       0   47277   47278   47279   47278   47279   47279       0   47281
   47282   47283   47282   47283   47283       0   47285   47286   47287   47286
   47287   47287       0   47289   47290   47291   47290   47291   47291       0
   47293   47294   47295   47294   47295   47295       0   47297   47298   47299
   47298   47299   47299       0   47301   47302   47303   47302   47303   47303
       0   47305   47306   47307   47306   47307   47307       0   47309   47310
   47311   47310   47311   47311       0   47313   47314   47315   47314   47315
   47315       0   47317   47318   47319   47318   47319   47319       0   47321
   47322   47323   47322   47323   47323       0   47325   47326   47327   47326
   47327   47327       0   47329   47330   47331   47330   47331   47331       0
   47333   47334   47335   47334   47335   47335       0   47337   47338   47339
   47338   47339   47339       0   47341   47342   47343   47342   47343   47343
       0   47345   47346   47347   47346   47347   47347       0   47349   47350
   47351   47350   47351   47351       0   47353   47354   47355   47354   47355
   47355       0   47357   47358   47359   47358   47359   47359       0   47361
   47362   47363   47362   47363   47363       0   47365   47366   47367   47366
   47367   47367       0   47369   47370   47371   47370   47371   47371       0
   47373   47374   47375   47374   47375   47375       0   47377   47378   47379
   47378   47379   47379       0   47381   47382   47383   47382   47383   47383
       0   47385   47386   47387   47386   47387   47387       0   47389   47390
   47391   47390   47391   47391       0   47393   47394   47395   47394   47395
   47395       0   47397   47398   47399   47398   47399   47399       0   47401
   47402   47403   47402   47403   47403       0   47405   47406   47407   47406
   47407   47407       0   47409   47410   47411   47410   47411   47411       0
   47413   47414   47415   47414   47415   47415       0   47417   47418   47419
   47418   47419   47419       0   47421   47422   47423   47422   47423   47423
       0   47425   47426   47427   47426   47427   47427       0   47429   47430
   47431   47430   47431   47431       0   47433   47434   47435   47434   47435
   47435       0   47437   47438   47439   47438   47439   47439       0   47441
   47442   47443   47442   47443   47443       0   47445   47446   47447   47446
   47447   47447       0   47449   47450   47451   47450   47451   47451       0
   47453   47454   47455   47454   47455   47455       0   47457   47458   47459
   47458   47459   47459       0   47461   47462   47463   47462   47463   47463
       0   47465   47466   47467   47466   47467   47467       0   47469   47470
   47471   47470   47471   47471       0   47473   47474   47475   47474   47475
   47475       0   47477   47478   47479   47478   47479   47479       0   47481
   47482   47483   47482   47483   47483       0   47485   47486   47487   47486
   47487   47487       0   47489   47490   47491   47490   47491   47491       0
   47493   47494   47495   47494   47495   47495       0   47497   47498   47499
   47498   47499   47499       0   47501   47502   47503   47502   47503   47503
       0   47505   47506   47507   47506   47507   47507       0   47509   47510
   47511   47510   47511   47511       0   47513   47514   47515   47514   47515
   47515       0   47517   47518   47519   47518   47519   47519       0   47521
   47522   47523   47522   47523   47523       0   47525   47526   47527   47526
   47527   47527       0   47529   47530   47531   47530   47531   47531       0
   47533   47534   47535   47534   47535   47535       0   47537   47538   47539
   47538   47539   47539       0   47541   47542   47543   47542   47543   47543
       0   47545   47546   47547   47546   47547   47547       0   47549   47550
   47551   47550   47551   47551       0   47553   47554   47555   47554   47555
   47555       0   47557   47558   47559   47558   47559   47559       0   47561
   47562   47563   47562   47563   47563       0   47565   47566   47567   47566
   47567   47567       0   47569   47570   47571   47570   47571   47571       0
   47573   47574   47575   47574   47575   47575       0   47577   47578   47579
   47578   47579   47579       0   47581   47582   47583   47582   47583   47583
       0   47585   47586   47587   47586   47587   47587       0   47589   47590
   47591   47590   47591   47591       0   47593   47594   47595   47594   47595
   47595       0   47597   47598   47599   47598   47599   47599       0   47601
   47602   47603   47602   47603   47603       0   47605   47606   47607   47606
   47607   47607       0   47609   47610   47611   47610   47611   47611       0
   47613   47614   47615   47614   47615   47615       0   47617   47618   47619
   47618   47619   47619       0   47621   47622   47623   47622   47623   47623
       0   47625   47626   47627   47626   47627   47627       0   47629   47630
   47631   47630   47631   47631       0   47633   47634   47635   47634   47635
   47635       0   47637   47638   47639   47638   47639   47639       0   47641
   47642   47643   47642   47643   47643       0   47645   47646   47647   47646
   47647   47647       0   47649   47650   47651   47650   47651   47651       0
   47653   47654   47655   47654   47655   47655       0   47657   47658   47659
   47658   47659   47659       0   47661   47662   47663   47662   47663   47663
       0   47665   47666   47667   47666   47667   47667       0   47669   47670
   47671   47670   47671   47671       0   47673   47674   47675   47674   47675
   47675       0   47677   47678   47679   47678   47679   47679       0   47681
   47682   47683   47682   47683   47683       0   47685   47686   47687   47686
   47687   47687       0   47689   47690   47691   47690   47691   47691       0
   47693   47694   47695   47694   47695   47695       0   47697   47698   47699
   47698   47699   47699       0   47701   47702   47703   47702   47703   47703
       0   47705   47706   47707   47706   47707   47707       0   47709   47710
   47711   47710   47711   47711       0   47713   47714   47715   47714   47715
   47715       0   47717   47718   47719   47718   47719   47719       0   47721
   47722   47723   47722   47723   47723       0   47725   47726   47727   47726
   47727   47727       0   47729   47730   47731   47730   47731   47731       0
   47733   47734   47735   47734   47735   47735       0   47737   47738   47739
   47738   47739   47739       0   47741   47742   47743   47742   47743   47743
       0   47745   47746   47747   47746   47747   47747       0   47749   47750
   47751   47750   47751   47751       0   47753   47754   47755   47754   47755
   47755       0   47757   47758   47759   47758   47759   47759       0   47761
   47762   47763   47762   47763   47763       0   47765   47766   47767   47766
   47767   47767       0   47769   47770   47771   47770   47771   47771       0
   47773   47774   47775   47774   47775   47775       0   47777   47778   47779
   47778   47779   47779       0   47781   47782   47783   47782   47783   47783
       0   47785   47786   47787   47786   47787   47787       0   47789   47790
   47791   47790   47791   47791       0   47793   47794   47795   47794   47795
   47795       0   47797   47798   47799   47798   47799   47799       0   47801
   47802   47803   47802   47803   47803       0   47805   47806   47807   47806
   47807   47807       0   47809   47810   47811   47810   47811   47811       0
   47813   47814   47815   47814   47815   47815       0   47817   47818   47819
   47818   47819   47819       0   47821   47822   47823   47822   47823   47823
       0   47825   47826   47827   47826   47827   47827       0   47829   47830
   47831   47830   47831   47831       0   47833   47834   47835   47834   47835
   47835       0   47837   47838   47839   47838   47839   47839       0   47841
   47842   47843   47842   47843   47843       0   47845   47846   47847   47846
   47847   47847       0   47849   47850   47851   47850   47851   47851       0
   47853   47854   47855   47854   47855   47855       0   47857   47858   47859
   47858   47859   47859       0   47861   47862   47863   47862   47863   47863
       0   47865   47866   47867   47866   47867   47867       0   47869   47870
   47871   47870   47871   47871       0   47873   47874   47875   47874   47875
   47875       0   47877   47878   47879   47878   47879   47879       0   47881
   47882   47883   47882   47883   47883       0   47885   47886   47887   47886
   47887   47887       0   47889   47890   47891   47890   47891   47891       0
   47893   47894   47895   47894   47895   47895       0   47897   47898   47899
   47898   47899   47899       0   47901   47902   47903   47902   47903   47903
       0   47905   47906   47907   47906   47907   47907       0   47909   47910
   47911   47910   47911   47911       0   47913   47914   47915   47914   47915
   47915       0   47917   47918   47919   47918   47919   47919       0   47921
   47922   47923   47922   47923   47923       0   47925   47926   47927   47926
   47927   47927       0   47929   47930   47931   47930   47931   47931       0
   47933   47934   47935   47934   47935   47935       0   47937   47938   47939
   47938   47939   47939       0   47941   47942   47943   47942   47943   47943
       0   47945   47946   47947   47946   47947   47947       0   47949   47950
   47951   47950   47951   47951       0   47953   47954   47955   47954   47955
   47955       0   47957   47958   47959   47958   47959   47959       0   47961
   47962   47963   47962   47963   47963       0   47965   47966   47967   47966
   47967   47967       0   47969   47970   47971   47970   47971   47971       0
   47973   47974   47975   47974   47975   47975       0   47977   47978   47979
   47978   47979   47979       0   47981   47982   47983   47982   47983   47983
       0   47985   47986   47987   47986   47987   47987       0   47989   47990
   47991   47990   47991   47991       0   47993   47994   47995   47994   47995
   47995       0   47997   47998   47999   47998   47999   47999       0   48001
   48002   48003   48002   48003   48003       0   48005   48006   48007   48006
   48007   48007       0   48009   48010   48011   48010   48011   48011       0
   48013   48014   48015   48014   48015   48015       0   48017   48018   48019
   48018   48019   48019       0   48021   48022   48023   48022   48023   48023
       0   48025   48026   48027   48026   48027   48027       0   48029   48030
   48031   48030   48031   48031       0   48033   48034   48035   48034   48035
   48035       0   48037   48038   48039   48038   48039   48039       0   48041
   48042   48043   48042   48043   48043       0   48045   48046   48047   48046
   48047   48047       0   48049   48050   48051   48050   48051   48051       0
   48053   48054   48055   48054   48055   48055       0   48057   48058   48059
   48058   48059   48059       0   48061   48062   48063   48062   48063   48063
       0   48065   48066   48067   48066   48067   48067       0   48069   48070
   48071   48070   48071   48071       0   48073   48074   48075   48074   48075
   48075       0   48077   48078   48079   48078   48079   48079       0   48081
   48082   48083   48082   48083   48083       0   48085   48086   48087   48086
   48087   48087       0   48089   48090   48091   48090   48091   48091       0
   48093   48094   48095   48094   48095   48095       0   48097   48098   48099
   48098   48099   48099       0   48101   48102   48103   48102   48103   48103
       0   48105   48106   48107   48106   48107   48107       0   48109   48110
   48111   48110   48111   48111       0   48113   48114   48115   48114   48115
   48115       0   48117   48118   48119   48118   48119   48119       0   48121
   48122   48123   48122   48123   48123       0   48125   48126   48127   48126
   48127   48127       0   48129   48130   48131   48130   48131   48131       0
   48133   48134   48135   48134   48135   48135       0   48137   48138   48139
   48138   48139   48139       0   48141   48142   48143   48142   48143   48143
       0   48145   48146   48147   48146   48147   48147       0   48149   48150
   48151   48150   48151   48151       0   48153   48154   48155   48154   48155
   48155       0   48157   48158   48159   48158   48159   48159       0   48161
   48162   48163   48162   48163   48163       0   48165   48166   48167   48166
   48167   48167       0   48169   48170   48171   48170   48171   48171       0
   48173   48174   48175   48174   48175   48175       0   48177   48178   48179
   48178   48179   48179       0   48181   48182   48183   48182   48183   48183
       0   48185   48186   48187   48186   48187   48187       0   48189   48190
   48191   48190   48191   48191       0   48193   48194   48195   48194   48195
   48195       0   48197   48198   48199   48198   48199   48199       0   48201
   48202   48203   48202   48203   48203       0   48205   48206   48207   48206
   48207   48207       0   48209   48210   48211   48210   48211   48211       0
   48213   48214   48215   48214   48215   48215       0   48217   48218   48219
   48218   48219   48219       0   48221   48222   48223   48222   48223   48223
       0   48225   48226   48227   48226   48227   48227       0   48229   48230
   48231   48230   48231   48231       0   48233   48234   48235   48234   48235
   48235       0   48237   48238   48239   48238   48239   48239       0   48241
   48242   48243   48242   48243   48243       0   48245   48246   48247   48246
   48247   48247       0   48249   48250   48251   48250   48251   48251       0
   48253   48254   48255   48254   48255   48255       0   48257   48258   48259
   48258   48259   48259       0   48261   48262   48263   48262   48263   48263
       0   48265   48266   48267   48266   48267   48267       0   48269   48270
   48271   48270   48271   48271       0   48273   48274   48275   48274   48275
   48275       0   48277   48278   48279   48278   48279   48279       0   48281
   48282   48283   48282   48283   48283       0   48285   48286   48287   48286
   48287   48287       0   48289   48290   48291   48290   48291   48291       0
   48293   48294   48295   48294   48295   48295       0   48297   48298   48299
   48298   48299   48299       0   48301   48302   48303   48302   48303   48303
       0   48305   48306   48307   48306   48307   48307       0   48309   48310
   48311   48310   48311   48311       0   48313   48314   48315   48314   48315
   48315       0   48317   48318   48319   48318   48319   48319       0   48321
   48322   48323   48322   48323   48323       0   48325   48326   48327   48326
   48327   48327       0   48329   48330   48331   48330   48331   48331       0
   48333   48334   48335   48334   48335   48335       0   48337   48338   48339
   48338   48339   48339       0   48341   48342   48343   48342   48343   48343
       0   48345   48346   48347   48346   48347   48347       0   48349   48350
   48351   48350   48351   48351       0   48353   48354   48355   48354   48355
   48355       0   48357   48358   48359   48358   48359   48359       0   48361
   48362   48363   48362   48363   48363       0   48365   48366   48367   48366
   48367   48367       0   48369   48370   48371   48370   48371   48371       0
   48373   48374   48375   48374   48375   48375       0   48377   48378   48379
   48378   48379   48379       0   48381   48382   48383   48382   48383   48383
       0   48385   48386   48387   48386   48387   48387       0   48389   48390
   48391   48390   48391   48391       0   48393   48394   48395   48394   48395
   48395       0   48397   48398   48399   48398   48399   48399       0   48401
   48402   48403   48402   48403   48403       0   48405   48406   48407   48406
   48407   48407       0   48409   48410   48411   48410   48411   48411       0
   48413   48414   48415   48414   48415   48415       0   48417   48418   48419
   48418   48419   48419       0   48421   48422   48423   48422   48423   48423
       0   48425   48426   48427   48426   48427   48427       0   48429   48430
   48431   48430   48431   48431       0   48433   48434   48435   48434   48435
   48435       0   48437   48438   48439   48438   48439   48439       0   48441
   48442   48443   48442   48443   48443       0   48445   48446   48447   48446
   48447   48447       0   48449   48450   48451   48450   48451   48451       0
   48453   48454   48455   48454   48455   48455       0   48457   48458   48459
   48458   48459   48459       0   48461   48462   48463   48462   48463   48463
       0   48465   48466   48467   48466   48467   48467       0   48469   48470
   48471   48470   48471   48471       0   48473   48474   48475   48474   48475
   48475       0   48477   48478   48479   48478   48479   48479       0   48481
   48482   48483   48482   48483   48483       0   48485   48486   48487   48486
   48487   48487       0   48489   48490   48491   48490   48491   48491       0
%FLAG HBOND_ACOEF                                                               
%FORMAT(5E16.8)                                                                 
  0.00000000E+00
%FLAG HBOND_BCOEF                                                               
%FORMAT(5E16.8)                                                                 
  0.00000000E+00
%FLAG HBCUT                                                                     
%FORMAT(5E16.8)                                                                 
  0.00000000E+00
%FLAG AMBER_ATOM_TYPE                                                           
%FORMAT(20a4)                                                                   
HC  CT  HC  HC  C   O   N   H   XC  H1  CT  HC  HC  C*  CW  H4  NA  H   CN  CA  
HA  CA  HA  CA  HA  CA  HA  CB  C   O   N   H   XC  H1  3C  HC  CT  HC  HC  HC  
CT  HC  HC  HC  C   O   N   H   XC  H1  3C  H1  CT  HC  HC  HC  OH  HO  C   O   
N   H   XC  H1  CT  HC  HC  CC  NA  H   CR  H5  NB  CV  H4  C   O   N   H   XC  
H1  C8  HC  HC  C8  HC  HC  C8  H1  H1  N2  H   CA  N2  H   H   N2  H   H   C   
O   C   O   CX  CU  CU  CU  CU  CM  CM  CU  N   HC  HC  HC  HC  HC  HC  HC  HC  
HC  HA  HA  HC  HC  H   N   H   XC  H1  CT  HC  HC  HC  C   O   N   H   XC  H1  
H1  C   O   N   H   XC  H1  2C  HC  HC  3C  HC  CT  HC  HC  HC  CT  HC  HC  HC  
C   O   C   O   CX  CU  CU  CU  N   HC  HC  HC  HC  HC  HC  HC  H   N   H   XC  
H1  2C  H1  H1  OH  HO  C   O   N   H   XC  H1  C8  HC  HC  C8  HC  HC  C8  H1  
H1  N2  H   CA  N2  H   H   N2  H   H   C   O   N   H   XC  H1  2C  H1  H1  OH  
HO  C   O   N   H   XC  H1  H1  C   O   N   H   XC  H1  H1  C   O   N   H   XC  
H1  3C  HC  CT  HC  HC  HC  CT  HC  HC  HC  C   O   N   H   XC  H1  3C  HC  CT  
HC  HC  HC  CT  HC  HC  HC  C   O   N   H   XC  H1  C8  HC  HC  C8  HC  HC  C8  
HC  HC  C8  HP  HP  N3  H   H   H   C   O   N   H   XC  H1  2C  HC  HC  C   O   
N   H   H   C   O   N   H   XC  H1  2C  HC  HC  C   O   N   H   H   C   O   N   
H   XC  H1  CT  HC  HC  CA  CA  HA  CA  HA  CA  HA  CA  HA  CA  HA  C   O   N   
H   XC  H1  3C  HC  CT  HC  HC  HC  CT  HC  HC  HC  C   O   N   CT  H1  H1  CT  
HC  HC  CT  HC  HC  XC  H1  C   O   N   H   XC  H1  3C  H1  CT  HC  HC  HC  OH  
HO  C   O   N   H   XC  H1  2C  HC  HC  CO  O2  O2  C   O   N   H   XC  H1  3C  
HC  CT  HC  HC  HC  CT  HC  HC  HC  C   O   N   H   XC  H1  H1  C   O   N   CT  
H1  H1  CT  HC  HC  CT  HC  HC  XC  H1  C   O   N   H   XC  H1  CT  HC  HC  CA  
CA  HA  CA  HA  CA  HA  CA  HA  CA  HA  C   O   N   H   XC  H1  CT  HC  HC  HC  
C   O   N   H   XC  H1  CT  HC  HC  CA  CA  HA  CA  HA  CA  HA  CA  HA  CA  HA  
C   O   N   H   H   Na+ Na+ Na+ Na+ Na+ Na+ Na+ Na+ Na+ Na+ Na+ Na+ Na+ Na+ Na+ 
Na+ Na+ Na+ Na+ Na+ Cl- Cl- Cl- Cl- Cl- Cl- Cl- Cl- Cl- Cl- Cl- Cl- Cl- Cl- Cl- 
Cl- Cl- Cl- Cl- Cl- Cl- Cl- OW  HW  HW  EP  OW  HW  HW  EP  OW  HW  HW  EP  OW  
HW  HW  EP  OW  HW  HW  EP  OW  HW  HW  EP  OW  HW  HW  EP  OW  HW  HW  EP  OW  
HW  HW  EP  OW  HW  HW  EP  OW  HW  HW  EP  OW  HW  HW  EP  OW  HW  HW  EP  OW  
HW  HW  EP  OW  HW  HW  EP  OW  HW  HW  EP  OW  HW  HW  EP  OW  HW  HW  EP  OW  
HW  HW  EP  OW  HW  HW  EP  OW  HW  HW  EP  OW  HW  HW  EP  OW  HW  HW  EP  OW  
HW  HW  EP  OW  HW  HW  EP  OW  HW  HW  EP  OW  HW  HW  EP  OW  HW  HW  EP  OW  
HW  HW  EP  OW  HW  HW  EP  OW  HW  HW  EP  OW  HW  HW  EP  OW  HW  HW  EP  OW  
HW  HW  EP  OW  HW  HW  EP  OW  HW  HW  EP  OW  HW  HW  EP  OW  HW  HW  EP  OW  
HW  HW  EP  OW  HW  HW  EP  OW  HW  HW  EP  OW  HW  HW  EP  OW  HW  HW  EP  OW  
HW  HW  EP  OW  HW  HW  EP  OW  HW  HW  EP  OW  HW  HW  EP  OW  HW  HW  EP  OW  
HW  HW  EP  OW  HW  HW  EP  OW  HW  HW  EP  OW  HW  HW  EP  OW  HW  HW  EP  OW  
HW  HW  EP  OW  HW  HW  EP  OW  HW  HW  EP  OW  HW  HW  EP  OW  HW  HW  EP  OW  
HW  HW  EP  OW  HW  HW  EP  OW  HW  HW  EP  OW  HW  HW  EP  OW  HW  HW  EP  OW  
HW  HW  EP  OW  HW  HW  EP  OW  HW  HW  EP  OW  HW  HW  EP  OW  HW  HW  EP  OW  
HW  HW  EP  OW  HW  HW  EP  OW  HW  HW  EP  OW  HW  HW  EP  OW  HW  HW  EP  OW  
HW  HW  EP  OW  HW  HW  EP  OW  HW  HW  EP  OW  HW  HW  EP  OW  HW  HW  EP  OW  
HW  HW  EP  OW  HW  HW  EP  OW  HW  HW  EP  OW  HW  HW  EP  OW  HW  HW  EP  OW  
HW  HW  EP  OW  HW  HW  EP  OW  HW  HW  EP  OW  HW  HW  EP  OW  HW  HW  EP  OW  
HW  HW  EP  OW  HW  HW  EP  OW  HW  HW  EP  OW  HW  HW  EP  OW  HW  HW  EP  OW  
HW  HW  EP  OW  HW  HW  EP  OW  HW  HW  EP  OW  HW  HW  EP  OW  HW  HW  EP  OW  
HW  HW  EP  OW  HW  HW  EP  OW  HW  HW  EP  OW  HW  HW  EP  OW  HW  HW  EP  OW  
HW  HW  EP  OW  HW  HW  EP  OW  HW  HW  EP  OW  HW  HW  EP  OW  HW  HW  EP  OW  
HW  HW  EP  OW  HW  HW  EP  OW  HW  HW  EP  OW  HW  HW  EP  OW  HW  HW  EP  OW  
HW  HW  EP  OW  HW  HW  EP  OW  HW  HW  EP  OW  HW  HW  EP  OW  HW  HW  EP  OW  
HW  HW  EP  OW  HW  HW  EP  OW  HW  HW  EP  OW  HW  HW  EP  OW  HW  HW  EP  OW  
HW  HW  EP  OW  HW  HW  EP  OW  HW  HW  EP  OW  HW  HW  EP  OW  HW  HW  EP  OW  
HW  HW  EP  OW  HW  HW  EP  OW  HW  HW  EP  OW  HW  HW  EP  OW  HW  HW  EP  OW  
HW  HW  EP  OW  HW  HW  EP  OW  HW  HW  EP  OW  HW  HW  EP  OW  HW  HW  EP  OW  
HW  HW  EP  OW  HW  HW  EP  OW  HW  HW  EP  OW  HW  HW  EP  OW  HW  HW  EP  OW  
HW  HW  EP  OW  HW  HW  EP  OW  HW  HW  EP  OW  HW  HW  EP  OW  HW  HW  EP  OW  
HW  HW  EP  OW  HW  HW  EP  OW  HW  HW  EP  OW  HW  HW  EP  OW  HW  HW  EP  OW  
HW  HW  EP  OW  HW  HW  EP  OW  HW  HW  EP  OW  HW  HW  EP  OW  HW  HW  EP  OW  
HW  HW  EP  OW  HW  HW  EP  OW  HW  HW  EP  OW  HW  HW  EP  OW  HW  HW  EP  OW  
HW  HW  EP  OW  HW  HW  EP  OW  HW  HW  EP  OW  HW  HW  EP  OW  HW  HW  EP  OW  
HW  HW  EP  OW  HW  HW  EP  OW  HW  HW  EP  OW  HW  HW  EP  OW  HW  HW  EP  OW  
HW  HW  EP  OW  HW  HW  EP  OW  HW  HW  EP  OW  HW  HW  EP  OW  HW  HW  EP  OW  
HW  HW  EP  OW  HW  HW  EP  OW  HW  HW  EP  OW  HW  HW  EP  OW  HW  HW  EP  OW  
HW  HW  EP  OW  HW  HW  EP  OW  HW  HW  EP  OW  HW  HW  EP  OW  HW  HW  EP  OW  
HW  HW  EP  OW  HW  HW  EP  OW  HW  HW  EP  OW  HW  HW  EP  OW  HW  HW  EP  OW  
HW  HW  EP  OW  HW  HW  EP  OW  HW  HW  EP  OW  HW  HW  EP  OW  HW  HW  EP  OW  
HW  HW  EP  OW  HW  HW  EP  OW  HW  HW  EP  OW  HW  HW  EP  OW  HW  HW  EP  OW  
HW  HW  EP  OW  HW  HW  EP  OW  HW  HW  EP  OW  HW  HW  EP  OW  HW  HW  EP  OW  
HW  HW  EP  OW  HW  HW  EP  OW  HW  HW  EP  OW  HW  HW  EP  OW  HW  HW  EP  OW  
HW  HW  EP  OW  HW  HW  EP  OW  HW  HW  EP  OW  HW  HW  EP  OW  HW  HW  EP  OW  
HW  HW  EP  OW  HW  HW  EP  OW  HW  HW  EP  OW  HW  HW  EP  OW  HW  HW  EP  OW  
HW  HW  EP  OW  HW  HW  EP  OW  HW  HW  EP  OW  HW  HW  EP  OW  HW  HW  EP  OW  
HW  HW  EP  OW  HW  HW  EP  OW  HW  HW  EP  OW  HW  HW  EP  OW  HW  HW  EP  OW  
HW  HW  EP  OW  HW  HW  EP  OW  HW  HW  EP  OW  HW  HW  EP  OW  HW  HW  EP  OW  
HW  HW  EP  OW  HW  HW  EP  OW  HW  HW  EP  OW  HW  HW  EP  OW  HW  HW  EP  OW  
HW  HW  EP  OW  HW  HW  EP  OW  HW  HW  EP  OW  HW  HW  EP  OW  HW  HW  EP  OW  
HW  HW  EP  OW  HW  HW  EP  OW  HW  HW  EP  OW  HW  HW  EP  OW  HW  HW  EP  OW  
HW  HW  EP  OW  HW  HW  EP  OW  HW  HW  EP  OW  HW  HW  EP  OW  HW  HW  EP  OW  
HW  HW  EP  OW  HW  HW  EP  OW  HW  HW  EP  OW  HW  HW  EP  OW  HW  HW  EP  OW  
HW  HW  EP  OW  HW  HW  EP  OW  HW  HW  EP  OW  HW  HW  EP  OW  HW  HW  EP  OW  
HW  HW  EP  OW  HW  HW  EP  OW  HW  HW  EP  OW  HW  HW  EP  OW  HW  HW  EP  OW  
HW  HW  EP  OW  HW  HW  EP  OW  HW  HW  EP  OW  HW  HW  EP  OW  HW  HW  EP  OW  
HW  HW  EP  OW  HW  HW  EP  OW  HW  HW  EP  OW  HW  HW  EP  OW  HW  HW  EP  OW  
HW  HW  EP  OW  HW  HW  EP  OW  HW  HW  EP  OW  HW  HW  EP  OW  HW  HW  EP  OW  
HW  HW  EP  OW  HW  HW  EP  OW  HW  HW  EP  OW  HW  HW  EP  OW  HW  HW  EP  OW  
HW  HW  EP  OW  HW  HW  EP  OW  HW  HW  EP  OW  HW  HW  EP  OW  HW  HW  EP  OW  
HW  HW  EP  OW  HW  HW  EP  OW  HW  HW  EP  OW  HW  HW  EP  OW  HW  HW  EP  OW  
HW  HW  EP  OW  HW  HW  EP  OW  HW  HW  EP  OW  HW  HW  EP  OW  HW  HW  EP  OW  
HW  HW  EP  OW  HW  HW  EP  OW  HW  HW  EP  OW  HW  HW  EP  OW  HW  HW  EP  OW  
HW  HW  EP  OW  HW  HW  EP  OW  HW  HW  EP  OW  HW  HW  EP  OW  HW  HW  EP  OW  
HW  HW  EP  OW  HW  HW  EP  OW  HW  HW  EP  OW  HW  HW  EP  OW  HW  HW  EP  OW  
HW  HW  EP  OW  HW  HW  EP  OW  HW  HW  EP  OW  HW  HW  EP  OW  HW  HW  EP  OW  
HW  HW  EP  OW  HW  HW  EP  OW  HW  HW  EP  OW  HW  HW  EP  OW  HW  HW  EP  OW  
HW  HW  EP  OW  HW  HW  EP  OW  HW  HW  EP  OW  HW  HW  EP  OW  HW  HW  EP  OW  
HW  HW  EP  OW  HW  HW  EP  OW  HW  HW  EP  OW  HW  HW  EP  OW  HW  HW  EP  OW  
HW  HW  EP  OW  HW  HW  EP  OW  HW  HW  EP  OW  HW  HW  EP  OW  HW  HW  EP  OW  
HW  HW  EP  OW  HW  HW  EP  OW  HW  HW  EP  OW  HW  HW  EP  OW  HW  HW  EP  OW  
HW  HW  EP  OW  HW  HW  EP  OW  HW  HW  EP  OW  HW  HW  EP  OW  HW  HW  EP  OW  
HW  HW  EP  OW  HW  HW  EP  OW  HW  HW  EP  OW  HW  HW  EP  OW  HW  HW  EP  OW  
HW  HW  EP  OW  HW  HW  EP  OW  HW  HW  EP  OW  HW  HW  EP  OW  HW  HW  EP  OW  
HW  HW  EP  OW  HW  HW  EP  OW  HW  HW  EP  OW  HW  HW  EP  OW  HW  HW  EP  OW  
HW  HW  EP  OW  HW  HW  EP  OW  HW  HW  EP  OW  HW  HW  EP  OW  HW  HW  EP  OW  
HW  HW  EP  OW  HW  HW  EP  OW  HW  HW  EP  OW  HW  HW  EP  OW  HW  HW  EP  OW  
HW  HW  EP  OW  HW  HW  EP  OW  HW  HW  EP  OW  HW  HW  EP  OW  HW  HW  EP  OW  
HW  HW  EP  OW  HW  HW  EP  OW  HW  HW  EP  OW  HW  HW  EP  OW  HW  HW  EP  OW  
HW  HW  EP  OW  HW  HW  EP  OW  HW  HW  EP  OW  HW  HW  EP  OW  HW  HW  EP  OW  
HW  HW  EP  OW  HW  HW  EP  OW  HW  HW  EP  OW  HW  HW  EP  OW  HW  HW  EP  OW  
HW  HW  EP  OW  HW  HW  EP  OW  HW  HW  EP  OW  HW  HW  EP  OW  HW  HW  EP  OW  
HW  HW  EP  OW  HW  HW  EP  OW  HW  HW  EP  OW  HW  HW  EP  OW  HW  HW  EP  OW  
HW  HW  EP  OW  HW  HW  EP  OW  HW  HW  EP  OW  HW  HW  EP  OW  HW  HW  EP  OW  
HW  HW  EP  OW  HW  HW  EP  OW  HW  HW  EP  OW  HW  HW  EP  OW  HW  HW  EP  OW  
HW  HW  EP  OW  HW  HW  EP  OW  HW  HW  EP  OW  HW  HW  EP  OW  HW  HW  EP  OW  
HW  HW  EP  OW  HW  HW  EP  OW  HW  HW  EP  OW  HW  HW  EP  OW  HW  HW  EP  OW  
HW  HW  EP  OW  HW  HW  EP  OW  HW  HW  EP  OW  HW  HW  EP  OW  HW  HW  EP  OW  
HW  HW  EP  OW  HW  HW  EP  OW  HW  HW  EP  OW  HW  HW  EP  OW  HW  HW  EP  OW  
HW  HW  EP  OW  HW  HW  EP  OW  HW  HW  EP  OW  HW  HW  EP  OW  HW  HW  EP  OW  
HW  HW  EP  OW  HW  HW  EP  OW  HW  HW  EP  OW  HW  HW  EP  OW  HW  HW  EP  OW  
HW  HW  EP  OW  HW  HW  EP  OW  HW  HW  EP  OW  HW  HW  EP  OW  HW  HW  EP  OW  
HW  HW  EP  OW  HW  HW  EP  OW  HW  HW  EP  OW  HW  HW  EP  OW  HW  HW  EP  OW  
HW  HW  EP  OW  HW  HW  EP  OW  HW  HW  EP  OW  HW  HW  EP  OW  HW  HW  EP  OW  
HW  HW  EP  OW  HW  HW  EP  OW  HW  HW  EP  OW  HW  HW  EP  OW  HW  HW  EP  OW  
HW  HW  EP  OW  HW  HW  EP  OW  HW  HW  EP  OW  HW  HW  EP  OW  HW  HW  EP  OW  
HW  HW  EP  OW  HW  HW  EP  OW  HW  HW  EP  OW  HW  HW  EP  OW  HW  HW  EP  OW  
HW  HW  EP  OW  HW  HW  EP  OW  HW  HW  EP  OW  HW  HW  EP  OW  HW  HW  EP  OW  
HW  HW  EP  OW  HW  HW  EP  OW  HW  HW  EP  OW  HW  HW  EP  OW  HW  HW  EP  OW  
HW  HW  EP  OW  HW  HW  EP  OW  HW  HW  EP  OW  HW  HW  EP  OW  HW  HW  EP  OW  
HW  HW  EP  OW  HW  HW  EP  OW  HW  HW  EP  OW  HW  HW  EP  OW  HW  HW  EP  OW  
HW  HW  EP  OW  HW  HW  EP  OW  HW  HW  EP  OW  HW  HW  EP  OW  HW  HW  EP  OW  
HW  HW  EP  OW  HW  HW  EP  OW  HW  HW  EP  OW  HW  HW  EP  OW  HW  HW  EP  OW  
HW  HW  EP  OW  HW  HW  EP  OW  HW  HW  EP  OW  HW  HW  EP  OW  HW  HW  EP  OW  
HW  HW  EP  OW  HW  HW  EP  OW  HW  HW  EP  OW  HW  HW  EP  OW  HW  HW  EP  OW  
HW  HW  EP  OW  HW  HW  EP  OW  HW  HW  EP  OW  HW  HW  EP  OW  HW  HW  EP  OW  
HW  HW  EP  OW  HW  HW  EP  OW  HW  HW  EP  OW  HW  HW  EP  OW  HW  HW  EP  OW  
HW  HW  EP  OW  HW  HW  EP  OW  HW  HW  EP  OW  HW  HW  EP  OW  HW  HW  EP  OW  
HW  HW  EP  OW  HW  HW  EP  OW  HW  HW  EP  OW  HW  HW  EP  OW  HW  HW  EP  OW  
HW  HW  EP  OW  HW  HW  EP  OW  HW  HW  EP  OW  HW  HW  EP  OW  HW  HW  EP  OW  
HW  HW  EP  OW  HW  HW  EP  OW  HW  HW  EP  OW  HW  HW  EP  OW  HW  HW  EP  OW  
HW  HW  EP  OW  HW  HW  EP  OW  HW  HW  EP  OW  HW  HW  EP  OW  HW  HW  EP  OW  
HW  HW  EP  OW  HW  HW  EP  OW  HW  HW  EP  OW  HW  HW  EP  OW  HW  HW  EP  OW  
HW  HW  EP  OW  HW  HW  EP  OW  HW  HW  EP  OW  HW  HW  EP  OW  HW  HW  EP  OW  
HW  HW  EP  OW  HW  HW  EP  OW  HW  HW  EP  OW  HW  HW  EP  OW  HW  HW  EP  OW  
HW  HW  EP  OW  HW  HW  EP  OW  HW  HW  EP  OW  HW  HW  EP  OW  HW  HW  EP  OW  
HW  HW  EP  OW  HW  HW  EP  OW  HW  HW  EP  OW  HW  HW  EP  OW  HW  HW  EP  OW  
HW  HW  EP  OW  HW  HW  EP  OW  HW  HW  EP  OW  HW  HW  EP  OW  HW  HW  EP  OW  
HW  HW  EP  OW  HW  HW  EP  OW  HW  HW  EP  OW  HW  HW  EP  OW  HW  HW  EP  OW  
HW  HW  EP  OW  HW  HW  EP  OW  HW  HW  EP  OW  HW  HW  EP  OW  HW  HW  EP  OW  
HW  HW  EP  OW  HW  HW  EP  OW  HW  HW  EP  OW  HW  HW  EP  OW  HW  HW  EP  OW  
HW  HW  EP  OW  HW  HW  EP  OW  HW  HW  EP  OW  HW  HW  EP  OW  HW  HW  EP  OW  
HW  HW  EP  OW  HW  HW  EP  OW  HW  HW  EP  OW  HW  HW  EP  OW  HW  HW  EP  OW  
HW  HW  EP  OW  HW  HW  EP  OW  HW  HW  EP  OW  HW  HW  EP  OW  HW  HW  EP  OW  
HW  HW  EP  OW  HW  HW  EP  OW  HW  HW  EP  OW  HW  HW  EP  OW  HW  HW  EP  OW  
HW  HW  EP  OW  HW  HW  EP  OW  HW  HW  EP  OW  HW  HW  EP  OW  HW  HW  EP  OW  
HW  HW  EP  OW  HW  HW  EP  OW  HW  HW  EP  OW  HW  HW  EP  OW  HW  HW  EP  OW  
HW  HW  EP  OW  HW  HW  EP  OW  HW  HW  EP  OW  HW  HW  EP  OW  HW  HW  EP  OW  
HW  HW  EP  OW  HW  HW  EP  OW  HW  HW  EP  OW  HW  HW  EP  OW  HW  HW  EP  OW  
HW  HW  EP  OW  HW  HW  EP  OW  HW  HW  EP  OW  HW  HW  EP  OW  HW  HW  EP  OW  
HW  HW  EP  OW  HW  HW  EP  OW  HW  HW  EP  OW  HW  HW  EP  OW  HW  HW  EP  OW  
HW  HW  EP  OW  HW  HW  EP  OW  HW  HW  EP  OW  HW  HW  EP  OW  HW  HW  EP  OW  
HW  HW  EP  OW  HW  HW  EP  OW  HW  HW  EP  OW  HW  HW  EP  OW  HW  HW  EP  OW  
HW  HW  EP  OW  HW  HW  EP  OW  HW  HW  EP  OW  HW  HW  EP  OW  HW  HW  EP  OW  
HW  HW  EP  OW  HW  HW  EP  OW  HW  HW  EP  OW  HW  HW  EP  OW  HW  HW  EP  OW  
HW  HW  EP  OW  HW  HW  EP  OW  HW  HW  EP  OW  HW  HW  EP  OW  HW  HW  EP  OW  
HW  HW  EP  OW  HW  HW  EP  OW  HW  HW  EP  OW  HW  HW  EP  OW  HW  HW  EP  OW  
HW  HW  EP  OW  HW  HW  EP  OW  HW  HW  EP  OW  HW  HW  EP  OW  HW  HW  EP  OW  
HW  HW  EP  OW  HW  HW  EP  OW  HW  HW  EP  OW  HW  HW  EP  OW  HW  HW  EP  OW  
HW  HW  EP  OW  HW  HW  EP  OW  HW  HW  EP  OW  HW  HW  EP  OW  HW  HW  EP  OW  
HW  HW  EP  OW  HW  HW  EP  OW  HW  HW  EP  OW  HW  HW  EP  OW  HW  HW  EP  OW  
HW  HW  EP  OW  HW  HW  EP  OW  HW  HW  EP  OW  HW  HW  EP  OW  HW  HW  EP  OW  
HW  HW  EP  OW  HW  HW  EP  OW  HW  HW  EP  OW  HW  HW  EP  OW  HW  HW  EP  OW  
HW  HW  EP  OW  HW  HW  EP  OW  HW  HW  EP  OW  HW  HW  EP  OW  HW  HW  EP  OW  
HW  HW  EP  OW  HW  HW  EP  OW  HW  HW  EP  OW  HW  HW  EP  OW  HW  HW  EP  OW  
HW  HW  EP  OW  HW  HW  EP  OW  HW  HW  EP  OW  HW  HW  EP  OW  HW  HW  EP  OW  
HW  HW  EP  OW  HW  HW  EP  OW  HW  HW  EP  OW  HW  HW  EP  OW  HW  HW  EP  OW  
HW  HW  EP  OW  HW  HW  EP  OW  HW  HW  EP  OW  HW  HW  EP  OW  HW  HW  EP  OW  
HW  HW  EP  OW  HW  HW  EP  OW  HW  HW  EP  OW  HW  HW  EP  OW  HW  HW  EP  OW  
HW  HW  EP  OW  HW  HW  EP  OW  HW  HW  EP  OW  HW  HW  EP  OW  HW  HW  EP  OW  
HW  HW  EP  OW  HW  HW  EP  OW  HW  HW  EP  OW  HW  HW  EP  OW  HW  HW  EP  OW  
HW  HW  EP  OW  HW  HW  EP  OW  HW  HW  EP  OW  HW  HW  EP  OW  HW  HW  EP  OW  
HW  HW  EP  OW  HW  HW  EP  OW  HW  HW  EP  OW  HW  HW  EP  OW  HW  HW  EP  OW  
HW  HW  EP  OW  HW  HW  EP  OW  HW  HW  EP  OW  HW  HW  EP  OW  HW  HW  EP  OW  
HW  HW  EP  OW  HW  HW  EP  OW  HW  HW  EP  OW  HW  HW  EP  OW  HW  HW  EP  OW  
HW  HW  EP  OW  HW  HW  EP  OW  HW  HW  EP  OW  HW  HW  EP  OW  HW  HW  EP  OW  
HW  HW  EP  OW  HW  HW  EP  OW  HW  HW  EP  OW  HW  HW  EP  OW  HW  HW  EP  OW  
HW  HW  EP  OW  HW  HW  EP  OW  HW  HW  EP  OW  HW  HW  EP  OW  HW  HW  EP  OW  
HW  HW  EP  OW  HW  HW  EP  OW  HW  HW  EP  OW  HW  HW  EP  OW  HW  HW  EP  OW  
HW  HW  EP  OW  HW  HW  EP  OW  HW  HW  EP  OW  HW  HW  EP  OW  HW  HW  EP  OW  
HW  HW  EP  OW  HW  HW  EP  OW  HW  HW  EP  OW  HW  HW  EP  OW  HW  HW  EP  OW  
HW  HW  EP  OW  HW  HW  EP  OW  HW  HW  EP  OW  HW  HW  EP  OW  HW  HW  EP  OW  
HW  HW  EP  OW  HW  HW  EP  OW  HW  HW  EP  OW  HW  HW  EP  OW  HW  HW  EP  OW  
HW  HW  EP  OW  HW  HW  EP  OW  HW  HW  EP  OW  HW  HW  EP  OW  HW  HW  EP  OW  
HW  HW  EP  OW  HW  HW  EP  OW  HW  HW  EP  OW  HW  HW  EP  OW  HW  HW  EP  OW  
HW  HW  EP  OW  HW  HW  EP  OW  HW  HW  EP  OW  HW  HW  EP  OW  HW  HW  EP  OW  
HW  HW  EP  OW  HW  HW  EP  OW  HW  HW  EP  OW  HW  HW  EP  OW  HW  HW  EP  OW  
HW  HW  EP  OW  HW  HW  EP  OW  HW  HW  EP  OW  HW  HW  EP  OW  HW  HW  EP  OW  
HW  HW  EP  OW  HW  HW  EP  OW  HW  HW  EP  OW  HW  HW  EP  OW  HW  HW  EP  OW  
HW  HW  EP  OW  HW  HW  EP  OW  HW  HW  EP  OW  HW  HW  EP  OW  HW  HW  EP  OW  
HW  HW  EP  OW  HW  HW  EP  OW  HW  HW  EP  OW  HW  HW  EP  OW  HW  HW  EP  OW  
HW  HW  EP  OW  HW  HW  EP  OW  HW  HW  EP  OW  HW  HW  EP  OW  HW  HW  EP  OW  
HW  HW  EP  OW  HW  HW  EP  OW  HW  HW  EP  OW  HW  HW  EP  OW  HW  HW  EP  OW  
HW  HW  EP  OW  HW  HW  EP  OW  HW  HW  EP  OW  HW  HW  EP  OW  HW  HW  EP  OW  
HW  HW  EP  OW  HW  HW  EP  OW  HW  HW  EP  OW  HW  HW  EP  OW  HW  HW  EP  OW  
HW  HW  EP  OW  HW  HW  EP  OW  HW  HW  EP  OW  HW  HW  EP  OW  HW  HW  EP  OW  
HW  HW  EP  OW  HW  HW  EP  OW  HW  HW  EP  OW  HW  HW  EP  OW  HW  HW  EP  OW  
HW  HW  EP  OW  HW  HW  EP  OW  HW  HW  EP  OW  HW  HW  EP  OW  HW  HW  EP  OW  
HW  HW  EP  OW  HW  HW  EP  OW  HW  HW  EP  OW  HW  HW  EP  OW  HW  HW  EP  OW  
HW  HW  EP  OW  HW  HW  EP  OW  HW  HW  EP  OW  HW  HW  EP  OW  HW  HW  EP  OW  
HW  HW  EP  OW  HW  HW  EP  OW  HW  HW  EP  OW  HW  HW  EP  OW  HW  HW  EP  OW  
HW  HW  EP  OW  HW  HW  EP  OW  HW  HW  EP  OW  HW  HW  EP  OW  HW  HW  EP  OW  
HW  HW  EP  OW  HW  HW  EP  OW  HW  HW  EP  OW  HW  HW  EP  OW  HW  HW  EP  OW  
HW  HW  EP  OW  HW  HW  EP  OW  HW  HW  EP  OW  HW  HW  EP  OW  HW  HW  EP  OW  
HW  HW  EP  OW  HW  HW  EP  OW  HW  HW  EP  OW  HW  HW  EP  OW  HW  HW  EP  OW  
HW  HW  EP  OW  HW  HW  EP  OW  HW  HW  EP  OW  HW  HW  EP  OW  HW  HW  EP  OW  
HW  HW  EP  OW  HW  HW  EP  OW  HW  HW  EP  OW  HW  HW  EP  OW  HW  HW  EP  OW  
HW  HW  EP  OW  HW  HW  EP  OW  HW  HW  EP  OW  HW  HW  EP  OW  HW  HW  EP  OW  
HW  HW  EP  OW  HW  HW  EP  OW  HW  HW  EP  OW  HW  HW  EP  OW  HW  HW  EP  OW  
HW  HW  EP  OW  HW  HW  EP  OW  HW  HW  EP  OW  HW  HW  EP  OW  HW  HW  EP  OW  
HW  HW  EP  OW  HW  HW  EP  OW  HW  HW  EP  OW  HW  HW  EP  OW  HW  HW  EP  OW  
HW  HW  EP  OW  HW  HW  EP  OW  HW  HW  EP  OW  HW  HW  EP  OW  HW  HW  EP  OW  
HW  HW  EP  OW  HW  HW  EP  OW  HW  HW  EP  OW  HW  HW  EP  OW  HW  HW  EP  OW  
HW  HW  EP  OW  HW  HW  EP  OW  HW  HW  EP  OW  HW  HW  EP  OW  HW  HW  EP  OW  
HW  HW  EP  OW  HW  HW  EP  OW  HW  HW  EP  OW  HW  HW  EP  OW  HW  HW  EP  OW  
HW  HW  EP  OW  HW  HW  EP  OW  HW  HW  EP  OW  HW  HW  EP  OW  HW  HW  EP  OW  
HW  HW  EP  OW  HW  HW  EP  OW  HW  HW  EP  OW  HW  HW  EP  OW  HW  HW  EP  OW  
HW  HW  EP  OW  HW  HW  EP  OW  HW  HW  EP  OW  HW  HW  EP  OW  HW  HW  EP  OW  
HW  HW  EP  OW  HW  HW  EP  OW  HW  HW  EP  OW  HW  HW  EP  OW  HW  HW  EP  OW  
HW  HW  EP  OW  HW  HW  EP  OW  HW  HW  EP  OW  HW  HW  EP  OW  HW  HW  EP  OW  
HW  HW  EP  OW  HW  HW  EP  OW  HW  HW  EP  OW  HW  HW  EP  OW  HW  HW  EP  OW  
HW  HW  EP  OW  HW  HW  EP  OW  HW  HW  EP  OW  HW  HW  EP  OW  HW  HW  EP  OW  
HW  HW  EP  OW  HW  HW  EP  OW  HW  HW  EP  OW  HW  HW  EP  OW  HW  HW  EP  OW  
HW  HW  EP  OW  HW  HW  EP  OW  HW  HW  EP  OW  HW  HW  EP  OW  HW  HW  EP  OW  
HW  HW  EP  OW  HW  HW  EP  OW  HW  HW  EP  OW  HW  HW  EP  OW  HW  HW  EP  OW  
HW  HW  EP  OW  HW  HW  EP  OW  HW  HW  EP  OW  HW  HW  EP  OW  HW  HW  EP  OW  
HW  HW  EP  OW  HW  HW  EP  OW  HW  HW  EP  OW  HW  HW  EP  OW  HW  HW  EP  OW  
HW  HW  EP  OW  HW  HW  EP  OW  HW  HW  EP  OW  HW  HW  EP  OW  HW  HW  EP  OW  
HW  HW  EP  OW  HW  HW  EP  OW  HW  HW  EP  OW  HW  HW  EP  OW  HW  HW  EP  OW  
HW  HW  EP  OW  HW  HW  EP  OW  HW  HW  EP  OW  HW  HW  EP  OW  HW  HW  EP  OW  
HW  HW  EP  OW  HW  HW  EP  OW  HW  HW  EP  OW  HW  HW  EP  OW  HW  HW  EP  OW  
HW  HW  EP  OW  HW  HW  EP  OW  HW  HW  EP  OW  HW  HW  EP  OW  HW  HW  EP  OW  
HW  HW  EP  OW  HW  HW  EP  OW  HW  HW  EP  OW  HW  HW  EP  OW  HW  HW  EP  OW  
HW  HW  EP  OW  HW  HW  EP  OW  HW  HW  EP  OW  HW  HW  EP  OW  HW  HW  EP  OW  
HW  HW  EP  OW  HW  HW  EP  OW  HW  HW  EP  OW  HW  HW  EP  OW  HW  HW  EP  OW  
HW  HW  EP  OW  HW  HW  EP  OW  HW  HW  EP  OW  HW  HW  EP  OW  HW  HW  EP  OW  
HW  HW  EP  OW  HW  HW  EP  OW  HW  HW  EP  OW  HW  HW  EP  OW  HW  HW  EP  OW  
HW  HW  EP  OW  HW  HW  EP  OW  HW  HW  EP  OW  HW  HW  EP  OW  HW  HW  EP  OW  
HW  HW  EP  OW  HW  HW  EP  OW  HW  HW  EP  OW  HW  HW  EP  OW  HW  HW  EP  OW  
HW  HW  EP  OW  HW  HW  EP  OW  HW  HW  EP  OW  HW  HW  EP  OW  HW  HW  EP  OW  
HW  HW  EP  OW  HW  HW  EP  OW  HW  HW  EP  OW  HW  HW  EP  OW  HW  HW  EP  OW  
HW  HW  EP  OW  HW  HW  EP  OW  HW  HW  EP  OW  HW  HW  EP  OW  HW  HW  EP  OW  
HW  HW  EP  OW  HW  HW  EP  OW  HW  HW  EP  OW  HW  HW  EP  OW  HW  HW  EP  OW  
HW  HW  EP  OW  HW  HW  EP  OW  HW  HW  EP  OW  HW  HW  EP  OW  HW  HW  EP  OW  
HW  HW  EP  OW  HW  HW  EP  OW  HW  HW  EP  OW  HW  HW  EP  OW  HW  HW  EP  OW  
HW  HW  EP  OW  HW  HW  EP  OW  HW  HW  EP  OW  HW  HW  EP  OW  HW  HW  EP  OW  
HW  HW  EP  OW  HW  HW  EP  OW  HW  HW  EP  OW  HW  HW  EP  OW  HW  HW  EP  OW  
HW  HW  EP  OW  HW  HW  EP  OW  HW  HW  EP  OW  HW  HW  EP  OW  HW  HW  EP  OW  
HW  HW  EP  OW  HW  HW  EP  OW  HW  HW  EP  OW  HW  HW  EP  OW  HW  HW  EP  OW  
HW  HW  EP  OW  HW  HW  EP  OW  HW  HW  EP  OW  HW  HW  EP  OW  HW  HW  EP  OW  
HW  HW  EP  OW  HW  HW  EP  OW  HW  HW  EP  OW  HW  HW  EP  OW  HW  HW  EP  OW  
HW  HW  EP  OW  HW  HW  EP  OW  HW  HW  EP  OW  HW  HW  EP  OW  HW  HW  EP  OW  
HW  HW  EP  OW  HW  HW  EP  OW  HW  HW  EP  OW  HW  HW  EP  OW  HW  HW  EP  OW  
HW  HW  EP  OW  HW  HW  EP  OW  HW  HW  EP  OW  HW  HW  EP  OW  HW  HW  EP  OW  
HW  HW  EP  OW  HW  HW  EP  OW  HW  HW  EP  OW  HW  HW  EP  OW  HW  HW  EP  OW  
HW  HW  EP  OW  HW  HW  EP  OW  HW  HW  EP  OW  HW  HW  EP  OW  HW  HW  EP  OW  
HW  HW  EP  OW  HW  HW  EP  OW  HW  HW  EP  OW  HW  HW  EP  OW  HW  HW  EP  OW  
HW  HW  EP  OW  HW  HW  EP  OW  HW  HW  EP  OW  HW  HW  EP  OW  HW  HW  EP  OW  
HW  HW  EP  OW  HW  HW  EP  OW  HW  HW  EP  OW  HW  HW  EP  OW  HW  HW  EP  OW  
HW  HW  EP  OW  HW  HW  EP  OW  HW  HW  EP  OW  HW  HW  EP  OW  HW  HW  EP  OW  
HW  HW  EP  OW  HW  HW  EP  OW  HW  HW  EP  OW  HW  HW  EP  OW  HW  HW  EP  OW  
HW  HW  EP  OW  HW  HW  EP  OW  HW  HW  EP  OW  HW  HW  EP  OW  HW  HW  EP  OW  
HW  HW  EP  OW  HW  HW  EP  OW  HW  HW  EP  OW  HW  HW  EP  OW  HW  HW  EP  OW  
HW  HW  EP  OW  HW  HW  EP  OW  HW  HW  EP  OW  HW  HW  EP  OW  HW  HW  EP  OW  
HW  HW  EP  OW  HW  HW  EP  OW  HW  HW  EP  OW  HW  HW  EP  OW  HW  HW  EP  OW  
HW  HW  EP  OW  HW  HW  EP  OW  HW  HW  EP  OW  HW  HW  EP  OW  HW  HW  EP  OW  
HW  HW  EP  OW  HW  HW  EP  OW  HW  HW  EP  OW  HW  HW  EP  OW  HW  HW  EP  OW  
HW  HW  EP  OW  HW  HW  EP  OW  HW  HW  EP  OW  HW  HW  EP  OW  HW  HW  EP  OW  
HW  HW  EP  OW  HW  HW  EP  OW  HW  HW  EP  OW  HW  HW  EP  OW  HW  HW  EP  OW  
HW  HW  EP  OW  HW  HW  EP  OW  HW  HW  EP  OW  HW  HW  EP  OW  HW  HW  EP  OW  
HW  HW  EP  OW  HW  HW  EP  OW  HW  HW  EP  OW  HW  HW  EP  OW  HW  HW  EP  OW  
HW  HW  EP  OW  HW  HW  EP  OW  HW  HW  EP  OW  HW  HW  EP  OW  HW  HW  EP  OW  
HW  HW  EP  OW  HW  HW  EP  OW  HW  HW  EP  OW  HW  HW  EP  OW  HW  HW  EP  OW  
HW  HW  EP  OW  HW  HW  EP  OW  HW  HW  EP  OW  HW  HW  EP  OW  HW  HW  EP  OW  
HW  HW  EP  OW  HW  HW  EP  OW  HW  HW  EP  OW  HW  HW  EP  OW  HW  HW  EP  OW  
HW  HW  EP  OW  HW  HW  EP  OW  HW  HW  EP  OW  HW  HW  EP  OW  HW  HW  EP  OW  
HW  HW  EP  OW  HW  HW  EP  OW  HW  HW  EP  OW  HW  HW  EP  OW  HW  HW  EP  OW  
HW  HW  EP  OW  HW  HW  EP  OW  HW  HW  EP  OW  HW  HW  EP  OW  HW  HW  EP  OW  
HW  HW  EP  OW  HW  HW  EP  OW  HW  HW  EP  OW  HW  HW  EP  OW  HW  HW  EP  OW  
HW  HW  EP  OW  HW  HW  EP  OW  HW  HW  EP  OW  HW  HW  EP  OW  HW  HW  EP  OW  
HW  HW  EP  OW  HW  HW  EP  OW  HW  HW  EP  OW  HW  HW  EP  OW  HW  HW  EP  OW  
HW  HW  EP  OW  HW  HW  EP  OW  HW  HW  EP  OW  HW  HW  EP  OW  HW  HW  EP  OW  
HW  HW  EP  OW  HW  HW  EP  OW  HW  HW  EP  OW  HW  HW  EP  OW  HW  HW  EP  OW  
HW  HW  EP  OW  HW  HW  EP  OW  HW  HW  EP  OW  HW  HW  EP  OW  HW  HW  EP  OW  
HW  HW  EP  OW  HW  HW  EP  OW  HW  HW  EP  OW  HW  HW  EP  OW  HW  HW  EP  OW  
HW  HW  EP  OW  HW  HW  EP  OW  HW  HW  EP  OW  HW  HW  EP  OW  HW  HW  EP  OW  
HW  HW  EP  OW  HW  HW  EP  OW  HW  HW  EP  OW  HW  HW  EP  OW  HW  HW  EP  OW  
HW  HW  EP  OW  HW  HW  EP  OW  HW  HW  EP  OW  HW  HW  EP  OW  HW  HW  EP  OW  
HW  HW  EP  OW  HW  HW  EP  OW  HW  HW  EP  OW  HW  HW  EP  OW  HW  HW  EP  OW  
HW  HW  EP  OW  HW  HW  EP  OW  HW  HW  EP  OW  HW  HW  EP  OW  HW  HW  EP  OW  
HW  HW  EP  OW  HW  HW  EP  OW  HW  HW  EP  OW  HW  HW  EP  OW  HW  HW  EP  OW  
HW  HW  EP  OW  HW  HW  EP  OW  HW  HW  EP  OW  HW  HW  EP  OW  HW  HW  EP  OW  
HW  HW  EP  OW  HW  HW  EP  OW  HW  HW  EP  OW  HW  HW  EP  OW  HW  HW  EP  OW  
HW  HW  EP  OW  HW  HW  EP  OW  HW  HW  EP  OW  HW  HW  EP  OW  HW  HW  EP  OW  
HW  HW  EP  OW  HW  HW  EP  OW  HW  HW  EP  OW  HW  HW  EP  OW  HW  HW  EP  OW  
HW  HW  EP  OW  HW  HW  EP  OW  HW  HW  EP  OW  HW  HW  EP  OW  HW  HW  EP  OW  
HW  HW  EP  OW  HW  HW  EP  OW  HW  HW  EP  OW  HW  HW  EP  OW  HW  HW  EP  OW  
HW  HW  EP  OW  HW  HW  EP  OW  HW  HW  EP  OW  HW  HW  EP  OW  HW  HW  EP  OW  
HW  HW  EP  OW  HW  HW  EP  OW  HW  HW  EP  OW  HW  HW  EP  OW  HW  HW  EP  OW  
HW  HW  EP  OW  HW  HW  EP  OW  HW  HW  EP  OW  HW  HW  EP  OW  HW  HW  EP  OW  
HW  HW  EP  OW  HW  HW  EP  OW  HW  HW  EP  OW  HW  HW  EP  OW  HW  HW  EP  OW  
HW  HW  EP  OW  HW  HW  EP  OW  HW  HW  EP  OW  HW  HW  EP  OW  HW  HW  EP  OW  
HW  HW  EP  OW  HW  HW  EP  OW  HW  HW  EP  OW  HW  HW  EP  OW  HW  HW  EP  OW  
HW  HW  EP  OW  HW  HW  EP  OW  HW  HW  EP  OW  HW  HW  EP  OW  HW  HW  EP  OW  
HW  HW  EP  OW  HW  HW  EP  OW  HW  HW  EP  OW  HW  HW  EP  OW  HW  HW  EP  OW  
HW  HW  EP  OW  HW  HW  EP  OW  HW  HW  EP  OW  HW  HW  EP  OW  HW  HW  EP  OW  
HW  HW  EP  OW  HW  HW  EP  OW  HW  HW  EP  OW  HW  HW  EP  OW  HW  HW  EP  OW  
HW  HW  EP  OW  HW  HW  EP  OW  HW  HW  EP  OW  HW  HW  EP  OW  HW  HW  EP  OW  
HW  HW  EP  OW  HW  HW  EP  OW  HW  HW  EP  OW  HW  HW  EP  OW  HW  HW  EP  OW  
HW  HW  EP  OW  HW  HW  EP  OW  HW  HW  EP  OW  HW  HW  EP  OW  HW  HW  EP  OW  
HW  HW  EP  OW  HW  HW  EP  OW  HW  HW  EP  OW  HW  HW  EP  OW  HW  HW  EP  OW  
HW  HW  EP  OW  HW  HW  EP  OW  HW  HW  EP  OW  HW  HW  EP  OW  HW  HW  EP  OW  
HW  HW  EP  OW  HW  HW  EP  OW  HW  HW  EP  OW  HW  HW  EP  OW  HW  HW  EP  OW  
HW  HW  EP  OW  HW  HW  EP  OW  HW  HW  EP  OW  HW  HW  EP  OW  HW  HW  EP  OW  
HW  HW  EP  OW  HW  HW  EP  OW  HW  HW  EP  OW  HW  HW  EP  OW  HW  HW  EP  OW  
HW  HW  EP  OW  HW  HW  EP  OW  HW  HW  EP  OW  HW  HW  EP  OW  HW  HW  EP  OW  
HW  HW  EP  OW  HW  HW  EP  OW  HW  HW  EP  OW  HW  HW  EP  OW  HW  HW  EP  OW  
HW  HW  EP  OW  HW  HW  EP  OW  HW  HW  EP  OW  HW  HW  EP  OW  HW  HW  EP  OW  
HW  HW  EP  OW  HW  HW  EP  OW  HW  HW  EP  OW  HW  HW  EP  OW  HW  HW  EP  OW  
HW  HW  EP  OW  HW  HW  EP  OW  HW  HW  EP  OW  HW  HW  EP  OW  HW  HW  EP  OW  
HW  HW  EP  OW  HW  HW  EP  OW  HW  HW  EP  OW  HW  HW  EP  OW  HW  HW  EP  OW  
HW  HW  EP  OW  HW  HW  EP  OW  HW  HW  EP  OW  HW  HW  EP  OW  HW  HW  EP  OW  
HW  HW  EP  OW  HW  HW  EP  OW  HW  HW  EP  OW  HW  HW  EP  OW  HW  HW  EP  OW  
HW  HW  EP  OW  HW  HW  EP  OW  HW  HW  EP  OW  HW  HW  EP  OW  HW  HW  EP  OW  
HW  HW  EP  OW  HW  HW  EP  OW  HW  HW  EP  OW  HW  HW  EP  OW  HW  HW  EP  OW  
HW  HW  EP  OW  HW  HW  EP  OW  HW  HW  EP  OW  HW  HW  EP  OW  HW  HW  EP  OW  
HW  HW  EP  OW  HW  HW  EP  OW  HW  HW  EP  OW  HW  HW  EP  OW  HW  HW  EP  OW  
HW  HW  EP  OW  HW  HW  EP  OW  HW  HW  EP  OW  HW  HW  EP  OW  HW  HW  EP  OW  
HW  HW  EP  OW  HW  HW  EP  OW  HW  HW  EP  OW  HW  HW  EP  OW  HW  HW  EP  OW  
HW  HW  EP  OW  HW  HW  EP  OW  HW  HW  EP  OW  HW  HW  EP  OW  HW  HW  EP  OW  
HW  HW  EP  OW  HW  HW  EP  OW  HW  HW  EP  OW  HW  HW  EP  OW  HW  HW  EP  OW  
HW  HW  EP  OW  HW  HW  EP  OW  HW  HW  EP  OW  HW  HW  EP  OW  HW  HW  EP  OW  
HW  HW  EP  OW  HW  HW  EP  OW  HW  HW  EP  OW  HW  HW  EP  OW  HW  HW  EP  OW  
HW  HW  EP  OW  HW  HW  EP  OW  HW  HW  EP  OW  HW  HW  EP  OW  HW  HW  EP  OW  
HW  HW  EP  OW  HW  HW  EP  OW  HW  HW  EP  OW  HW  HW  EP  OW  HW  HW  EP  OW  
HW  HW  EP  OW  HW  HW  EP  OW  HW  HW  EP  OW  HW  HW  EP  OW  HW  HW  EP  OW  
HW  HW  EP  OW  HW  HW  EP  OW  HW  HW  EP  OW  HW  HW  EP  OW  HW  HW  EP  OW  
HW  HW  EP  OW  HW  HW  EP  OW  HW  HW  EP  OW  HW  HW  EP  OW  HW  HW  EP  OW  
HW  HW  EP  OW  HW  HW  EP  OW  HW  HW  EP  OW  HW  HW  EP  OW  HW  HW  EP  OW  
HW  HW  EP  OW  HW  HW  EP  OW  HW  HW  EP  OW  HW  HW  EP  OW  HW  HW  EP  OW  
HW  HW  EP  OW  HW  HW  EP  OW  HW  HW  EP  OW  HW  HW  EP  OW  HW  HW  EP  OW  
HW  HW  EP  OW  HW  HW  EP  OW  HW  HW  EP  OW  HW  HW  EP  OW  HW  HW  EP  OW  
HW  HW  EP  OW  HW  HW  EP  OW  HW  HW  EP  OW  HW  HW  EP  OW  HW  HW  EP  OW  
HW  HW  EP  OW  HW  HW  EP  OW  HW  HW  EP  OW  HW  HW  EP  OW  HW  HW  EP  OW  
HW  HW  EP  OW  HW  HW  EP  OW  HW  HW  EP  OW  HW  HW  EP  OW  HW  HW  EP  OW  
HW  HW  EP  OW  HW  HW  EP  OW  HW  HW  EP  OW  HW  HW  EP  OW  HW  HW  EP  OW  
HW  HW  EP  OW  HW  HW  EP  OW  HW  HW  EP  OW  HW  HW  EP  OW  HW  HW  EP  OW  
HW  HW  EP  OW  HW  HW  EP  OW  HW  HW  EP  OW  HW  HW  EP  OW  HW  HW  EP  OW  
HW  HW  EP  OW  HW  HW  EP  OW  HW  HW  EP  OW  HW  HW  EP  OW  HW  HW  EP  OW  
HW  HW  EP  OW  HW  HW  EP  OW  HW  HW  EP  OW  HW  HW  EP  OW  HW  HW  EP  OW  
HW  HW  EP  OW  HW  HW  EP  OW  HW  HW  EP  OW  HW  HW  EP  OW  HW  HW  EP  OW  
HW  HW  EP  OW  HW  HW  EP  OW  HW  HW  EP  OW  HW  HW  EP  OW  HW  HW  EP  OW  
HW  HW  EP  OW  HW  HW  EP  OW  HW  HW  EP  OW  HW  HW  EP  OW  HW  HW  EP  OW  
HW  HW  EP  OW  HW  HW  EP  OW  HW  HW  EP  OW  HW  HW  EP  OW  HW  HW  EP  OW  
HW  HW  EP  OW  HW  HW  EP  OW  HW  HW  EP  OW  HW  HW  EP  OW  HW  HW  EP  OW  
HW  HW  EP  OW  HW  HW  EP  OW  HW  HW  EP  OW  HW  HW  EP  OW  HW  HW  EP  OW  
HW  HW  EP  OW  HW  HW  EP  OW  HW  HW  EP  OW  HW  HW  EP  OW  HW  HW  EP  OW  
HW  HW  EP  OW  HW  HW  EP  OW  HW  HW  EP  OW  HW  HW  EP  OW  HW  HW  EP  OW  
HW  HW  EP  OW  HW  HW  EP  OW  HW  HW  EP  OW  HW  HW  EP  OW  HW  HW  EP  OW  
HW  HW  EP  OW  HW  HW  EP  OW  HW  HW  EP  OW  HW  HW  EP  OW  HW  HW  EP  OW  
HW  HW  EP  OW  HW  HW  EP  OW  HW  HW  EP  OW  HW  HW  EP  OW  HW  HW  EP  OW  
HW  HW  EP  OW  HW  HW  EP  OW  HW  HW  EP  OW  HW  HW  EP  OW  HW  HW  EP  OW  
HW  HW  EP  OW  HW  HW  EP  OW  HW  HW  EP  OW  HW  HW  EP  OW  HW  HW  EP  OW  
HW  HW  EP  OW  HW  HW  EP  OW  HW  HW  EP  OW  HW  HW  EP  OW  HW  HW  EP  OW  
HW  HW  EP  OW  HW  HW  EP  OW  HW  HW  EP  OW  HW  HW  EP  OW  HW  HW  EP  OW  
HW  HW  EP  OW  HW  HW  EP  OW  HW  HW  EP  OW  HW  HW  EP  OW  HW  HW  EP  OW  
HW  HW  EP  OW  HW  HW  EP  OW  HW  HW  EP  OW  HW  HW  EP  OW  HW  HW  EP  OW  
HW  HW  EP  OW  HW  HW  EP  OW  HW  HW  EP  OW  HW  HW  EP  OW  HW  HW  EP  OW  
HW  HW  EP  OW  HW  HW  EP  OW  HW  HW  EP  OW  HW  HW  EP  OW  HW  HW  EP  OW  
HW  HW  EP  OW  HW  HW  EP  OW  HW  HW  EP  OW  HW  HW  EP  OW  HW  HW  EP  OW  
HW  HW  EP  OW  HW  HW  EP  OW  HW  HW  EP  OW  HW  HW  EP  OW  HW  HW  EP  OW  
HW  HW  EP  OW  HW  HW  EP  OW  HW  HW  EP  OW  HW  HW  EP  OW  HW  HW  EP  OW  
HW  HW  EP  OW  HW  HW  EP  OW  HW  HW  EP  OW  HW  HW  EP  OW  HW  HW  EP  OW  
HW  HW  EP  OW  HW  HW  EP  OW  HW  HW  EP  OW  HW  HW  EP  OW  HW  HW  EP  OW  
HW  HW  EP  OW  HW  HW  EP  OW  HW  HW  EP  OW  HW  HW  EP  OW  HW  HW  EP  OW  
HW  HW  EP  OW  HW  HW  EP  OW  HW  HW  EP  OW  HW  HW  EP  OW  HW  HW  EP  OW  
HW  HW  EP  OW  HW  HW  EP  OW  HW  HW  EP  OW  HW  HW  EP  OW  HW  HW  EP  OW  
HW  HW  EP  OW  HW  HW  EP  OW  HW  HW  EP  OW  HW  HW  EP  OW  HW  HW  EP  OW  
HW  HW  EP  OW  HW  HW  EP  OW  HW  HW  EP  OW  HW  HW  EP  OW  HW  HW  EP  OW  
HW  HW  EP  OW  HW  HW  EP  OW  HW  HW  EP  OW  HW  HW  EP  OW  HW  HW  EP  OW  
HW  HW  EP  OW  HW  HW  EP  OW  HW  HW  EP  OW  HW  HW  EP  OW  HW  HW  EP  OW  
HW  HW  EP  OW  HW  HW  EP  OW  HW  HW  EP  OW  HW  HW  EP  OW  HW  HW  EP  OW  
HW  HW  EP  OW  HW  HW  EP  OW  HW  HW  EP  OW  HW  HW  EP  OW  HW  HW  EP  OW  
HW  HW  EP  OW  HW  HW  EP  OW  HW  HW  EP  OW  HW  HW  EP  OW  HW  HW  EP  OW  
HW  HW  EP  OW  HW  HW  EP  OW  HW  HW  EP  OW  HW  HW  EP  OW  HW  HW  EP  OW  
HW  HW  EP  OW  HW  HW  EP  OW  HW  HW  EP  OW  HW  HW  EP  OW  HW  HW  EP  OW  
HW  HW  EP  OW  HW  HW  EP  OW  HW  HW  EP  OW  HW  HW  EP  OW  HW  HW  EP  OW  
HW  HW  EP  OW  HW  HW  EP  OW  HW  HW  EP  OW  HW  HW  EP  OW  HW  HW  EP  OW  
HW  HW  EP  OW  HW  HW  EP  OW  HW  HW  EP  OW  HW  HW  EP  OW  HW  HW  EP  OW  
HW  HW  EP  OW  HW  HW  EP  OW  HW  HW  EP  OW  HW  HW  EP  OW  HW  HW  EP  OW  
HW  HW  EP  OW  HW  HW  EP  OW  HW  HW  EP  OW  HW  HW  EP  OW  HW  HW  EP  OW  
HW  HW  EP  OW  HW  HW  EP  OW  HW  HW  EP  OW  HW  HW  EP  OW  HW  HW  EP  OW  
HW  HW  EP  OW  HW  HW  EP  OW  HW  HW  EP  OW  HW  HW  EP  OW  HW  HW  EP  OW  
HW  HW  EP  OW  HW  HW  EP  OW  HW  HW  EP  OW  HW  HW  EP  OW  HW  HW  EP  OW  
HW  HW  EP  OW  HW  HW  EP  OW  HW  HW  EP  OW  HW  HW  EP  OW  HW  HW  EP  OW  
HW  HW  EP  OW  HW  HW  EP  OW  HW  HW  EP  OW  HW  HW  EP  OW  HW  HW  EP  OW  
HW  HW  EP  OW  HW  HW  EP  OW  HW  HW  EP  OW  HW  HW  EP  OW  HW  HW  EP  OW  
HW  HW  EP  OW  HW  HW  EP  OW  HW  HW  EP  OW  HW  HW  EP  OW  HW  HW  EP  OW  
HW  HW  EP  OW  HW  HW  EP  OW  HW  HW  EP  OW  HW  HW  EP  OW  HW  HW  EP  OW  
HW  HW  EP  OW  HW  HW  EP  OW  HW  HW  EP  OW  HW  HW  EP  OW  HW  HW  EP  OW  
HW  HW  EP  OW  HW  HW  EP  OW  HW  HW  EP  OW  HW  HW  EP  OW  HW  HW  EP  OW  
HW  HW  EP  OW  HW  HW  EP  OW  HW  HW  EP  OW  HW  HW  EP  OW  HW  HW  EP  OW  
HW  HW  EP  OW  HW  HW  EP  OW  HW  HW  EP  OW  HW  HW  EP  OW  HW  HW  EP  OW  
HW  HW  EP  OW  HW  HW  EP  OW  HW  HW  EP  OW  HW  HW  EP  OW  HW  HW  EP  OW  
HW  HW  EP  OW  HW  HW  EP  OW  HW  HW  EP  OW  HW  HW  EP  OW  HW  HW  EP  OW  
HW  HW  EP  OW  HW  HW  EP  OW  HW  HW  EP  OW  HW  HW  EP  OW  HW  HW  EP  OW  
HW  HW  EP  OW  HW  HW  EP  OW  HW  HW  EP  OW  HW  HW  EP  OW  HW  HW  EP  OW  
HW  HW  EP  OW  HW  HW  EP  OW  HW  HW  EP  OW  HW  HW  EP  OW  HW  HW  EP  OW  
HW  HW  EP  OW  HW  HW  EP  OW  HW  HW  EP  OW  HW  HW  EP  OW  HW  HW  EP  OW  
HW  HW  EP  OW  HW  HW  EP  OW  HW  HW  EP  OW  HW  HW  EP  OW  HW  HW  EP  OW  
HW  HW  EP  OW  HW  HW  EP  OW  HW  HW  EP  OW  HW  HW  EP  OW  HW  HW  EP  OW  
HW  HW  EP  OW  HW  HW  EP  OW  HW  HW  EP  OW  HW  HW  EP  OW  HW  HW  EP  OW  
HW  HW  EP  OW  HW  HW  EP  OW  HW  HW  EP  OW  HW  HW  EP  OW  HW  HW  EP  OW  
HW  HW  EP  OW  HW  HW  EP  OW  HW  HW  EP  OW  HW  HW  EP  OW  HW  HW  EP  OW  
HW  HW  EP  OW  HW  HW  EP  OW  HW  HW  EP  OW  HW  HW  EP  OW  HW  HW  EP  OW  
HW  HW  EP  OW  HW  HW  EP  OW  HW  HW  EP  OW  HW  HW  EP  OW  HW  HW  EP  OW  
HW  HW  EP  OW  HW  HW  EP  OW  HW  HW  EP  OW  HW  HW  EP  OW  HW  HW  EP  OW  
HW  HW  EP  OW  HW  HW  EP  OW  HW  HW  EP  OW  HW  HW  EP  OW  HW  HW  EP  OW  
HW  HW  EP  OW  HW  HW  EP  OW  HW  HW  EP  OW  HW  HW  EP  OW  HW  HW  EP  OW  
HW  HW  EP  OW  HW  HW  EP  OW  HW  HW  EP  OW  HW  HW  EP  OW  HW  HW  EP  OW  
HW  HW  EP  OW  HW  HW  EP  OW  HW  HW  EP  OW  HW  HW  EP  OW  HW  HW  EP  OW  
HW  HW  EP  OW  HW  HW  EP  OW  HW  HW  EP  OW  HW  HW  EP  OW  HW  HW  EP  OW  
HW  HW  EP  OW  HW  HW  EP  OW  HW  HW  EP  OW  HW  HW  EP  OW  HW  HW  EP  OW  
HW  HW  EP  OW  HW  HW  EP  OW  HW  HW  EP  OW  HW  HW  EP  OW  HW  HW  EP  OW  
HW  HW  EP  OW  HW  HW  EP  OW  HW  HW  EP  OW  HW  HW  EP  OW  HW  HW  EP  OW  
HW  HW  EP  OW  HW  HW  EP  OW  HW  HW  EP  OW  HW  HW  EP  OW  HW  HW  EP  OW  
HW  HW  EP  OW  HW  HW  EP  OW  HW  HW  EP  OW  HW  HW  EP  OW  HW  HW  EP  OW  
HW  HW  EP  OW  HW  HW  EP  OW  HW  HW  EP  OW  HW  HW  EP  OW  HW  HW  EP  OW  
HW  HW  EP  OW  HW  HW  EP  OW  HW  HW  EP  OW  HW  HW  EP  OW  HW  HW  EP  OW  
HW  HW  EP  OW  HW  HW  EP  OW  HW  HW  EP  OW  HW  HW  EP  OW  HW  HW  EP  OW  
HW  HW  EP  OW  HW  HW  EP  OW  HW  HW  EP  OW  HW  HW  EP  OW  HW  HW  EP  OW  
HW  HW  EP  OW  HW  HW  EP  OW  HW  HW  EP  OW  HW  HW  EP  OW  HW  HW  EP  OW  
HW  HW  EP  OW  HW  HW  EP  OW  HW  HW  EP  OW  HW  HW  EP  OW  HW  HW  EP  OW  
HW  HW  EP  OW  HW  HW  EP  OW  HW  HW  EP  OW  HW  HW  EP  OW  HW  HW  EP  OW  
HW  HW  EP  OW  HW  HW  EP  OW  HW  HW  EP  OW  HW  HW  EP  OW  HW  HW  EP  OW  
HW  HW  EP  OW  HW  HW  EP  OW  HW  HW  EP  OW  HW  HW  EP  OW  HW  HW  EP  OW  
HW  HW  EP  OW  HW  HW  EP  OW  HW  HW  EP  OW  HW  HW  EP  OW  HW  HW  EP  OW  
HW  HW  EP  OW  HW  HW  EP  OW  HW  HW  EP  OW  HW  HW  EP  OW  HW  HW  EP  OW  
HW  HW  EP  OW  HW  HW  EP  OW  HW  HW  EP  OW  HW  HW  EP  OW  HW  HW  EP  OW  
HW  HW  EP  OW  HW  HW  EP  OW  HW  HW  EP  OW  HW  HW  EP  OW  HW  HW  EP  OW  
HW  HW  EP  OW  HW  HW  EP  OW  HW  HW  EP  OW  HW  HW  EP  OW  HW  HW  EP  OW  
HW  HW  EP  OW  HW  HW  EP  OW  HW  HW  EP  OW  HW  HW  EP  OW  HW  HW  EP  OW  
HW  HW  EP  OW  HW  HW  EP  OW  HW  HW  EP  OW  HW  HW  EP  OW  HW  HW  EP  OW  
HW  HW  EP  OW  HW  HW  EP  OW  HW  HW  EP  OW  HW  HW  EP  OW  HW  HW  EP  OW  
HW  HW  EP  OW  HW  HW  EP  OW  HW  HW  EP  OW  HW  HW  EP  OW  HW  HW  EP  OW  
HW  HW  EP  OW  HW  HW  EP  OW  HW  HW  EP  OW  HW  HW  EP  OW  HW  HW  EP  OW  
HW  HW  EP  OW  HW  HW  EP  OW  HW  HW  EP  OW  HW  HW  EP  OW  HW  HW  EP  OW  
HW  HW  EP  OW  HW  HW  EP  OW  HW  HW  EP  OW  HW  HW  EP  OW  HW  HW  EP  OW  
HW  HW  EP  OW  HW  HW  EP  OW  HW  HW  EP  OW  HW  HW  EP  OW  HW  HW  EP  OW  
HW  HW  EP  OW  HW  HW  EP  OW  HW  HW  EP  OW  HW  HW  EP  OW  HW  HW  EP  OW  
HW  HW  EP  OW  HW  HW  EP  OW  HW  HW  EP  OW  HW  HW  EP  OW  HW  HW  EP  OW  
HW  HW  EP  OW  HW  HW  EP  OW  HW  HW  EP  OW  HW  HW  EP  OW  HW  HW  EP  OW  
HW  HW  EP  OW  HW  HW  EP  OW  HW  HW  EP  OW  HW  HW  EP  OW  HW  HW  EP  OW  
HW  HW  EP  OW  HW  HW  EP  OW  HW  HW  EP  OW  HW  HW  EP  OW  HW  HW  EP  OW  
HW  HW  EP  OW  HW  HW  EP  OW  HW  HW  EP  OW  HW  HW  EP  OW  HW  HW  EP  OW  
HW  HW  EP  OW  HW  HW  EP  OW  HW  HW  EP  OW  HW  HW  EP  OW  HW  HW  EP  OW  
HW  HW  EP  OW  HW  HW  EP  OW  HW  HW  EP  OW  HW  HW  EP  OW  HW  HW  EP  OW  
HW  HW  EP  OW  HW  HW  EP  OW  HW  HW  EP  OW  HW  HW  EP  OW  HW  HW  EP  OW  
HW  HW  EP  OW  HW  HW  EP  OW  HW  HW  EP  OW  HW  HW  EP  OW  HW  HW  EP  OW  
HW  HW  EP  OW  HW  HW  EP  OW  HW  HW  EP  OW  HW  HW  EP  OW  HW  HW  EP  OW  
HW  HW  EP  OW  HW  HW  EP  OW  HW  HW  EP  OW  HW  HW  EP  OW  HW  HW  EP  OW  
HW  HW  EP  OW  HW  HW  EP  OW  HW  HW  EP  OW  HW  HW  EP  OW  HW  HW  EP  OW  
HW  HW  EP  OW  HW  HW  EP  OW  HW  HW  EP  OW  HW  HW  EP  OW  HW  HW  EP  OW  
HW  HW  EP  OW  HW  HW  EP  OW  HW  HW  EP  OW  HW  HW  EP  OW  HW  HW  EP  OW  
HW  HW  EP  OW  HW  HW  EP  OW  HW  HW  EP  OW  HW  HW  EP  OW  HW  HW  EP  OW  
HW  HW  EP  OW  HW  HW  EP  OW  HW  HW  EP  OW  HW  HW  EP  OW  HW  HW  EP  OW  
HW  HW  EP  OW  HW  HW  EP  OW  HW  HW  EP  OW  HW  HW  EP  OW  HW  HW  EP  OW  
HW  HW  EP  OW  HW  HW  EP  OW  HW  HW  EP  OW  HW  HW  EP  OW  HW  HW  EP  OW  
HW  HW  EP  OW  HW  HW  EP  OW  HW  HW  EP  OW  HW  HW  EP  OW  HW  HW  EP  OW  
HW  HW  EP  OW  HW  HW  EP  OW  HW  HW  EP  OW  HW  HW  EP  OW  HW  HW  EP  OW  
HW  HW  EP  OW  HW  HW  EP  OW  HW  HW  EP  OW  HW  HW  EP  OW  HW  HW  EP  OW  
HW  HW  EP  OW  HW  HW  EP  OW  HW  HW  EP  OW  HW  HW  EP  OW  HW  HW  EP  OW  
HW  HW  EP  OW  HW  HW  EP  OW  HW  HW  EP  OW  HW  HW  EP  OW  HW  HW  EP  OW  
HW  HW  EP  OW  HW  HW  EP  OW  HW  HW  EP  OW  HW  HW  EP  OW  HW  HW  EP  OW  
HW  HW  EP  OW  HW  HW  EP  OW  HW  HW  EP  OW  HW  HW  EP  OW  HW  HW  EP  OW  
HW  HW  EP  OW  HW  HW  EP  OW  HW  HW  EP  OW  HW  HW  EP  OW  HW  HW  EP  OW  
HW  HW  EP  OW  HW  HW  EP  OW  HW  HW  EP  OW  HW  HW  EP  OW  HW  HW  EP  OW  
HW  HW  EP  OW  HW  HW  EP  OW  HW  HW  EP  OW  HW  HW  EP  OW  HW  HW  EP  OW  
HW  HW  EP  OW  HW  HW  EP  OW  HW  HW  EP  OW  HW  HW  EP  OW  HW  HW  EP  OW  
HW  HW  EP  OW  HW  HW  EP  OW  HW  HW  EP  OW  HW  HW  EP  OW  HW  HW  EP  OW  
HW  HW  EP  OW  HW  HW  EP  OW  HW  HW  EP  OW  HW  HW  EP  OW  HW  HW  EP  OW  
HW  HW  EP  OW  HW  HW  EP  OW  HW  HW  EP  OW  HW  HW  EP  OW  HW  HW  EP  OW  
HW  HW  EP  OW  HW  HW  EP  OW  HW  HW  EP  OW  HW  HW  EP  OW  HW  HW  EP  OW  
HW  HW  EP  OW  HW  HW  EP  OW  HW  HW  EP  OW  HW  HW  EP  OW  HW  HW  EP  OW  
HW  HW  EP  OW  HW  HW  EP  OW  HW  HW  EP  OW  HW  HW  EP  OW  HW  HW  EP  OW  
HW  HW  EP  OW  HW  HW  EP  OW  HW  HW  EP  OW  HW  HW  EP  OW  HW  HW  EP  OW  
HW  HW  EP  OW  HW  HW  EP  OW  HW  HW  EP  OW  HW  HW  EP  OW  HW  HW  EP  OW  
HW  HW  EP  OW  HW  HW  EP  OW  HW  HW  EP  OW  HW  HW  EP  OW  HW  HW  EP  OW  
HW  HW  EP  OW  HW  HW  EP  OW  HW  HW  EP  OW  HW  HW  EP  OW  HW  HW  EP  OW  
HW  HW  EP  OW  HW  HW  EP  OW  HW  HW  EP  OW  HW  HW  EP  OW  HW  HW  EP  OW  
HW  HW  EP  OW  HW  HW  EP  OW  HW  HW  EP  OW  HW  HW  EP  OW  HW  HW  EP  OW  
HW  HW  EP  OW  HW  HW  EP  OW  HW  HW  EP  OW  HW  HW  EP  OW  HW  HW  EP  OW  
HW  HW  EP  OW  HW  HW  EP  OW  HW  HW  EP  OW  HW  HW  EP  OW  HW  HW  EP  OW  
HW  HW  EP  OW  HW  HW  EP  OW  HW  HW  EP  OW  HW  HW  EP  OW  HW  HW  EP  OW  
HW  HW  EP  OW  HW  HW  EP  OW  HW  HW  EP  OW  HW  HW  EP  OW  HW  HW  EP  OW  
HW  HW  EP  OW  HW  HW  EP  OW  HW  HW  EP  OW  HW  HW  EP  OW  HW  HW  EP  OW  
HW  HW  EP  OW  HW  HW  EP  OW  HW  HW  EP  OW  HW  HW  EP  OW  HW  HW  EP  OW  
HW  HW  EP  OW  HW  HW  EP  OW  HW  HW  EP  OW  HW  HW  EP  OW  HW  HW  EP  OW  
HW  HW  EP  OW  HW  HW  EP  OW  HW  HW  EP  OW  HW  HW  EP  OW  HW  HW  EP  OW  
HW  HW  EP  OW  HW  HW  EP  OW  HW  HW  EP  OW  HW  HW  EP  OW  HW  HW  EP  OW  
HW  HW  EP  OW  HW  HW  EP  OW  HW  HW  EP  OW  HW  HW  EP  OW  HW  HW  EP  OW  
HW  HW  EP  OW  HW  HW  EP  OW  HW  HW  EP  OW  HW  HW  EP  OW  HW  HW  EP  OW  
HW  HW  EP  OW  HW  HW  EP  OW  HW  HW  EP  OW  HW  HW  EP  OW  HW  HW  EP  OW  
HW  HW  EP  OW  HW  HW  EP  OW  HW  HW  EP  OW  HW  HW  EP  OW  HW  HW  EP  OW  
HW  HW  EP  OW  HW  HW  EP  OW  HW  HW  EP  OW  HW  HW  EP  OW  HW  HW  EP  OW  
HW  HW  EP  OW  HW  HW  EP  OW  HW  HW  EP  OW  HW  HW  EP  OW  HW  HW  EP  OW  
HW  HW  EP  OW  HW  HW  EP  OW  HW  HW  EP  OW  HW  HW  EP  OW  HW  HW  EP  OW  
HW  HW  EP  OW  HW  HW  EP  OW  HW  HW  EP  OW  HW  HW  EP  OW  HW  HW  EP  OW  
HW  HW  EP  OW  HW  HW  EP  OW  HW  HW  EP  OW  HW  HW  EP  OW  HW  HW  EP  OW  
HW  HW  EP  OW  HW  HW  EP  OW  HW  HW  EP  OW  HW  HW  EP  OW  HW  HW  EP  OW  
HW  HW  EP  OW  HW  HW  EP  OW  HW  HW  EP  OW  HW  HW  EP  OW  HW  HW  EP  OW  
HW  HW  EP  OW  HW  HW  EP  OW  HW  HW  EP  OW  HW  HW  EP  OW  HW  HW  EP  OW  
HW  HW  EP  OW  HW  HW  EP  OW  HW  HW  EP  OW  HW  HW  EP  OW  HW  HW  EP  OW  
HW  HW  EP  OW  HW  HW  EP  OW  HW  HW  EP  OW  HW  HW  EP  OW  HW  HW  EP  OW  
HW  HW  EP  OW  HW  HW  EP  OW  HW  HW  EP  OW  HW  HW  EP  OW  HW  HW  EP  OW  
HW  HW  EP  OW  HW  HW  EP  OW  HW  HW  EP  OW  HW  HW  EP  OW  HW  HW  EP  OW  
HW  HW  EP  OW  HW  HW  EP  OW  HW  HW  EP  OW  HW  HW  EP  OW  HW  HW  EP  OW  
HW  HW  EP  OW  HW  HW  EP  OW  HW  HW  EP  OW  HW  HW  EP  OW  HW  HW  EP  OW  
HW  HW  EP  OW  HW  HW  EP  OW  HW  HW  EP  OW  HW  HW  EP  OW  HW  HW  EP  OW  
HW  HW  EP  OW  HW  HW  EP  OW  HW  HW  EP  OW  HW  HW  EP  OW  HW  HW  EP  OW  
HW  HW  EP  OW  HW  HW  EP  OW  HW  HW  EP  OW  HW  HW  EP  OW  HW  HW  EP  OW  
HW  HW  EP  OW  HW  HW  EP  OW  HW  HW  EP  OW  HW  HW  EP  OW  HW  HW  EP  OW  
HW  HW  EP  OW  HW  HW  EP  OW  HW  HW  EP  OW  HW  HW  EP  OW  HW  HW  EP  OW  
HW  HW  EP  OW  HW  HW  EP  OW  HW  HW  EP  OW  HW  HW  EP  OW  HW  HW  EP  OW  
HW  HW  EP  OW  HW  HW  EP  OW  HW  HW  EP  OW  HW  HW  EP  OW  HW  HW  EP  OW  
HW  HW  EP  OW  HW  HW  EP  OW  HW  HW  EP  OW  HW  HW  EP  OW  HW  HW  EP  OW  
HW  HW  EP  OW  HW  HW  EP  OW  HW  HW  EP  OW  HW  HW  EP  OW  HW  HW  EP  OW  
HW  HW  EP  OW  HW  HW  EP  OW  HW  HW  EP  OW  HW  HW  EP  OW  HW  HW  EP  OW  
HW  HW  EP  OW  HW  HW  EP  OW  HW  HW  EP  OW  HW  HW  EP  OW  HW  HW  EP  OW  
HW  HW  EP  OW  HW  HW  EP  OW  HW  HW  EP  OW  HW  HW  EP  OW  HW  HW  EP  OW  
HW  HW  EP  OW  HW  HW  EP  OW  HW  HW  EP  OW  HW  HW  EP  OW  HW  HW  EP  OW  
HW  HW  EP  OW  HW  HW  EP  OW  HW  HW  EP  OW  HW  HW  EP  OW  HW  HW  EP  OW  
HW  HW  EP  OW  HW  HW  EP  OW  HW  HW  EP  OW  HW  HW  EP  OW  HW  HW  EP  OW  
HW  HW  EP  OW  HW  HW  EP  OW  HW  HW  EP  OW  HW  HW  EP  OW  HW  HW  EP  OW  
HW  HW  EP  OW  HW  HW  EP  OW  HW  HW  EP  OW  HW  HW  EP  OW  HW  HW  EP  OW  
HW  HW  EP  OW  HW  HW  EP  OW  HW  HW  EP  OW  HW  HW  EP  OW  HW  HW  EP  OW  
HW  HW  EP  OW  HW  HW  EP  OW  HW  HW  EP  OW  HW  HW  EP  OW  HW  HW  EP  OW  
HW  HW  EP  OW  HW  HW  EP  OW  HW  HW  EP  OW  HW  HW  EP  OW  HW  HW  EP  OW  
HW  HW  EP  OW  HW  HW  EP  OW  HW  HW  EP  OW  HW  HW  EP  OW  HW  HW  EP  OW  
HW  HW  EP  OW  HW  HW  EP  OW  HW  HW  EP  OW  HW  HW  EP  OW  HW  HW  EP  OW  
HW  HW  EP  OW  HW  HW  EP  OW  HW  HW  EP  OW  HW  HW  EP  OW  HW  HW  EP  OW  
HW  HW  EP  OW  HW  HW  EP  OW  HW  HW  EP  OW  HW  HW  EP  OW  HW  HW  EP  OW  
HW  HW  EP  OW  HW  HW  EP  OW  HW  HW  EP  OW  HW  HW  EP  OW  HW  HW  EP  OW  
HW  HW  EP  OW  HW  HW  EP  OW  HW  HW  EP  OW  HW  HW  EP  OW  HW  HW  EP  OW  
HW  HW  EP  OW  HW  HW  EP  OW  HW  HW  EP  OW  HW  HW  EP  OW  HW  HW  EP  OW  
HW  HW  EP  OW  HW  HW  EP  OW  HW  HW  EP  OW  HW  HW  EP  OW  HW  HW  EP  OW  
HW  HW  EP  OW  HW  HW  EP  OW  HW  HW  EP  OW  HW  HW  EP  OW  HW  HW  EP  OW  
HW  HW  EP  OW  HW  HW  EP  OW  HW  HW  EP  OW  HW  HW  EP  OW  HW  HW  EP  OW  
HW  HW  EP  OW  HW  HW  EP  OW  HW  HW  EP  OW  HW  HW  EP  OW  HW  HW  EP  OW  
HW  HW  EP  OW  HW  HW  EP  OW  HW  HW  EP  OW  HW  HW  EP  OW  HW  HW  EP  OW  
HW  HW  EP  OW  HW  HW  EP  OW  HW  HW  EP  OW  HW  HW  EP  OW  HW  HW  EP  OW  
HW  HW  EP  OW  HW  HW  EP  OW  HW  HW  EP  OW  HW  HW  EP  OW  HW  HW  EP  OW  
HW  HW  EP  OW  HW  HW  EP  OW  HW  HW  EP  OW  HW  HW  EP  OW  HW  HW  EP  OW  
HW  HW  EP  OW  HW  HW  EP  OW  HW  HW  EP  OW  HW  HW  EP  OW  HW  HW  EP  OW  
HW  HW  EP  OW  HW  HW  EP  OW  HW  HW  EP  OW  HW  HW  EP  OW  HW  HW  EP  OW  
HW  HW  EP  OW  HW  HW  EP  OW  HW  HW  EP  OW  HW  HW  EP  OW  HW  HW  EP  OW  
HW  HW  EP  OW  HW  HW  EP  OW  HW  HW  EP  OW  HW  HW  EP  OW  HW  HW  EP  OW  
HW  HW  EP  OW  HW  HW  EP  OW  HW  HW  EP  OW  HW  HW  EP  OW  HW  HW  EP  OW  
HW  HW  EP  OW  HW  HW  EP  OW  HW  HW  EP  OW  HW  HW  EP  OW  HW  HW  EP  OW  
HW  HW  EP  OW  HW  HW  EP  OW  HW  HW  EP  OW  HW  HW  EP  OW  HW  HW  EP  OW  
HW  HW  EP  OW  HW  HW  EP  OW  HW  HW  EP  OW  HW  HW  EP  OW  HW  HW  EP  OW  
HW  HW  EP  OW  HW  HW  EP  OW  HW  HW  EP  OW  HW  HW  EP  OW  HW  HW  EP  OW  
HW  HW  EP  OW  HW  HW  EP  OW  HW  HW  EP  OW  HW  HW  EP  OW  HW  HW  EP  OW  
HW  HW  EP  OW  HW  HW  EP  OW  HW  HW  EP  OW  HW  HW  EP  OW  HW  HW  EP  OW  
HW  HW  EP  OW  HW  HW  EP  OW  HW  HW  EP  OW  HW  HW  EP  OW  HW  HW  EP  OW  
HW  HW  EP  OW  HW  HW  EP  OW  HW  HW  EP  OW  HW  HW  EP  OW  HW  HW  EP  OW  
HW  HW  EP  OW  HW  HW  EP  OW  HW  HW  EP  OW  HW  HW  EP  OW  HW  HW  EP  OW  
HW  HW  EP  OW  HW  HW  EP  OW  HW  HW  EP  OW  HW  HW  EP  OW  HW  HW  EP  OW  
HW  HW  EP  OW  HW  HW  EP  OW  HW  HW  EP  OW  HW  HW  EP  OW  HW  HW  EP  OW  
HW  HW  EP  OW  HW  HW  EP  OW  HW  HW  EP  OW  HW  HW  EP  OW  HW  HW  EP  OW  
HW  HW  EP  OW  HW  HW  EP  OW  HW  HW  EP  OW  HW  HW  EP  OW  HW  HW  EP  OW  
HW  HW  EP  OW  HW  HW  EP  OW  HW  HW  EP  OW  HW  HW  EP  OW  HW  HW  EP  OW  
HW  HW  EP  OW  HW  HW  EP  OW  HW  HW  EP  OW  HW  HW  EP  OW  HW  HW  EP  OW  
HW  HW  EP  OW  HW  HW  EP  OW  HW  HW  EP  OW  HW  HW  EP  OW  HW  HW  EP  OW  
HW  HW  EP  OW  HW  HW  EP  OW  HW  HW  EP  OW  HW  HW  EP  OW  HW  HW  EP  OW  
HW  HW  EP  OW  HW  HW  EP  OW  HW  HW  EP  OW  HW  HW  EP  OW  HW  HW  EP  OW  
HW  HW  EP  OW  HW  HW  EP  OW  HW  HW  EP  OW  HW  HW  EP  OW  HW  HW  EP  OW  
HW  HW  EP  OW  HW  HW  EP  OW  HW  HW  EP  OW  HW  HW  EP  OW  HW  HW  EP  OW  
HW  HW  EP  OW  HW  HW  EP  OW  HW  HW  EP  OW  HW  HW  EP  OW  HW  HW  EP  OW  
HW  HW  EP  OW  HW  HW  EP  OW  HW  HW  EP  OW  HW  HW  EP  OW  HW  HW  EP  OW  
HW  HW  EP  OW  HW  HW  EP  OW  HW  HW  EP  OW  HW  HW  EP  OW  HW  HW  EP  OW  
HW  HW  EP  OW  HW  HW  EP  OW  HW  HW  EP  OW  HW  HW  EP  OW  HW  HW  EP  OW  
HW  HW  EP  OW  HW  HW  EP  OW  HW  HW  EP  OW  HW  HW  EP  OW  HW  HW  EP  OW  
HW  HW  EP  OW  HW  HW  EP  OW  HW  HW  EP  OW  HW  HW  EP  OW  HW  HW  EP  OW  
HW  HW  EP  OW  HW  HW  EP  OW  HW  HW  EP  OW  HW  HW  EP  OW  HW  HW  EP  OW  
HW  HW  EP  OW  HW  HW  EP  OW  HW  HW  EP  OW  HW  HW  EP  OW  HW  HW  EP  OW  
HW  HW  EP  OW  HW  HW  EP  OW  HW  HW  EP  OW  HW  HW  EP  OW  HW  HW  EP  OW  
HW  HW  EP  OW  HW  HW  EP  OW  HW  HW  EP  OW  HW  HW  EP  OW  HW  HW  EP  OW  
HW  HW  EP  OW  HW  HW  EP  OW  HW  HW  EP  OW  HW  HW  EP  OW  HW  HW  EP  OW  
HW  HW  EP  OW  HW  HW  EP  OW  HW  HW  EP  OW  HW  HW  EP  OW  HW  HW  EP  OW  
HW  HW  EP  OW  HW  HW  EP  OW  HW  HW  EP  OW  HW  HW  EP  OW  HW  HW  EP  OW  
HW  HW  EP  OW  HW  HW  EP  OW  HW  HW  EP  OW  HW  HW  EP  OW  HW  HW  EP  OW  
HW  HW  EP  OW  HW  HW  EP  OW  HW  HW  EP  OW  HW  HW  EP  OW  HW  HW  EP  OW  
HW  HW  EP  OW  HW  HW  EP  OW  HW  HW  EP  OW  HW  HW  EP  OW  HW  HW  EP  OW  
HW  HW  EP  OW  HW  HW  EP  OW  HW  HW  EP  OW  HW  HW  EP  OW  HW  HW  EP  OW  
HW  HW  EP  OW  HW  HW  EP  OW  HW  HW  EP  OW  HW  HW  EP  OW  HW  HW  EP  OW  
HW  HW  EP  OW  HW  HW  EP  OW  HW  HW  EP  OW  HW  HW  EP  OW  HW  HW  EP  OW  
HW  HW  EP  OW  HW  HW  EP  OW  HW  HW  EP  OW  HW  HW  EP  OW  HW  HW  EP  OW  
HW  HW  EP  OW  HW  HW  EP  OW  HW  HW  EP  OW  HW  HW  EP  OW  HW  HW  EP  OW  
HW  HW  EP  OW  HW  HW  EP  OW  HW  HW  EP  OW  HW  HW  EP  OW  HW  HW  EP  OW  
HW  HW  EP  OW  HW  HW  EP  OW  HW  HW  EP  OW  HW  HW  EP  OW  HW  HW  EP  OW  
HW  HW  EP  OW  HW  HW  EP  OW  HW  HW  EP  OW  HW  HW  EP  OW  HW  HW  EP  OW  
HW  HW  EP  OW  HW  HW  EP  OW  HW  HW  EP  OW  HW  HW  EP  OW  HW  HW  EP  OW  
HW  HW  EP  OW  HW  HW  EP  OW  HW  HW  EP  OW  HW  HW  EP  OW  HW  HW  EP  OW  
HW  HW  EP  OW  HW  HW  EP  OW  HW  HW  EP  OW  HW  HW  EP  OW  HW  HW  EP  OW  
HW  HW  EP  OW  HW  HW  EP  OW  HW  HW  EP  OW  HW  HW  EP  OW  HW  HW  EP  OW  
HW  HW  EP  OW  HW  HW  EP  OW  HW  HW  EP  OW  HW  HW  EP  OW  HW  HW  EP  OW  
HW  HW  EP  OW  HW  HW  EP  OW  HW  HW  EP  OW  HW  HW  EP  OW  HW  HW  EP  OW  
HW  HW  EP  OW  HW  HW  EP  OW  HW  HW  EP  OW  HW  HW  EP  OW  HW  HW  EP  OW  
HW  HW  EP  OW  HW  HW  EP  OW  HW  HW  EP  OW  HW  HW  EP  OW  HW  HW  EP  OW  
HW  HW  EP  OW  HW  HW  EP  OW  HW  HW  EP  OW  HW  HW  EP  OW  HW  HW  EP  OW  
HW  HW  EP  OW  HW  HW  EP  OW  HW  HW  EP  OW  HW  HW  EP  OW  HW  HW  EP  OW  
HW  HW  EP  OW  HW  HW  EP  OW  HW  HW  EP  OW  HW  HW  EP  OW  HW  HW  EP  OW  
HW  HW  EP  OW  HW  HW  EP  OW  HW  HW  EP  OW  HW  HW  EP  OW  HW  HW  EP  OW  
HW  HW  EP  OW  HW  HW  EP  OW  HW  HW  EP  OW  HW  HW  EP  OW  HW  HW  EP  OW  
HW  HW  EP  OW  HW  HW  EP  OW  HW  HW  EP  OW  HW  HW  EP  OW  HW  HW  EP  OW  
HW  HW  EP  OW  HW  HW  EP  OW  HW  HW  EP  OW  HW  HW  EP  OW  HW  HW  EP  OW  
HW  HW  EP  OW  HW  HW  EP  OW  HW  HW  EP  OW  HW  HW  EP  OW  HW  HW  EP  OW  
HW  HW  EP  OW  HW  HW  EP  OW  HW  HW  EP  OW  HW  HW  EP  OW  HW  HW  EP  OW  
HW  HW  EP  OW  HW  HW  EP  OW  HW  HW  EP  OW  HW  HW  EP  OW  HW  HW  EP  OW  
HW  HW  EP  OW  HW  HW  EP  OW  HW  HW  EP  OW  HW  HW  EP  OW  HW  HW  EP  OW  
HW  HW  EP  OW  HW  HW  EP  OW  HW  HW  EP  OW  HW  HW  EP  OW  HW  HW  EP  OW  
HW  HW  EP  OW  HW  HW  EP  OW  HW  HW  EP  OW  HW  HW  EP  OW  HW  HW  EP  OW  
HW  HW  EP  OW  HW  HW  EP  OW  HW  HW  EP  OW  HW  HW  EP  OW  HW  HW  EP  OW  
HW  HW  EP  OW  HW  HW  EP  OW  HW  HW  EP  OW  HW  HW  EP  OW  HW  HW  EP  OW  
HW  HW  EP  OW  HW  HW  EP  OW  HW  HW  EP  OW  HW  HW  EP  OW  HW  HW  EP  OW  
HW  HW  EP  OW  HW  HW  EP  OW  HW  HW  EP  OW  HW  HW  EP  OW  HW  HW  EP  OW  
HW  HW  EP  OW  HW  HW  EP  OW  HW  HW  EP  OW  HW  HW  EP  OW  HW  HW  EP  OW  
HW  HW  EP  OW  HW  HW  EP  OW  HW  HW  EP  OW  HW  HW  EP  OW  HW  HW  EP  OW  
HW  HW  EP  OW  HW  HW  EP  OW  HW  HW  EP  OW  HW  HW  EP  OW  HW  HW  EP  OW  
HW  HW  EP  OW  HW  HW  EP  OW  HW  HW  EP  OW  HW  HW  EP  OW  HW  HW  EP  OW  
HW  HW  EP  OW  HW  HW  EP  OW  HW  HW  EP  OW  HW  HW  EP  OW  HW  HW  EP  OW  
HW  HW  EP  OW  HW  HW  EP  OW  HW  HW  EP  OW  HW  HW  EP  OW  HW  HW  EP  OW  
HW  HW  EP  OW  HW  HW  EP  OW  HW  HW  EP  OW  HW  HW  EP  OW  HW  HW  EP  OW  
HW  HW  EP  OW  HW  HW  EP  OW  HW  HW  EP  OW  HW  HW  EP  OW  HW  HW  EP  OW  
HW  HW  EP  OW  HW  HW  EP  OW  HW  HW  EP  OW  HW  HW  EP  OW  HW  HW  EP  OW  
HW  HW  EP  OW  HW  HW  EP  OW  HW  HW  EP  OW  HW  HW  EP  OW  HW  HW  EP  OW  
HW  HW  EP  OW  HW  HW  EP  OW  HW  HW  EP  OW  HW  HW  EP  OW  HW  HW  EP  OW  
HW  HW  EP  OW  HW  HW  EP  OW  HW  HW  EP  OW  HW  HW  EP  OW  HW  HW  EP  OW  
HW  HW  EP  OW  HW  HW  EP  OW  HW  HW  EP  OW  HW  HW  EP  OW  HW  HW  EP  OW  
HW  HW  EP  OW  HW  HW  EP  OW  HW  HW  EP  OW  HW  HW  EP  OW  HW  HW  EP  OW  
HW  HW  EP  OW  HW  HW  EP  OW  HW  HW  EP  OW  HW  HW  EP  OW  HW  HW  EP  OW  
HW  HW  EP  OW  HW  HW  EP  OW  HW  HW  EP  OW  HW  HW  EP  OW  HW  HW  EP  OW  
HW  HW  EP  OW  HW  HW  EP  OW  HW  HW  EP  OW  HW  HW  EP  OW  HW  HW  EP  OW  
HW  HW  EP  OW  HW  HW  EP  OW  HW  HW  EP  OW  HW  HW  EP  OW  HW  HW  EP  OW  
HW  HW  EP  OW  HW  HW  EP  OW  HW  HW  EP  OW  HW  HW  EP  OW  HW  HW  EP  OW  
HW  HW  EP  OW  HW  HW  EP  OW  HW  HW  EP  OW  HW  HW  EP  OW  HW  HW  EP  OW  
HW  HW  EP  OW  HW  HW  EP  OW  HW  HW  EP  OW  HW  HW  EP  OW  HW  HW  EP  OW  
HW  HW  EP  OW  HW  HW  EP  OW  HW  HW  EP  OW  HW  HW  EP  OW  HW  HW  EP  OW  
HW  HW  EP  OW  HW  HW  EP  OW  HW  HW  EP  OW  HW  HW  EP  OW  HW  HW  EP  OW  
HW  HW  EP  OW  HW  HW  EP  OW  HW  HW  EP  OW  HW  HW  EP  OW  HW  HW  EP  OW  
HW  HW  EP  OW  HW  HW  EP  OW  HW  HW  EP  OW  HW  HW  EP  OW  HW  HW  EP  OW  
HW  HW  EP  OW  HW  HW  EP  OW  HW  HW  EP  OW  HW  HW  EP  OW  HW  HW  EP  OW  
HW  HW  EP  OW  HW  HW  EP  OW  HW  HW  EP  OW  HW  HW  EP  OW  HW  HW  EP  OW  
HW  HW  EP  OW  HW  HW  EP  OW  HW  HW  EP  OW  HW  HW  EP  OW  HW  HW  EP  OW  
HW  HW  EP  OW  HW  HW  EP  OW  HW  HW  EP  OW  HW  HW  EP  OW  HW  HW  EP  OW  
HW  HW  EP  OW  HW  HW  EP  OW  HW  HW  EP  OW  HW  HW  EP  OW  HW  HW  EP  OW  
HW  HW  EP  OW  HW  HW  EP  OW  HW  HW  EP  OW  HW  HW  EP  OW  HW  HW  EP  OW  
HW  HW  EP  OW  HW  HW  EP  OW  HW  HW  EP  OW  HW  HW  EP  OW  HW  HW  EP  OW  
HW  HW  EP  OW  HW  HW  EP  OW  HW  HW  EP  OW  HW  HW  EP  OW  HW  HW  EP  OW  
HW  HW  EP  OW  HW  HW  EP  OW  HW  HW  EP  OW  HW  HW  EP  OW  HW  HW  EP  OW  
HW  HW  EP  OW  HW  HW  EP  OW  HW  HW  EP  OW  HW  HW  EP  OW  HW  HW  EP  OW  
HW  HW  EP  OW  HW  HW  EP  OW  HW  HW  EP  OW  HW  HW  EP  OW  HW  HW  EP  OW  
HW  HW  EP  OW  HW  HW  EP  OW  HW  HW  EP  OW  HW  HW  EP  OW  HW  HW  EP  OW  
HW  HW  EP  OW  HW  HW  EP  OW  HW  HW  EP  OW  HW  HW  EP  OW  HW  HW  EP  OW  
HW  HW  EP  OW  HW  HW  EP  OW  HW  HW  EP  OW  HW  HW  EP  OW  HW  HW  EP  OW  
HW  HW  EP  OW  HW  HW  EP  OW  HW  HW  EP  OW  HW  HW  EP  OW  HW  HW  EP  OW  
HW  HW  EP  OW  HW  HW  EP  OW  HW  HW  EP  OW  HW  HW  EP  OW  HW  HW  EP  OW  
HW  HW  EP  OW  HW  HW  EP  OW  HW  HW  EP  OW  HW  HW  EP  OW  HW  HW  EP  OW  
HW  HW  EP  OW  HW  HW  EP  OW  HW  HW  EP  OW  HW  HW  EP  OW  HW  HW  EP  OW  
HW  HW  EP  OW  HW  HW  EP  OW  HW  HW  EP  OW  HW  HW  EP  OW  HW  HW  EP  OW  
HW  HW  EP  OW  HW  HW  EP  OW  HW  HW  EP  OW  HW  HW  EP  OW  HW  HW  EP  OW  
HW  HW  EP  OW  HW  HW  EP  OW  HW  HW  EP  OW  HW  HW  EP  OW  HW  HW  EP  OW  
HW  HW  EP  OW  HW  HW  EP  OW  HW  HW  EP  OW  HW  HW  EP  OW  HW  HW  EP  OW  
HW  HW  EP  OW  HW  HW  EP  OW  HW  HW  EP  OW  HW  HW  EP  OW  HW  HW  EP  OW  
HW  HW  EP  OW  HW  HW  EP  OW  HW  HW  EP  OW  HW  HW  EP  OW  HW  HW  EP  OW  
HW  HW  EP  OW  HW  HW  EP  OW  HW  HW  EP  OW  HW  HW  EP  OW  HW  HW  EP  OW  
HW  HW  EP  OW  HW  HW  EP  OW  HW  HW  EP  OW  HW  HW  EP  OW  HW  HW  EP  OW  
HW  HW  EP  OW  HW  HW  EP  OW  HW  HW  EP  OW  HW  HW  EP  OW  HW  HW  EP  OW  
HW  HW  EP  OW  HW  HW  EP  OW  HW  HW  EP  OW  HW  HW  EP  OW  HW  HW  EP  OW  
HW  HW  EP  OW  HW  HW  EP  OW  HW  HW  EP  OW  HW  HW  EP  OW  HW  HW  EP  OW  
HW  HW  EP  OW  HW  HW  EP  OW  HW  HW  EP  OW  HW  HW  EP  OW  HW  HW  EP  OW  
HW  HW  EP  OW  HW  HW  EP  OW  HW  HW  EP  OW  HW  HW  EP  OW  HW  HW  EP  OW  
HW  HW  EP  OW  HW  HW  EP  OW  HW  HW  EP  OW  HW  HW  EP  OW  HW  HW  EP  OW  
HW  HW  EP  OW  HW  HW  EP  OW  HW  HW  EP  OW  HW  HW  EP  OW  HW  HW  EP  OW  
HW  HW  EP  OW  HW  HW  EP  OW  HW  HW  EP  OW  HW  HW  EP  OW  HW  HW  EP  OW  
HW  HW  EP  OW  HW  HW  EP  OW  HW  HW  EP  OW  HW  HW  EP  OW  HW  HW  EP  OW  
HW  HW  EP  OW  HW  HW  EP  OW  HW  HW  EP  OW  HW  HW  EP  OW  HW  HW  EP  OW  
HW  HW  EP  OW  HW  HW  EP  OW  HW  HW  EP  OW  HW  HW  EP  OW  HW  HW  EP  OW  
HW  HW  EP  OW  HW  HW  EP  OW  HW  HW  EP  OW  HW  HW  EP  OW  HW  HW  EP  OW  
HW  HW  EP  OW  HW  HW  EP  OW  HW  HW  EP  OW  HW  HW  EP  OW  HW  HW  EP  OW  
HW  HW  EP  OW  HW  HW  EP  OW  HW  HW  EP  OW  HW  HW  EP  OW  HW  HW  EP  OW  
HW  HW  EP  OW  HW  HW  EP  OW  HW  HW  EP  OW  HW  HW  EP  OW  HW  HW  EP  OW  
HW  HW  EP  OW  HW  HW  EP  OW  HW  HW  EP  OW  HW  HW  EP  OW  HW  HW  EP  OW  
HW  HW  EP  OW  HW  HW  EP  OW  HW  HW  EP  OW  HW  HW  EP  OW  HW  HW  EP  OW  
HW  HW  EP  OW  HW  HW  EP  OW  HW  HW  EP  OW  HW  HW  EP  OW  HW  HW  EP  OW  
HW  HW  EP  OW  HW  HW  EP  OW  HW  HW  EP  OW  HW  HW  EP  OW  HW  HW  EP  OW  
HW  HW  EP  OW  HW  HW  EP  OW  HW  HW  EP  OW  HW  HW  EP  OW  HW  HW  EP  OW  
HW  HW  EP  OW  HW  HW  EP  OW  HW  HW  EP  OW  HW  HW  EP  OW  HW  HW  EP  OW  
HW  HW  EP  OW  HW  HW  EP  OW  HW  HW  EP  OW  HW  HW  EP  OW  HW  HW  EP  OW  
HW  HW  EP  OW  HW  HW  EP  OW  HW  HW  EP  OW  HW  HW  EP  OW  HW  HW  EP  OW  
HW  HW  EP  OW  HW  HW  EP  OW  HW  HW  EP  OW  HW  HW  EP  OW  HW  HW  EP  OW  
HW  HW  EP  OW  HW  HW  EP  OW  HW  HW  EP  OW  HW  HW  EP  OW  HW  HW  EP  OW  
HW  HW  EP  OW  HW  HW  EP  OW  HW  HW  EP  OW  HW  HW  EP  OW  HW  HW  EP  OW  
HW  HW  EP  OW  HW  HW  EP  OW  HW  HW  EP  OW  HW  HW  EP  OW  HW  HW  EP  OW  
HW  HW  EP  OW  HW  HW  EP  OW  HW  HW  EP  OW  HW  HW  EP  OW  HW  HW  EP  OW  
HW  HW  EP  OW  HW  HW  EP  OW  HW  HW  EP  OW  HW  HW  EP  OW  HW  HW  EP  OW  
HW  HW  EP  OW  HW  HW  EP  OW  HW  HW  EP  OW  HW  HW  EP  OW  HW  HW  EP  OW  
HW  HW  EP  OW  HW  HW  EP  OW  HW  HW  EP  OW  HW  HW  EP  OW  HW  HW  EP  OW  
HW  HW  EP  OW  HW  HW  EP  OW  HW  HW  EP  OW  HW  HW  EP  OW  HW  HW  EP  OW  
HW  HW  EP  OW  HW  HW  EP  OW  HW  HW  EP  OW  HW  HW  EP  OW  HW  HW  EP  OW  
HW  HW  EP  OW  HW  HW  EP  OW  HW  HW  EP  OW  HW  HW  EP  OW  HW  HW  EP  OW  
HW  HW  EP  OW  HW  HW  EP  OW  HW  HW  EP  OW  HW  HW  EP  OW  HW  HW  EP  OW  
HW  HW  EP  OW  HW  HW  EP  OW  HW  HW  EP  OW  HW  HW  EP  OW  HW  HW  EP  OW  
HW  HW  EP  OW  HW  HW  EP  OW  HW  HW  EP  OW  HW  HW  EP  OW  HW  HW  EP  OW  
HW  HW  EP  OW  HW  HW  EP  OW  HW  HW  EP  OW  HW  HW  EP  OW  HW  HW  EP  OW  
HW  HW  EP  OW  HW  HW  EP  OW  HW  HW  EP  OW  HW  HW  EP  OW  HW  HW  EP  OW  
HW  HW  EP  OW  HW  HW  EP  OW  HW  HW  EP  OW  HW  HW  EP  OW  HW  HW  EP  OW  
HW  HW  EP  OW  HW  HW  EP  OW  HW  HW  EP  OW  HW  HW  EP  OW  HW  HW  EP  OW  
HW  HW  EP  OW  HW  HW  EP  OW  HW  HW  EP  OW  HW  HW  EP  OW  HW  HW  EP  OW  
HW  HW  EP  OW  HW  HW  EP  OW  HW  HW  EP  OW  HW  HW  EP  OW  HW  HW  EP  OW  
HW  HW  EP  OW  HW  HW  EP  OW  HW  HW  EP  OW  HW  HW  EP  OW  HW  HW  EP  OW  
HW  HW  EP  OW  HW  HW  EP  OW  HW  HW  EP  OW  HW  HW  EP  OW  HW  HW  EP  OW  
HW  HW  EP  OW  HW  HW  EP  OW  HW  HW  EP  OW  HW  HW  EP  OW  HW  HW  EP  OW  
HW  HW  EP  OW  HW  HW  EP  OW  HW  HW  EP  OW  HW  HW  EP  OW  HW  HW  EP  OW  
HW  HW  EP  OW  HW  HW  EP  OW  HW  HW  EP  OW  HW  HW  EP  OW  HW  HW  EP  OW  
HW  HW  EP  OW  HW  HW  EP  OW  HW  HW  EP  OW  HW  HW  EP  OW  HW  HW  EP  OW  
HW  HW  EP  OW  HW  HW  EP  OW  HW  HW  EP  OW  HW  HW  EP  OW  HW  HW  EP  OW  
HW  HW  EP  OW  HW  HW  EP  OW  HW  HW  EP  OW  HW  HW  EP  OW  HW  HW  EP  OW  
HW  HW  EP  OW  HW  HW  EP  OW  HW  HW  EP  OW  HW  HW  EP  OW  HW  HW  EP  OW  
HW  HW  EP  OW  HW  HW  EP  OW  HW  HW  EP  OW  HW  HW  EP  OW  HW  HW  EP  OW  
HW  HW  EP  OW  HW  HW  EP  OW  HW  HW  EP  OW  HW  HW  EP  OW  HW  HW  EP  OW  
HW  HW  EP  OW  HW  HW  EP  OW  HW  HW  EP  OW  HW  HW  EP  OW  HW  HW  EP  OW  
HW  HW  EP  OW  HW  HW  EP  OW  HW  HW  EP  OW  HW  HW  EP  OW  HW  HW  EP  OW  
HW  HW  EP  OW  HW  HW  EP  OW  HW  HW  EP  OW  HW  HW  EP  OW  HW  HW  EP  OW  
HW  HW  EP  OW  HW  HW  EP  OW  HW  HW  EP  OW  HW  HW  EP  OW  HW  HW  EP  OW  
HW  HW  EP  OW  HW  HW  EP  OW  HW  HW  EP  OW  HW  HW  EP  OW  HW  HW  EP  OW  
HW  HW  EP  OW  HW  HW  EP  OW  HW  HW  EP  OW  HW  HW  EP  OW  HW  HW  EP  OW  
HW  HW  EP  OW  HW  HW  EP  OW  HW  HW  EP  OW  HW  HW  EP  OW  HW  HW  EP  OW  
HW  HW  EP  OW  HW  HW  EP  OW  HW  HW  EP  OW  HW  HW  EP  OW  HW  HW  EP  OW  
HW  HW  EP  OW  HW  HW  EP  OW  HW  HW  EP  OW  HW  HW  EP  OW  HW  HW  EP  OW  
HW  HW  EP  OW  HW  HW  EP  OW  HW  HW  EP  OW  HW  HW  EP  OW  HW  HW  EP  OW  
HW  HW  EP  OW  HW  HW  EP  OW  HW  HW  EP  OW  HW  HW  EP  OW  HW  HW  EP  OW  
HW  HW  EP  OW  HW  HW  EP  OW  HW  HW  EP  OW  HW  HW  EP  OW  HW  HW  EP  OW  
HW  HW  EP  OW  HW  HW  EP  OW  HW  HW  EP  OW  HW  HW  EP  OW  HW  HW  EP  OW  
HW  HW  EP  OW  HW  HW  EP  OW  HW  HW  EP  OW  HW  HW  EP  OW  HW  HW  EP  OW  
HW  HW  EP  OW  HW  HW  EP  OW  HW  HW  EP  OW  HW  HW  EP  OW  HW  HW  EP  OW  
HW  HW  EP  OW  HW  HW  EP  OW  HW  HW  EP  OW  HW  HW  EP  OW  HW  HW  EP  OW  
HW  HW  EP  OW  HW  HW  EP  OW  HW  HW  EP  OW  HW  HW  EP  OW  HW  HW  EP  OW  
HW  HW  EP  OW  HW  HW  EP  OW  HW  HW  EP  OW  HW  HW  EP  OW  HW  HW  EP  OW  
HW  HW  EP  OW  HW  HW  EP  OW  HW  HW  EP  OW  HW  HW  EP  OW  HW  HW  EP  OW  
HW  HW  EP  OW  HW  HW  EP  OW  HW  HW  EP  OW  HW  HW  EP  OW  HW  HW  EP  OW  
HW  HW  EP  OW  HW  HW  EP  OW  HW  HW  EP  OW  HW  HW  EP  OW  HW  HW  EP  OW  
HW  HW  EP  OW  HW  HW  EP  OW  HW  HW  EP  OW  HW  HW  EP  OW  HW  HW  EP  OW  
HW  HW  EP  OW  HW  HW  EP  OW  HW  HW  EP  OW  HW  HW  EP  OW  HW  HW  EP  OW  
HW  HW  EP  OW  HW  HW  EP  OW  HW  HW  EP  OW  HW  HW  EP  OW  HW  HW  EP  OW  
HW  HW  EP  OW  HW  HW  EP  OW  HW  HW  EP  OW  HW  HW  EP  OW  HW  HW  EP  OW  
HW  HW  EP  OW  HW  HW  EP  OW  HW  HW  EP  OW  HW  HW  EP  OW  HW  HW  EP  OW  
HW  HW  EP  OW  HW  HW  EP  OW  HW  HW  EP  OW  HW  HW  EP  OW  HW  HW  EP  OW  
HW  HW  EP  OW  HW  HW  EP  OW  HW  HW  EP  OW  HW  HW  EP  OW  HW  HW  EP  OW  
HW  HW  EP  OW  HW  HW  EP  OW  HW  HW  EP  OW  HW  HW  EP  OW  HW  HW  EP  OW  
HW  HW  EP  OW  HW  HW  EP  OW  HW  HW  EP  OW  HW  HW  EP  OW  HW  HW  EP  OW  
HW  HW  EP  OW  HW  HW  EP  OW  HW  HW  EP  OW  HW  HW  EP  OW  HW  HW  EP  OW  
HW  HW  EP  OW  HW  HW  EP  OW  HW  HW  EP  OW  HW  HW  EP  OW  HW  HW  EP  OW  
HW  HW  EP  OW  HW  HW  EP  OW  HW  HW  EP  OW  HW  HW  EP  OW  HW  HW  EP  OW  
HW  HW  EP  OW  HW  HW  EP  OW  HW  HW  EP  OW  HW  HW  EP  OW  HW  HW  EP  OW  
HW  HW  EP  OW  HW  HW  EP  OW  HW  HW  EP  OW  HW  HW  EP  OW  HW  HW  EP  OW  
HW  HW  EP  OW  HW  HW  EP  OW  HW  HW  EP  OW  HW  HW  EP  OW  HW  HW  EP  OW  
HW  HW  EP  OW  HW  HW  EP  OW  HW  HW  EP  OW  HW  HW  EP  OW  HW  HW  EP  OW  
HW  HW  EP  OW  HW  HW  EP  OW  HW  HW  EP  OW  HW  HW  EP  OW  HW  HW  EP  OW  
HW  HW  EP  OW  HW  HW  EP  OW  HW  HW  EP  OW  HW  HW  EP  OW  HW  HW  EP  OW  
HW  HW  EP  OW  HW  HW  EP  OW  HW  HW  EP  OW  HW  HW  EP  OW  HW  HW  EP  OW  
HW  HW  EP  OW  HW  HW  EP  OW  HW  HW  EP  OW  HW  HW  EP  OW  HW  HW  EP  OW  
HW  HW  EP  OW  HW  HW  EP  OW  HW  HW  EP  OW  HW  HW  EP  OW  HW  HW  EP  OW  
HW  HW  EP  OW  HW  HW  EP  OW  HW  HW  EP  OW  HW  HW  EP  OW  HW  HW  EP  OW  
HW  HW  EP  OW  HW  HW  EP  OW  HW  HW  EP  OW  HW  HW  EP  OW  HW  HW  EP  OW  
HW  HW  EP  OW  HW  HW  EP  OW  HW  HW  EP  OW  HW  HW  EP  OW  HW  HW  EP  OW  
HW  HW  EP  OW  HW  HW  EP  OW  HW  HW  EP  OW  HW  HW  EP  OW  HW  HW  EP  OW  
HW  HW  EP  OW  HW  HW  EP  OW  HW  HW  EP  OW  HW  HW  EP  OW  HW  HW  EP  OW  
HW  HW  EP  OW  HW  HW  EP  OW  HW  HW  EP  OW  HW  HW  EP  OW  HW  HW  EP  OW  
HW  HW  EP  OW  HW  HW  EP  OW  HW  HW  EP  OW  HW  HW  EP  OW  HW  HW  EP  OW  
HW  HW  EP  OW  HW  HW  EP  OW  HW  HW  EP  OW  HW  HW  EP  OW  HW  HW  EP  OW  
HW  HW  EP  OW  HW  HW  EP  OW  HW  HW  EP  OW  HW  HW  EP  OW  HW  HW  EP  OW  
HW  HW  EP  OW  HW  HW  EP  OW  HW  HW  EP  OW  HW  HW  EP  OW  HW  HW  EP  OW  
HW  HW  EP  OW  HW  HW  EP  OW  HW  HW  EP  OW  HW  HW  EP  OW  HW  HW  EP  OW  
HW  HW  EP  OW  HW  HW  EP  OW  HW  HW  EP  OW  HW  HW  EP  OW  HW  HW  EP  OW  
HW  HW  EP  OW  HW  HW  EP  OW  HW  HW  EP  OW  HW  HW  EP  OW  HW  HW  EP  OW  
HW  HW  EP  OW  HW  HW  EP  OW  HW  HW  EP  OW  HW  HW  EP  OW  HW  HW  EP  OW  
HW  HW  EP  OW  HW  HW  EP  OW  HW  HW  EP  OW  HW  HW  EP  OW  HW  HW  EP  OW  
HW  HW  EP  OW  HW  HW  EP  OW  HW  HW  EP  OW  HW  HW  EP  OW  HW  HW  EP  OW  
HW  HW  EP  OW  HW  HW  EP  OW  HW  HW  EP  OW  HW  HW  EP  OW  HW  HW  EP  OW  
HW  HW  EP  OW  HW  HW  EP  OW  HW  HW  EP  OW  HW  HW  EP  OW  HW  HW  EP  OW  
HW  HW  EP  OW  HW  HW  EP  OW  HW  HW  EP  OW  HW  HW  EP  OW  HW  HW  EP  OW  
HW  HW  EP  OW  HW  HW  EP  OW  HW  HW  EP  OW  HW  HW  EP  OW  HW  HW  EP  OW  
HW  HW  EP  OW  HW  HW  EP  OW  HW  HW  EP  OW  HW  HW  EP  OW  HW  HW  EP  OW  
HW  HW  EP  OW  HW  HW  EP  OW  HW  HW  EP  OW  HW  HW  EP  OW  HW  HW  EP  OW  
HW  HW  EP  OW  HW  HW  EP  OW  HW  HW  EP  OW  HW  HW  EP  OW  HW  HW  EP  OW  
HW  HW  EP  OW  HW  HW  EP  OW  HW  HW  EP  OW  HW  HW  EP  OW  HW  HW  EP  OW  
HW  HW  EP  OW  HW  HW  EP  OW  HW  HW  EP  OW  HW  HW  EP  OW  HW  HW  EP  OW  
HW  HW  EP  OW  HW  HW  EP  OW  HW  HW  EP  OW  HW  HW  EP  OW  HW  HW  EP  OW  
HW  HW  EP  OW  HW  HW  EP  OW  HW  HW  EP  OW  HW  HW  EP  OW  HW  HW  EP  OW  
HW  HW  EP  OW  HW  HW  EP  OW  HW  HW  EP  OW  HW  HW  EP  OW  HW  HW  EP  OW  
HW  HW  EP  OW  HW  HW  EP  OW  HW  HW  EP  OW  HW  HW  EP  OW  HW  HW  EP  OW  
HW  HW  EP  OW  HW  HW  EP  OW  HW  HW  EP  OW  HW  HW  EP  OW  HW  HW  EP  OW  
HW  HW  EP  OW  HW  HW  EP  OW  HW  HW  EP  OW  HW  HW  EP  OW  HW  HW  EP  OW  
HW  HW  EP  OW  HW  HW  EP  OW  HW  HW  EP  OW  HW  HW  EP  OW  HW  HW  EP  OW  
HW  HW  EP  OW  HW  HW  EP  OW  HW  HW  EP  OW  HW  HW  EP  OW  HW  HW  EP  OW  
HW  HW  EP  OW  HW  HW  EP  OW  HW  HW  EP  OW  HW  HW  EP  OW  HW  HW  EP  OW  
HW  HW  EP  OW  HW  HW  EP  OW  HW  HW  EP  OW  HW  HW  EP  OW  HW  HW  EP  OW  
HW  HW  EP  OW  HW  HW  EP  OW  HW  HW  EP  OW  HW  HW  EP  OW  HW  HW  EP  OW  
HW  HW  EP  OW  HW  HW  EP  OW  HW  HW  EP  OW  HW  HW  EP  OW  HW  HW  EP  OW  
HW  HW  EP  OW  HW  HW  EP  OW  HW  HW  EP  OW  HW  HW  EP  OW  HW  HW  EP  OW  
HW  HW  EP  OW  HW  HW  EP  OW  HW  HW  EP  OW  HW  HW  EP  OW  HW  HW  EP  OW  
HW  HW  EP  OW  HW  HW  EP  OW  HW  HW  EP  OW  HW  HW  EP  OW  HW  HW  EP  OW  
HW  HW  EP  OW  HW  HW  EP  OW  HW  HW  EP  OW  HW  HW  EP  OW  HW  HW  EP  OW  
HW  HW  EP  OW  HW  HW  EP  OW  HW  HW  EP  OW  HW  HW  EP  OW  HW  HW  EP  OW  
HW  HW  EP  OW  HW  HW  EP  OW  HW  HW  EP  OW  HW  HW  EP  OW  HW  HW  EP  OW  
HW  HW  EP  OW  HW  HW  EP  OW  HW  HW  EP  OW  HW  HW  EP  OW  HW  HW  EP  OW  
HW  HW  EP  OW  HW  HW  EP  OW  HW  HW  EP  OW  HW  HW  EP  OW  HW  HW  EP  OW  
HW  HW  EP  OW  HW  HW  EP  OW  HW  HW  EP  OW  HW  HW  EP  OW  HW  HW  EP  OW  
HW  HW  EP  OW  HW  HW  EP  OW  HW  HW  EP  OW  HW  HW  EP  OW  HW  HW  EP  OW  
HW  HW  EP  OW  HW  HW  EP  OW  HW  HW  EP  OW  HW  HW  EP  OW  HW  HW  EP  OW  
HW  HW  EP  OW  HW  HW  EP  OW  HW  HW  EP  OW  HW  HW  EP  OW  HW  HW  EP  OW  
HW  HW  EP  OW  HW  HW  EP  OW  HW  HW  EP  OW  HW  HW  EP  OW  HW  HW  EP  OW  
HW  HW  EP  OW  HW  HW  EP  OW  HW  HW  EP  OW  HW  HW  EP  OW  HW  HW  EP  OW  
HW  HW  EP  OW  HW  HW  EP  OW  HW  HW  EP  OW  HW  HW  EP  OW  HW  HW  EP  OW  
HW  HW  EP  OW  HW  HW  EP  OW  HW  HW  EP  OW  HW  HW  EP  OW  HW  HW  EP  OW  
HW  HW  EP  OW  HW  HW  EP  OW  HW  HW  EP  OW  HW  HW  EP  OW  HW  HW  EP  OW  
HW  HW  EP  OW  HW  HW  EP  OW  HW  HW  EP  OW  HW  HW  EP  OW  HW  HW  EP  OW  
HW  HW  EP  OW  HW  HW  EP  OW  HW  HW  EP  OW  HW  HW  EP  OW  HW  HW  EP  OW  
HW  HW  EP  OW  HW  HW  EP  OW  HW  HW  EP  OW  HW  HW  EP  OW  HW  HW  EP  OW  
HW  HW  EP  OW  HW  HW  EP  OW  HW  HW  EP  OW  HW  HW  EP  OW  HW  HW  EP  OW  
HW  HW  EP  OW  HW  HW  EP  OW  HW  HW  EP  OW  HW  HW  EP  OW  HW  HW  EP  OW  
HW  HW  EP  OW  HW  HW  EP  OW  HW  HW  EP  OW  HW  HW  EP  OW  HW  HW  EP  OW  
HW  HW  EP  OW  HW  HW  EP  OW  HW  HW  EP  OW  HW  HW  EP  OW  HW  HW  EP  OW  
HW  HW  EP  OW  HW  HW  EP  OW  HW  HW  EP  OW  HW  HW  EP  OW  HW  HW  EP  OW  
HW  HW  EP  OW  HW  HW  EP  OW  HW  HW  EP  OW  HW  HW  EP  OW  HW  HW  EP  OW  
HW  HW  EP  OW  HW  HW  EP  OW  HW  HW  EP  OW  HW  HW  EP  OW  HW  HW  EP  OW  
HW  HW  EP  OW  HW  HW  EP  OW  HW  HW  EP  OW  HW  HW  EP  OW  HW  HW  EP  OW  
HW  HW  EP  OW  HW  HW  EP  OW  HW  HW  EP  OW  HW  HW  EP  OW  HW  HW  EP  OW  
HW  HW  EP  OW  HW  HW  EP  OW  HW  HW  EP  OW  HW  HW  EP  OW  HW  HW  EP  OW  
HW  HW  EP  OW  HW  HW  EP  OW  HW  HW  EP  OW  HW  HW  EP  OW  HW  HW  EP  OW  
HW  HW  EP  OW  HW  HW  EP  OW  HW  HW  EP  OW  HW  HW  EP  OW  HW  HW  EP  OW  
HW  HW  EP  OW  HW  HW  EP  OW  HW  HW  EP  OW  HW  HW  EP  OW  HW  HW  EP  OW  
HW  HW  EP  OW  HW  HW  EP  OW  HW  HW  EP  OW  HW  HW  EP  OW  HW  HW  EP  OW  
HW  HW  EP  OW  HW  HW  EP  OW  HW  HW  EP  OW  HW  HW  EP  OW  HW  HW  EP  OW  
HW  HW  EP  OW  HW  HW  EP  OW  HW  HW  EP  OW  HW  HW  EP  OW  HW  HW  EP  OW  
HW  HW  EP  OW  HW  HW  EP  OW  HW  HW  EP  OW  HW  HW  EP  OW  HW  HW  EP  OW  
HW  HW  EP  OW  HW  HW  EP  OW  HW  HW  EP  OW  HW  HW  EP  OW  HW  HW  EP  OW  
HW  HW  EP  OW  HW  HW  EP  OW  HW  HW  EP  OW  HW  HW  EP  OW  HW  HW  EP  OW  
HW  HW  EP  OW  HW  HW  EP  OW  HW  HW  EP  OW  HW  HW  EP  OW  HW  HW  EP  OW  
HW  HW  EP  OW  HW  HW  EP  OW  HW  HW  EP  OW  HW  HW  EP  OW  HW  HW  EP  OW  
HW  HW  EP  OW  HW  HW  EP  OW  HW  HW  EP  OW  HW  HW  EP  OW  HW  HW  EP  OW  
HW  HW  EP  OW  HW  HW  EP  OW  HW  HW  EP  OW  HW  HW  EP  OW  HW  HW  EP  OW  
HW  HW  EP  OW  HW  HW  EP  OW  HW  HW  EP  OW  HW  HW  EP  OW  HW  HW  EP  OW  
HW  HW  EP  OW  HW  HW  EP  OW  HW  HW  EP  OW  HW  HW  EP  OW  HW  HW  EP  OW  
HW  HW  EP  OW  HW  HW  EP  OW  HW  HW  EP  OW  HW  HW  EP  OW  HW  HW  EP  OW  
HW  HW  EP  OW  HW  HW  EP  OW  HW  HW  EP  OW  HW  HW  EP  OW  HW  HW  EP  OW  
HW  HW  EP  OW  HW  HW  EP  OW  HW  HW  EP  OW  HW  HW  EP  OW  HW  HW  EP  OW  
HW  HW  EP  OW  HW  HW  EP  OW  HW  HW  EP  OW  HW  HW  EP  OW  HW  HW  EP  OW  
HW  HW  EP  OW  HW  HW  EP  OW  HW  HW  EP  OW  HW  HW  EP  OW  HW  HW  EP  OW  
HW  HW  EP  OW  HW  HW  EP  OW  HW  HW  EP  OW  HW  HW  EP  OW  HW  HW  EP  OW  
HW  HW  EP  OW  HW  HW  EP  OW  HW  HW  EP  OW  HW  HW  EP  OW  HW  HW  EP  OW  
HW  HW  EP  OW  HW  HW  EP  OW  HW  HW  EP  OW  HW  HW  EP  OW  HW  HW  EP  OW  
HW  HW  EP  OW  HW  HW  EP  OW  HW  HW  EP  OW  HW  HW  EP  OW  HW  HW  EP  OW  
HW  HW  EP  OW  HW  HW  EP  OW  HW  HW  EP  OW  HW  HW  EP  OW  HW  HW  EP  OW  
HW  HW  EP  OW  HW  HW  EP  OW  HW  HW  EP  OW  HW  HW  EP  OW  HW  HW  EP  OW  
HW  HW  EP  OW  HW  HW  EP  OW  HW  HW  EP  OW  HW  HW  EP  OW  HW  HW  EP  OW  
HW  HW  EP  OW  HW  HW  EP  OW  HW  HW  EP  OW  HW  HW  EP  OW  HW  HW  EP  OW  
HW  HW  EP  OW  HW  HW  EP  OW  HW  HW  EP  OW  HW  HW  EP  OW  HW  HW  EP  OW  
HW  HW  EP  OW  HW  HW  EP  OW  HW  HW  EP  OW  HW  HW  EP  OW  HW  HW  EP  OW  
HW  HW  EP  OW  HW  HW  EP  OW  HW  HW  EP  OW  HW  HW  EP  OW  HW  HW  EP  OW  
HW  HW  EP  OW  HW  HW  EP  OW  HW  HW  EP  OW  HW  HW  EP  OW  HW  HW  EP  OW  
HW  HW  EP  OW  HW  HW  EP  OW  HW  HW  EP  OW  HW  HW  EP  OW  HW  HW  EP  OW  
HW  HW  EP  OW  HW  HW  EP  OW  HW  HW  EP  OW  HW  HW  EP  OW  HW  HW  EP  OW  
HW  HW  EP  OW  HW  HW  EP  OW  HW  HW  EP  OW  HW  HW  EP  OW  HW  HW  EP  OW  
HW  HW  EP  OW  HW  HW  EP  OW  HW  HW  EP  OW  HW  HW  EP  OW  HW  HW  EP  OW  
HW  HW  EP  OW  HW  HW  EP  OW  HW  HW  EP  OW  HW  HW  EP  OW  HW  HW  EP  OW  
HW  HW  EP  OW  HW  HW  EP  OW  HW  HW  EP  OW  HW  HW  EP  OW  HW  HW  EP  OW  
HW  HW  EP  OW  HW  HW  EP  OW  HW  HW  EP  OW  HW  HW  EP  OW  HW  HW  EP  OW  
HW  HW  EP  OW  HW  HW  EP  OW  HW  HW  EP  OW  HW  HW  EP  OW  HW  HW  EP  OW  
HW  HW  EP  OW  HW  HW  EP  OW  HW  HW  EP  OW  HW  HW  EP  OW  HW  HW  EP  OW  
HW  HW  EP  OW  HW  HW  EP  OW  HW  HW  EP  OW  HW  HW  EP  OW  HW  HW  EP  OW  
HW  HW  EP  OW  HW  HW  EP  OW  HW  HW  EP  OW  HW  HW  EP  OW  HW  HW  EP  OW  
HW  HW  EP  OW  HW  HW  EP  OW  HW  HW  EP  OW  HW  HW  EP  OW  HW  HW  EP  OW  
HW  HW  EP  OW  HW  HW  EP  OW  HW  HW  EP  OW  HW  HW  EP  OW  HW  HW  EP  OW  
HW  HW  EP  OW  HW  HW  EP  OW  HW  HW  EP  OW  HW  HW  EP  OW  HW  HW  EP  OW  
HW  HW  EP  OW  HW  HW  EP  OW  HW  HW  EP  OW  HW  HW  EP  OW  HW  HW  EP  OW  
HW  HW  EP  OW  HW  HW  EP  OW  HW  HW  EP  OW  HW  HW  EP  OW  HW  HW  EP  OW  
HW  HW  EP  OW  HW  HW  EP  OW  HW  HW  EP  OW  HW  HW  EP  OW  HW  HW  EP  OW  
HW  HW  EP  OW  HW  HW  EP  OW  HW  HW  EP  OW  HW  HW  EP  OW  HW  HW  EP  OW  
HW  HW  EP  OW  HW  HW  EP  OW  HW  HW  EP  OW  HW  HW  EP  OW  HW  HW  EP  OW  
HW  HW  EP  OW  HW  HW  EP  OW  HW  HW  EP  OW  HW  HW  EP  OW  HW  HW  EP  OW  
HW  HW  EP  OW  HW  HW  EP  OW  HW  HW  EP  OW  HW  HW  EP  OW  HW  HW  EP  OW  
HW  HW  EP  OW  HW  HW  EP  OW  HW  HW  EP  OW  HW  HW  EP  OW  HW  HW  EP  OW  
HW  HW  EP  OW  HW  HW  EP  OW  HW  HW  EP  OW  HW  HW  EP  OW  HW  HW  EP  OW  
HW  HW  EP  OW  HW  HW  EP  OW  HW  HW  EP  OW  HW  HW  EP  OW  HW  HW  EP  OW  
HW  HW  EP  OW  HW  HW  EP  OW  HW  HW  EP  OW  HW  HW  EP  OW  HW  HW  EP  OW  
HW  HW  EP  OW  HW  HW  EP  OW  HW  HW  EP  OW  HW  HW  EP  OW  HW  HW  EP  OW  
HW  HW  EP  OW  HW  HW  EP  OW  HW  HW  EP  OW  HW  HW  EP  OW  HW  HW  EP  OW  
HW  HW  EP  OW  HW  HW  EP  OW  HW  HW  EP  OW  HW  HW  EP  OW  HW  HW  EP  OW  
HW  HW  EP  OW  HW  HW  EP  OW  HW  HW  EP  OW  HW  HW  EP  OW  HW  HW  EP  OW  
HW  HW  EP  OW  HW  HW  EP  OW  HW  HW  EP  OW  HW  HW  EP  OW  HW  HW  EP  OW  
HW  HW  EP  OW  HW  HW  EP  OW  HW  HW  EP  OW  HW  HW  EP  OW  HW  HW  EP  OW  
HW  HW  EP  OW  HW  HW  EP  OW  HW  HW  EP  OW  HW  HW  EP  OW  HW  HW  EP  OW  
HW  HW  EP  OW  HW  HW  EP  OW  HW  HW  EP  OW  HW  HW  EP  OW  HW  HW  EP  OW  
HW  HW  EP  OW  HW  HW  EP  OW  HW  HW  EP  OW  HW  HW  EP  OW  HW  HW  EP  OW  
HW  HW  EP  OW  HW  HW  EP  OW  HW  HW  EP  OW  HW  HW  EP  OW  HW  HW  EP  OW  
HW  HW  EP  OW  HW  HW  EP  OW  HW  HW  EP  OW  HW  HW  EP  OW  HW  HW  EP  OW  
HW  HW  EP  OW  HW  HW  EP  OW  HW  HW  EP  OW  HW  HW  EP  OW  HW  HW  EP  OW  
HW  HW  EP  OW  HW  HW  EP  OW  HW  HW  EP  OW  HW  HW  EP  OW  HW  HW  EP  OW  
HW  HW  EP  OW  HW  HW  EP  OW  HW  HW  EP  OW  HW  HW  EP  OW  HW  HW  EP  OW  
HW  HW  EP  OW  HW  HW  EP  OW  HW  HW  EP  OW  HW  HW  EP  OW  HW  HW  EP  OW  
HW  HW  EP  OW  HW  HW  EP  OW  HW  HW  EP  OW  HW  HW  EP  OW  HW  HW  EP  OW  
HW  HW  EP  OW  HW  HW  EP  OW  HW  HW  EP  OW  HW  HW  EP  OW  HW  HW  EP  OW  
HW  HW  EP  OW  HW  HW  EP  OW  HW  HW  EP  OW  HW  HW  EP  OW  HW  HW  EP  OW  
HW  HW  EP  OW  HW  HW  EP  OW  HW  HW  EP  OW  HW  HW  EP  OW  HW  HW  EP  OW  
HW  HW  EP  OW  HW  HW  EP  OW  HW  HW  EP  OW  HW  HW  EP  OW  HW  HW  EP  OW  
HW  HW  EP  OW  HW  HW  EP  OW  HW  HW  EP  OW  HW  HW  EP  OW  HW  HW  EP  OW  
HW  HW  EP  OW  HW  HW  EP  OW  HW  HW  EP  OW  HW  HW  EP  OW  HW  HW  EP  OW  
HW  HW  EP  OW  HW  HW  EP  OW  HW  HW  EP  OW  HW  HW  EP  OW  HW  HW  EP  OW  
HW  HW  EP  OW  HW  HW  EP  OW  HW  HW  EP  OW  HW  HW  EP  OW  HW  HW  EP  OW  
HW  HW  EP  OW  HW  HW  EP  OW  HW  HW  EP  OW  HW  HW  EP  OW  HW  HW  EP  OW  
HW  HW  EP  OW  HW  HW  EP  OW  HW  HW  EP  OW  HW  HW  EP  OW  HW  HW  EP  OW  
HW  HW  EP  OW  HW  HW  EP  OW  HW  HW  EP  OW  HW  HW  EP  OW  HW  HW  EP  OW  
HW  HW  EP  OW  HW  HW  EP  OW  HW  HW  EP  OW  HW  HW  EP  OW  HW  HW  EP  OW  
HW  HW  EP  OW  HW  HW  EP  OW  HW  HW  EP  OW  HW  HW  EP  OW  HW  HW  EP  OW  
HW  HW  EP  OW  HW  HW  EP  OW  HW  HW  EP  OW  HW  HW  EP  OW  HW  HW  EP  OW  
HW  HW  EP  OW  HW  HW  EP  OW  HW  HW  EP  OW  HW  HW  EP  OW  HW  HW  EP  OW  
HW  HW  EP  OW  HW  HW  EP  OW  HW  HW  EP  OW  HW  HW  EP  OW  HW  HW  EP  OW  
HW  HW  EP  OW  HW  HW  EP  OW  HW  HW  EP  OW  HW  HW  EP  OW  HW  HW  EP  OW  
HW  HW  EP  OW  HW  HW  EP  OW  HW  HW  EP  OW  HW  HW  EP  OW  HW  HW  EP  OW  
HW  HW  EP  OW  HW  HW  EP  OW  HW  HW  EP  OW  HW  HW  EP  OW  HW  HW  EP  OW  
HW  HW  EP  OW  HW  HW  EP  OW  HW  HW  EP  OW  HW  HW  EP  OW  HW  HW  EP  OW  
HW  HW  EP  OW  HW  HW  EP  OW  HW  HW  EP  OW  HW  HW  EP  OW  HW  HW  EP  OW  
HW  HW  EP  OW  HW  HW  EP  OW  HW  HW  EP  OW  HW  HW  EP  OW  HW  HW  EP  OW  
HW  HW  EP  OW  HW  HW  EP  OW  HW  HW  EP  OW  HW  HW  EP  OW  HW  HW  EP  OW  
HW  HW  EP  OW  HW  HW  EP  OW  HW  HW  EP  OW  HW  HW  EP  OW  HW  HW  EP  OW  
HW  HW  EP  OW  HW  HW  EP  OW  HW  HW  EP  OW  HW  HW  EP  OW  HW  HW  EP  OW  
HW  HW  EP  OW  HW  HW  EP  OW  HW  HW  EP  OW  HW  HW  EP  OW  HW  HW  EP  OW  
HW  HW  EP  OW  HW  HW  EP  OW  HW  HW  EP  OW  HW  HW  EP  OW  HW  HW  EP  OW  
HW  HW  EP  OW  HW  HW  EP  OW  HW  HW  EP  OW  HW  HW  EP  OW  HW  HW  EP  OW  
HW  HW  EP  OW  HW  HW  EP  OW  HW  HW  EP  OW  HW  HW  EP  OW  HW  HW  EP  OW  
HW  HW  EP  OW  HW  HW  EP  OW  HW  HW  EP  OW  HW  HW  EP  OW  HW  HW  EP  OW  
HW  HW  EP  OW  HW  HW  EP  OW  HW  HW  EP  OW  HW  HW  EP  OW  HW  HW  EP  OW  
HW  HW  EP  OW  HW  HW  EP  OW  HW  HW  EP  OW  HW  HW  EP  OW  HW  HW  EP  OW  
HW  HW  EP  OW  HW  HW  EP  OW  HW  HW  EP  OW  HW  HW  EP  OW  HW  HW  EP  OW  
HW  HW  EP  OW  HW  HW  EP  OW  HW  HW  EP  OW  HW  HW  EP  OW  HW  HW  EP  OW  
HW  HW  EP  OW  HW  HW  EP  OW  HW  HW  EP  OW  HW  HW  EP  OW  HW  HW  EP  OW  
HW  HW  EP  OW  HW  HW  EP  OW  HW  HW  EP  OW  HW  HW  EP  OW  HW  HW  EP  OW  
HW  HW  EP  OW  HW  HW  EP  OW  HW  HW  EP  OW  HW  HW  EP  OW  HW  HW  EP  OW  
HW  HW  EP  OW  HW  HW  EP  OW  HW  HW  EP  OW  HW  HW  EP  OW  HW  HW  EP  OW  
HW  HW  EP  OW  HW  HW  EP  OW  HW  HW  EP  OW  HW  HW  EP  OW  HW  HW  EP  OW  
HW  HW  EP  OW  HW  HW  EP  OW  HW  HW  EP  OW  HW  HW  EP  OW  HW  HW  EP  OW  
HW  HW  EP  OW  HW  HW  EP  OW  HW  HW  EP  OW  HW  HW  EP  OW  HW  HW  EP  OW  
HW  HW  EP  OW  HW  HW  EP  OW  HW  HW  EP  OW  HW  HW  EP  OW  HW  HW  EP  OW  
HW  HW  EP  OW  HW  HW  EP  OW  HW  HW  EP  OW  HW  HW  EP  OW  HW  HW  EP  OW  
HW  HW  EP  OW  HW  HW  EP  OW  HW  HW  EP  OW  HW  HW  EP  OW  HW  HW  EP  OW  
HW  HW  EP  OW  HW  HW  EP  OW  HW  HW  EP  OW  HW  HW  EP  OW  HW  HW  EP  OW  
HW  HW  EP  OW  HW  HW  EP  OW  HW  HW  EP  OW  HW  HW  EP  OW  HW  HW  EP  OW  
HW  HW  EP  OW  HW  HW  EP  OW  HW  HW  EP  OW  HW  HW  EP  OW  HW  HW  EP  OW  
HW  HW  EP  OW  HW  HW  EP  OW  HW  HW  EP  OW  HW  HW  EP  OW  HW  HW  EP  OW  
HW  HW  EP  OW  HW  HW  EP  OW  HW  HW  EP  OW  HW  HW  EP  OW  HW  HW  EP  OW  
HW  HW  EP  OW  HW  HW  EP  OW  HW  HW  EP  OW  HW  HW  EP  OW  HW  HW  EP  OW  
HW  HW  EP  OW  HW  HW  EP  OW  HW  HW  EP  OW  HW  HW  EP  OW  HW  HW  EP  OW  
HW  HW  EP  OW  HW  HW  EP  OW  HW  HW  EP  OW  HW  HW  EP  OW  HW  HW  EP  OW  
HW  HW  EP  OW  HW  HW  EP  OW  HW  HW  EP  OW  HW  HW  EP  OW  HW  HW  EP  OW  
HW  HW  EP  OW  HW  HW  EP  OW  HW  HW  EP  OW  HW  HW  EP  OW  HW  HW  EP  OW  
HW  HW  EP  OW  HW  HW  EP  OW  HW  HW  EP  OW  HW  HW  EP  OW  HW  HW  EP  OW  
HW  HW  EP  OW  HW  HW  EP  OW  HW  HW  EP  OW  HW  HW  EP  OW  HW  HW  EP  OW  
HW  HW  EP  OW  HW  HW  EP  OW  HW  HW  EP  OW  HW  HW  EP  OW  HW  HW  EP  OW  
HW  HW  EP  OW  HW  HW  EP  OW  HW  HW  EP  OW  HW  HW  EP  OW  HW  HW  EP  OW  
HW  HW  EP  OW  HW  HW  EP  OW  HW  HW  EP  OW  HW  HW  EP  OW  HW  HW  EP  OW  
HW  HW  EP  OW  HW  HW  EP  OW  HW  HW  EP  OW  HW  HW  EP  OW  HW  HW  EP  OW  
HW  HW  EP  OW  HW  HW  EP  OW  HW  HW  EP  OW  HW  HW  EP  OW  HW  HW  EP  OW  
HW  HW  EP  OW  HW  HW  EP  OW  HW  HW  EP  OW  HW  HW  EP  OW  HW  HW  EP  OW  
HW  HW  EP  OW  HW  HW  EP  OW  HW  HW  EP  OW  HW  HW  EP  OW  HW  HW  EP  OW  
HW  HW  EP  OW  HW  HW  EP  OW  HW  HW  EP  OW  HW  HW  EP  OW  HW  HW  EP  OW  
HW  HW  EP  OW  HW  HW  EP  OW  HW  HW  EP  OW  HW  HW  EP  OW  HW  HW  EP  OW  
HW  HW  EP  OW  HW  HW  EP  OW  HW  HW  EP  OW  HW  HW  EP  OW  HW  HW  EP  OW  
HW  HW  EP  OW  HW  HW  EP  OW  HW  HW  EP  OW  HW  HW  EP  OW  HW  HW  EP  OW  
HW  HW  EP  OW  HW  HW  EP  OW  HW  HW  EP  OW  HW  HW  EP  OW  HW  HW  EP  OW  
HW  HW  EP  OW  HW  HW  EP  OW  HW  HW  EP  OW  HW  HW  EP  OW  HW  HW  EP  OW  
HW  HW  EP  OW  HW  HW  EP  OW  HW  HW  EP  OW  HW  HW  EP  OW  HW  HW  EP  OW  
HW  HW  EP  OW  HW  HW  EP  OW  HW  HW  EP  OW  HW  HW  EP  OW  HW  HW  EP  OW  
HW  HW  EP  OW  HW  HW  EP  OW  HW  HW  EP  OW  HW  HW  EP  OW  HW  HW  EP  OW  
HW  HW  EP  OW  HW  HW  EP  OW  HW  HW  EP  OW  HW  HW  EP  OW  HW  HW  EP  OW  
HW  HW  EP  OW  HW  HW  EP  OW  HW  HW  EP  OW  HW  HW  EP  OW  HW  HW  EP  OW  
HW  HW  EP  OW  HW  HW  EP  OW  HW  HW  EP  OW  HW  HW  EP  OW  HW  HW  EP  OW  
HW  HW  EP  OW  HW  HW  EP  OW  HW  HW  EP  OW  HW  HW  EP  OW  HW  HW  EP  OW  
HW  HW  EP  OW  HW  HW  EP  OW  HW  HW  EP  OW  HW  HW  EP  OW  HW  HW  EP  OW  
HW  HW  EP  OW  HW  HW  EP  OW  HW  HW  EP  OW  HW  HW  EP  OW  HW  HW  EP  OW  
HW  HW  EP  OW  HW  HW  EP  OW  HW  HW  EP  OW  HW  HW  EP  OW  HW  HW  EP  OW  
HW  HW  EP  OW  HW  HW  EP  OW  HW  HW  EP  OW  HW  HW  EP  OW  HW  HW  EP  OW  
HW  HW  EP  OW  HW  HW  EP  OW  HW  HW  EP  OW  HW  HW  EP  OW  HW  HW  EP  OW  
HW  HW  EP  OW  HW  HW  EP  OW  HW  HW  EP  OW  HW  HW  EP  OW  HW  HW  EP  OW  
HW  HW  EP  OW  HW  HW  EP  OW  HW  HW  EP  OW  HW  HW  EP  OW  HW  HW  EP  OW  
HW  HW  EP  OW  HW  HW  EP  OW  HW  HW  EP  OW  HW  HW  EP  OW  HW  HW  EP  OW  
HW  HW  EP  OW  HW  HW  EP  OW  HW  HW  EP  OW  HW  HW  EP  OW  HW  HW  EP  OW  
HW  HW  EP  OW  HW  HW  EP  OW  HW  HW  EP  OW  HW  HW  EP  OW  HW  HW  EP  OW  
HW  HW  EP  OW  HW  HW  EP  OW  HW  HW  EP  OW  HW  HW  EP  OW  HW  HW  EP  OW  
HW  HW  EP  OW  HW  HW  EP  OW  HW  HW  EP  OW  HW  HW  EP  OW  HW  HW  EP  OW  
HW  HW  EP  OW  HW  HW  EP  OW  HW  HW  EP  OW  HW  HW  EP  OW  HW  HW  EP  OW  
HW  HW  EP  OW  HW  HW  EP  OW  HW  HW  EP  OW  HW  HW  EP  OW  HW  HW  EP  OW  
HW  HW  EP  OW  HW  HW  EP  OW  HW  HW  EP  OW  HW  HW  EP  OW  HW  HW  EP  OW  
HW  HW  EP  OW  HW  HW  EP  OW  HW  HW  EP  OW  HW  HW  EP  OW  HW  HW  EP  OW  
HW  HW  EP  OW  HW  HW  EP  OW  HW  HW  EP  OW  HW  HW  EP  OW  HW  HW  EP  OW  
HW  HW  EP  OW  HW  HW  EP  OW  HW  HW  EP  OW  HW  HW  EP  OW  HW  HW  EP  OW  
HW  HW  EP  OW  HW  HW  EP  OW  HW  HW  EP  OW  HW  HW  EP  OW  HW  HW  EP  OW  
HW  HW  EP  OW  HW  HW  EP  OW  HW  HW  EP  OW  HW  HW  EP  OW  HW  HW  EP  OW  
HW  HW  EP  OW  HW  HW  EP  OW  HW  HW  EP  OW  HW  HW  EP  OW  HW  HW  EP  OW  
HW  HW  EP  OW  HW  HW  EP  OW  HW  HW  EP  OW  HW  HW  EP  OW  HW  HW  EP  OW  
HW  HW  EP  OW  HW  HW  EP  OW  HW  HW  EP  OW  HW  HW  EP  OW  HW  HW  EP  OW  
HW  HW  EP  OW  HW  HW  EP  OW  HW  HW  EP  OW  HW  HW  EP  OW  HW  HW  EP  OW  
HW  HW  EP  OW  HW  HW  EP  OW  HW  HW  EP  OW  HW  HW  EP  OW  HW  HW  EP  OW  
HW  HW  EP  OW  HW  HW  EP  OW  HW  HW  EP  OW  HW  HW  EP  OW  HW  HW  EP  OW  
HW  HW  EP  OW  HW  HW  EP  OW  HW  HW  EP  OW  HW  HW  EP  OW  HW  HW  EP  OW  
HW  HW  EP  OW  HW  HW  EP  OW  HW  HW  EP  OW  HW  HW  EP  OW  HW  HW  EP  OW  
HW  HW  EP  OW  HW  HW  EP  OW  HW  HW  EP  OW  HW  HW  EP  OW  HW  HW  EP  OW  
HW  HW  EP  OW  HW  HW  EP  OW  HW  HW  EP  OW  HW  HW  EP  OW  HW  HW  EP  OW  
HW  HW  EP  OW  HW  HW  EP  OW  HW  HW  EP  OW  HW  HW  EP  OW  HW  HW  EP  OW  
HW  HW  EP  OW  HW  HW  EP  OW  HW  HW  EP  OW  HW  HW  EP  OW  HW  HW  EP  OW  
HW  HW  EP  OW  HW  HW  EP  OW  HW  HW  EP  OW  HW  HW  EP  OW  HW  HW  EP  OW  
HW  HW  EP  OW  HW  HW  EP  OW  HW  HW  EP  OW  HW  HW  EP  OW  HW  HW  EP  OW  
HW  HW  EP  OW  HW  HW  EP  OW  HW  HW  EP  OW  HW  HW  EP  OW  HW  HW  EP  OW  
HW  HW  EP  OW  HW  HW  EP  OW  HW  HW  EP  OW  HW  HW  EP  OW  HW  HW  EP  OW  
HW  HW  EP  OW  HW  HW  EP  OW  HW  HW  EP  OW  HW  HW  EP  OW  HW  HW  EP  OW  
HW  HW  EP  OW  HW  HW  EP  OW  HW  HW  EP  OW  HW  HW  EP  OW  HW  HW  EP  OW  
HW  HW  EP  OW  HW  HW  EP  OW  HW  HW  EP  OW  HW  HW  EP  OW  HW  HW  EP  OW  
HW  HW  EP  OW  HW  HW  EP  OW  HW  HW  EP  OW  HW  HW  EP  OW  HW  HW  EP  OW  
HW  HW  EP  OW  HW  HW  EP  OW  HW  HW  EP  OW  HW  HW  EP  OW  HW  HW  EP  OW  
HW  HW  EP  OW  HW  HW  EP  OW  HW  HW  EP  OW  HW  HW  EP  OW  HW  HW  EP  OW  
HW  HW  EP  OW  HW  HW  EP  OW  HW  HW  EP  OW  HW  HW  EP  OW  HW  HW  EP  OW  
HW  HW  EP  OW  HW  HW  EP  OW  HW  HW  EP  OW  HW  HW  EP  OW  HW  HW  EP  OW  
HW  HW  EP  OW  HW  HW  EP  OW  HW  HW  EP  OW  HW  HW  EP  OW  HW  HW  EP  OW  
HW  HW  EP  OW  HW  HW  EP  OW  HW  HW  EP  OW  HW  HW  EP  OW  HW  HW  EP  OW  
HW  HW  EP  OW  HW  HW  EP  OW  HW  HW  EP  OW  HW  HW  EP  OW  HW  HW  EP  OW  
HW  HW  EP  OW  HW  HW  EP  OW  HW  HW  EP  OW  HW  HW  EP  OW  HW  HW  EP  OW  
HW  HW  EP  OW  HW  HW  EP  OW  HW  HW  EP  OW  HW  HW  EP  OW  HW  HW  EP  OW  
HW  HW  EP  OW  HW  HW  EP  OW  HW  HW  EP  OW  HW  HW  EP  OW  HW  HW  EP  OW  
HW  HW  EP  OW  HW  HW  EP  OW  HW  HW  EP  OW  HW  HW  EP  OW  HW  HW  EP  OW  
HW  HW  EP  OW  HW  HW  EP  OW  HW  HW  EP  OW  HW  HW  EP  OW  HW  HW  EP  OW  
HW  HW  EP  OW  HW  HW  EP  OW  HW  HW  EP  OW  HW  HW  EP  OW  HW  HW  EP  OW  
HW  HW  EP  OW  HW  HW  EP  OW  HW  HW  EP  OW  HW  HW  EP  OW  HW  HW  EP  OW  
HW  HW  EP  OW  HW  HW  EP  OW  HW  HW  EP  OW  HW  HW  EP  OW  HW  HW  EP  OW  
HW  HW  EP  OW  HW  HW  EP  OW  HW  HW  EP  OW  HW  HW  EP  OW  HW  HW  EP  OW  
HW  HW  EP  OW  HW  HW  EP  OW  HW  HW  EP  OW  HW  HW  EP  OW  HW  HW  EP  OW  
HW  HW  EP  OW  HW  HW  EP  OW  HW  HW  EP  OW  HW  HW  EP  OW  HW  HW  EP  OW  
HW  HW  EP  OW  HW  HW  EP  OW  HW  HW  EP  OW  HW  HW  EP  OW  HW  HW  EP  OW  
HW  HW  EP  OW  HW  HW  EP  OW  HW  HW  EP  OW  HW  HW  EP  OW  HW  HW  EP  OW  
HW  HW  EP  OW  HW  HW  EP  OW  HW  HW  EP  OW  HW  HW  EP  OW  HW  HW  EP  OW  
HW  HW  EP  OW  HW  HW  EP  OW  HW  HW  EP  OW  HW  HW  EP  OW  HW  HW  EP  OW  
HW  HW  EP  OW  HW  HW  EP  OW  HW  HW  EP  OW  HW  HW  EP  OW  HW  HW  EP  OW  
HW  HW  EP  OW  HW  HW  EP  OW  HW  HW  EP  OW  HW  HW  EP  OW  HW  HW  EP  OW  
HW  HW  EP  OW  HW  HW  EP  OW  HW  HW  EP  OW  HW  HW  EP  OW  HW  HW  EP  OW  
HW  HW  EP  OW  HW  HW  EP  OW  HW  HW  EP  OW  HW  HW  EP  OW  HW  HW  EP  OW  
HW  HW  EP  OW  HW  HW  EP  OW  HW  HW  EP  OW  HW  HW  EP  OW  HW  HW  EP  OW  
HW  HW  EP  OW  HW  HW  EP  OW  HW  HW  EP  OW  HW  HW  EP  OW  HW  HW  EP  OW  
HW  HW  EP  OW  HW  HW  EP  OW  HW  HW  EP  OW  HW  HW  EP  OW  HW  HW  EP  OW  
HW  HW  EP  OW  HW  HW  EP  OW  HW  HW  EP  OW  HW  HW  EP  OW  HW  HW  EP  OW  
HW  HW  EP  OW  HW  HW  EP  OW  HW  HW  EP  OW  HW  HW  EP  OW  HW  HW  EP  OW  
HW  HW  EP  OW  HW  HW  EP  OW  HW  HW  EP  OW  HW  HW  EP  OW  HW  HW  EP  OW  
HW  HW  EP  OW  HW  HW  EP  OW  HW  HW  EP  OW  HW  HW  EP  OW  HW  HW  EP  OW  
HW  HW  EP  OW  HW  HW  EP  OW  HW  HW  EP  OW  HW  HW  EP  OW  HW  HW  EP  OW  
HW  HW  EP  OW  HW  HW  EP  OW  HW  HW  EP  OW  HW  HW  EP  OW  HW  HW  EP  OW  
HW  HW  EP  OW  HW  HW  EP  OW  HW  HW  EP  OW  HW  HW  EP  OW  HW  HW  EP  OW  
HW  HW  EP  OW  HW  HW  EP  OW  HW  HW  EP  OW  HW  HW  EP  OW  HW  HW  EP  OW  
HW  HW  EP  OW  HW  HW  EP  OW  HW  HW  EP  OW  HW  HW  EP  OW  HW  HW  EP  OW  
HW  HW  EP  OW  HW  HW  EP  OW  HW  HW  EP  OW  HW  HW  EP  OW  HW  HW  EP  OW  
HW  HW  EP  OW  HW  HW  EP  OW  HW  HW  EP  OW  HW  HW  EP  OW  HW  HW  EP  OW  
HW  HW  EP  OW  HW  HW  EP  OW  HW  HW  EP  OW  HW  HW  EP  OW  HW  HW  EP  OW  
HW  HW  EP  OW  HW  HW  EP  OW  HW  HW  EP  OW  HW  HW  EP  OW  HW  HW  EP  OW  
HW  HW  EP  OW  HW  HW  EP  OW  HW  HW  EP  OW  HW  HW  EP  OW  HW  HW  EP  OW  
HW  HW  EP  OW  HW  HW  EP  OW  HW  HW  EP  OW  HW  HW  EP  OW  HW  HW  EP  OW  
HW  HW  EP  OW  HW  HW  EP  OW  HW  HW  EP  OW  HW  HW  EP  OW  HW  HW  EP  OW  
HW  HW  EP  OW  HW  HW  EP  OW  HW  HW  EP  OW  HW  HW  EP  OW  HW  HW  EP  OW  
HW  HW  EP  OW  HW  HW  EP  OW  HW  HW  EP  OW  HW  HW  EP  OW  HW  HW  EP  OW  
HW  HW  EP  OW  HW  HW  EP  OW  HW  HW  EP  OW  HW  HW  EP  OW  HW  HW  EP  OW  
HW  HW  EP  OW  HW  HW  EP  OW  HW  HW  EP  OW  HW  HW  EP  OW  HW  HW  EP  OW  
HW  HW  EP  OW  HW  HW  EP  OW  HW  HW  EP  OW  HW  HW  EP  OW  HW  HW  EP  OW  
HW  HW  EP  OW  HW  HW  EP  OW  HW  HW  EP  OW  HW  HW  EP  OW  HW  HW  EP  OW  
HW  HW  EP  OW  HW  HW  EP  OW  HW  HW  EP  OW  HW  HW  EP  OW  HW  HW  EP  OW  
HW  HW  EP  OW  HW  HW  EP  OW  HW  HW  EP  OW  HW  HW  EP  OW  HW  HW  EP  OW  
HW  HW  EP  OW  HW  HW  EP  OW  HW  HW  EP  OW  HW  HW  EP  OW  HW  HW  EP  OW  
HW  HW  EP  OW  HW  HW  EP  OW  HW  HW  EP  OW  HW  HW  EP  OW  HW  HW  EP  OW  
HW  HW  EP  OW  HW  HW  EP  OW  HW  HW  EP  OW  HW  HW  EP  OW  HW  HW  EP  OW  
HW  HW  EP  OW  HW  HW  EP  OW  HW  HW  EP  OW  HW  HW  EP  OW  HW  HW  EP  OW  
HW  HW  EP  OW  HW  HW  EP  OW  HW  HW  EP  OW  HW  HW  EP  OW  HW  HW  EP  OW  
HW  HW  EP  OW  HW  HW  EP  OW  HW  HW  EP  OW  HW  HW  EP  OW  HW  HW  EP  OW  
HW  HW  EP  OW  HW  HW  EP  OW  HW  HW  EP  OW  HW  HW  EP  OW  HW  HW  EP  OW  
HW  HW  EP  OW  HW  HW  EP  OW  HW  HW  EP  OW  HW  HW  EP  OW  HW  HW  EP  OW  
HW  HW  EP  OW  HW  HW  EP  OW  HW  HW  EP  OW  HW  HW  EP  OW  HW  HW  EP  OW  
HW  HW  EP  OW  HW  HW  EP  OW  HW  HW  EP  OW  HW  HW  EP  OW  HW  HW  EP  OW  
HW  HW  EP  OW  HW  HW  EP  OW  HW  HW  EP  OW  HW  HW  EP  OW  HW  HW  EP  OW  
HW  HW  EP  OW  HW  HW  EP  OW  HW  HW  EP  OW  HW  HW  EP  OW  HW  HW  EP  OW  
HW  HW  EP  OW  HW  HW  EP  OW  HW  HW  EP  OW  HW  HW  EP  OW  HW  HW  EP  OW  
HW  HW  EP  OW  HW  HW  EP  OW  HW  HW  EP  OW  HW  HW  EP  OW  HW  HW  EP  OW  
HW  HW  EP  OW  HW  HW  EP  OW  HW  HW  EP  OW  HW  HW  EP  OW  HW  HW  EP  OW  
HW  HW  EP  OW  HW  HW  EP  OW  HW  HW  EP  OW  HW  HW  EP  OW  HW  HW  EP  OW  
HW  HW  EP  OW  HW  HW  EP  OW  HW  HW  EP  OW  HW  HW  EP  OW  HW  HW  EP  OW  
HW  HW  EP  OW  HW  HW  EP  OW  HW  HW  EP  OW  HW  HW  EP  OW  HW  HW  EP  OW  
HW  HW  EP  OW  HW  HW  EP  OW  HW  HW  EP  OW  HW  HW  EP  OW  HW  HW  EP  OW  
HW  HW  EP  OW  HW  HW  EP  OW  HW  HW  EP  OW  HW  HW  EP  OW  HW  HW  EP  OW  
HW  HW  EP  OW  HW  HW  EP  OW  HW  HW  EP  OW  HW  HW  EP  OW  HW  HW  EP  OW  
HW  HW  EP  OW  HW  HW  EP  OW  HW  HW  EP  OW  HW  HW  EP  OW  HW  HW  EP  OW  
HW  HW  EP  OW  HW  HW  EP  OW  HW  HW  EP  OW  HW  HW  EP  OW  HW  HW  EP  OW  
HW  HW  EP  OW  HW  HW  EP  OW  HW  HW  EP  OW  HW  HW  EP  OW  HW  HW  EP  OW  
HW  HW  EP  OW  HW  HW  EP  OW  HW  HW  EP  OW  HW  HW  EP  OW  HW  HW  EP  OW  
HW  HW  EP  OW  HW  HW  EP  OW  HW  HW  EP  OW  HW  HW  EP  OW  HW  HW  EP  OW  
HW  HW  EP  OW  HW  HW  EP  OW  HW  HW  EP  OW  HW  HW  EP  OW  HW  HW  EP  OW  
HW  HW  EP  OW  HW  HW  EP  OW  HW  HW  EP  OW  HW  HW  EP  OW  HW  HW  EP  OW  
HW  HW  EP  OW  HW  HW  EP  OW  HW  HW  EP  OW  HW  HW  EP  OW  HW  HW  EP  OW  
HW  HW  EP  OW  HW  HW  EP  OW  HW  HW  EP  OW  HW  HW  EP  OW  HW  HW  EP  OW  
HW  HW  EP  OW  HW  HW  EP  OW  HW  HW  EP  OW  HW  HW  EP  OW  HW  HW  EP  OW  
HW  HW  EP  OW  HW  HW  EP  OW  HW  HW  EP  OW  HW  HW  EP  OW  HW  HW  EP  OW  
HW  HW  EP  OW  HW  HW  EP  OW  HW  HW  EP  OW  HW  HW  EP  OW  HW  HW  EP  OW  
HW  HW  EP  OW  HW  HW  EP  OW  HW  HW  EP  OW  HW  HW  EP  OW  HW  HW  EP  OW  
HW  HW  EP  OW  HW  HW  EP  OW  HW  HW  EP  OW  HW  HW  EP  OW  HW  HW  EP  OW  
HW  HW  EP  OW  HW  HW  EP  OW  HW  HW  EP  OW  HW  HW  EP  OW  HW  HW  EP  OW  
HW  HW  EP  OW  HW  HW  EP  OW  HW  HW  EP  OW  HW  HW  EP  OW  HW  HW  EP  OW  
HW  HW  EP  OW  HW  HW  EP  OW  HW  HW  EP  OW  HW  HW  EP  OW  HW  HW  EP  OW  
HW  HW  EP  OW  HW  HW  EP  OW  HW  HW  EP  OW  HW  HW  EP  OW  HW  HW  EP  OW  
HW  HW  EP  OW  HW  HW  EP  OW  HW  HW  EP  OW  HW  HW  EP  OW  HW  HW  EP  OW  
HW  HW  EP  OW  HW  HW  EP  OW  HW  HW  EP  OW  HW  HW  EP  OW  HW  HW  EP  OW  
HW  HW  EP  OW  HW  HW  EP  OW  HW  HW  EP  OW  HW  HW  EP  OW  HW  HW  EP  OW  
HW  HW  EP  OW  HW  HW  EP  OW  HW  HW  EP  OW  HW  HW  EP  OW  HW  HW  EP  OW  
HW  HW  EP  OW  HW  HW  EP  OW  HW  HW  EP  OW  HW  HW  EP  OW  HW  HW  EP  OW  
HW  HW  EP  OW  HW  HW  EP  OW  HW  HW  EP  OW  HW  HW  EP  OW  HW  HW  EP  OW  
HW  HW  EP  OW  HW  HW  EP  OW  HW  HW  EP  OW  HW  HW  EP  OW  HW  HW  EP  OW  
HW  HW  EP  OW  HW  HW  EP  OW  HW  HW  EP  OW  HW  HW  EP  OW  HW  HW  EP  OW  
HW  HW  EP  OW  HW  HW  EP  OW  HW  HW  EP  OW  HW  HW  EP  OW  HW  HW  EP  OW  
HW  HW  EP  OW  HW  HW  EP  OW  HW  HW  EP  OW  HW  HW  EP  OW  HW  HW  EP  OW  
HW  HW  EP  OW  HW  HW  EP  OW  HW  HW  EP  OW  HW  HW  EP  OW  HW  HW  EP  OW  
HW  HW  EP  OW  HW  HW  EP  OW  HW  HW  EP  OW  HW  HW  EP  OW  HW  HW  EP  OW  
HW  HW  EP  OW  HW  HW  EP  OW  HW  HW  EP  OW  HW  HW  EP  OW  HW  HW  EP  OW  
HW  HW  EP  OW  HW  HW  EP  OW  HW  HW  EP  OW  HW  HW  EP  OW  HW  HW  EP  OW  
HW  HW  EP  OW  HW  HW  EP  OW  HW  HW  EP  OW  HW  HW  EP  OW  HW  HW  EP  OW  
HW  HW  EP  OW  HW  HW  EP  OW  HW  HW  EP  OW  HW  HW  EP  OW  HW  HW  EP  OW  
HW  HW  EP  OW  HW  HW  EP  OW  HW  HW  EP  OW  HW  HW  EP  OW  HW  HW  EP  OW  
HW  HW  EP  OW  HW  HW  EP  OW  HW  HW  EP  OW  HW  HW  EP  OW  HW  HW  EP  OW  
HW  HW  EP  OW  HW  HW  EP  OW  HW  HW  EP  OW  HW  HW  EP  OW  HW  HW  EP  OW  
HW  HW  EP  OW  HW  HW  EP  OW  HW  HW  EP  OW  HW  HW  EP  OW  HW  HW  EP  OW  
HW  HW  EP  OW  HW  HW  EP  OW  HW  HW  EP  OW  HW  HW  EP  OW  HW  HW  EP  OW  
HW  HW  EP  OW  HW  HW  EP  OW  HW  HW  EP  OW  HW  HW  EP  OW  HW  HW  EP  OW  
HW  HW  EP  OW  HW  HW  EP  OW  HW  HW  EP  OW  HW  HW  EP  OW  HW  HW  EP  OW  
HW  HW  EP  OW  HW  HW  EP  OW  HW  HW  EP  OW  HW  HW  EP  OW  HW  HW  EP  OW  
HW  HW  EP  OW  HW  HW  EP  OW  HW  HW  EP  OW  HW  HW  EP  OW  HW  HW  EP  OW  
HW  HW  EP  OW  HW  HW  EP  OW  HW  HW  EP  OW  HW  HW  EP  OW  HW  HW  EP  OW  
HW  HW  EP  OW  HW  HW  EP  OW  HW  HW  EP  OW  HW  HW  EP  OW  HW  HW  EP  OW  
HW  HW  EP  OW  HW  HW  EP  OW  HW  HW  EP  OW  HW  HW  EP  OW  HW  HW  EP  OW  
HW  HW  EP  OW  HW  HW  EP  OW  HW  HW  EP  OW  HW  HW  EP  OW  HW  HW  EP  OW  
HW  HW  EP  OW  HW  HW  EP  OW  HW  HW  EP  OW  HW  HW  EP  OW  HW  HW  EP  OW  
HW  HW  EP  OW  HW  HW  EP  OW  HW  HW  EP  OW  HW  HW  EP  OW  HW  HW  EP  OW  
HW  HW  EP  OW  HW  HW  EP  OW  HW  HW  EP  OW  HW  HW  EP  OW  HW  HW  EP  OW  
HW  HW  EP  OW  HW  HW  EP  OW  HW  HW  EP  OW  HW  HW  EP  OW  HW  HW  EP  OW  
HW  HW  EP  OW  HW  HW  EP  OW  HW  HW  EP  OW  HW  HW  EP  OW  HW  HW  EP  OW  
HW  HW  EP  OW  HW  HW  EP  OW  HW  HW  EP  OW  HW  HW  EP  OW  HW  HW  EP  OW  
HW  HW  EP  OW  HW  HW  EP  OW  HW  HW  EP  OW  HW  HW  EP  OW  HW  HW  EP  OW  
HW  HW  EP  OW  HW  HW  EP  OW  HW  HW  EP  OW  HW  HW  EP  OW  HW  HW  EP  OW  
HW  HW  EP  OW  HW  HW  EP  OW  HW  HW  EP  OW  HW  HW  EP  OW  HW  HW  EP  OW  
HW  HW  EP  OW  HW  HW  EP  OW  HW  HW  EP  OW  HW  HW  EP  OW  HW  HW  EP  OW  
HW  HW  EP  OW  HW  HW  EP  OW  HW  HW  EP  OW  HW  HW  EP  OW  HW  HW  EP  OW  
HW  HW  EP  OW  HW  HW  EP  OW  HW  HW  EP  OW  HW  HW  EP  OW  HW  HW  EP  OW  
HW  HW  EP  OW  HW  HW  EP  OW  HW  HW  EP  OW  HW  HW  EP  OW  HW  HW  EP  OW  
HW  HW  EP  OW  HW  HW  EP  OW  HW  HW  EP  OW  HW  HW  EP  OW  HW  HW  EP  OW  
HW  HW  EP  OW  HW  HW  EP  OW  HW  HW  EP  OW  HW  HW  EP  OW  HW  HW  EP  OW  
HW  HW  EP  OW  HW  HW  EP  OW  HW  HW  EP  OW  HW  HW  EP  OW  HW  HW  EP  OW  
HW  HW  EP  OW  HW  HW  EP  OW  HW  HW  EP  OW  HW  HW  EP  OW  HW  HW  EP  OW  
HW  HW  EP  OW  HW  HW  EP  OW  HW  HW  EP  OW  HW  HW  EP  OW  HW  HW  EP  OW  
HW  HW  EP  OW  HW  HW  EP  OW  HW  HW  EP  OW  HW  HW  EP  OW  HW  HW  EP  OW  
HW  HW  EP  OW  HW  HW  EP  OW  HW  HW  EP  OW  HW  HW  EP  OW  HW  HW  EP  OW  
HW  HW  EP  OW  HW  HW  EP  OW  HW  HW  EP  OW  HW  HW  EP  OW  HW  HW  EP  OW  
HW  HW  EP  OW  HW  HW  EP  OW  HW  HW  EP  OW  HW  HW  EP  OW  HW  HW  EP  OW  
HW  HW  EP  OW  HW  HW  EP  OW  HW  HW  EP  OW  HW  HW  EP  OW  HW  HW  EP  OW  
HW  HW  EP  OW  HW  HW  EP  OW  HW  HW  EP  OW  HW  HW  EP  OW  HW  HW  EP  OW  
HW  HW  EP  OW  HW  HW  EP  OW  HW  HW  EP  OW  HW  HW  EP  OW  HW  HW  EP  OW  
HW  HW  EP  OW  HW  HW  EP  OW  HW  HW  EP  OW  HW  HW  EP  OW  HW  HW  EP  OW  
HW  HW  EP  OW  HW  HW  EP  OW  HW  HW  EP  OW  HW  HW  EP  OW  HW  HW  EP  OW  
HW  HW  EP  OW  HW  HW  EP  OW  HW  HW  EP  OW  HW  HW  EP  OW  HW  HW  EP  OW  
HW  HW  EP  OW  HW  HW  EP  OW  HW  HW  EP  OW  HW  HW  EP  OW  HW  HW  EP  OW  
HW  HW  EP  OW  HW  HW  EP  OW  HW  HW  EP  OW  HW  HW  EP  OW  HW  HW  EP  OW  
HW  HW  EP  OW  HW  HW  EP  OW  HW  HW  EP  OW  HW  HW  EP  OW  HW  HW  EP  OW  
HW  HW  EP  OW  HW  HW  EP  OW  HW  HW  EP  OW  HW  HW  EP  OW  HW  HW  EP  OW  
HW  HW  EP  OW  HW  HW  EP  OW  HW  HW  EP  OW  HW  HW  EP  OW  HW  HW  EP  OW  
HW  HW  EP  OW  HW  HW  EP  OW  HW  HW  EP  OW  HW  HW  EP  OW  HW  HW  EP  OW  
HW  HW  EP  OW  HW  HW  EP  OW  HW  HW  EP  OW  HW  HW  EP  OW  HW  HW  EP  OW  
HW  HW  EP  OW  HW  HW  EP  OW  HW  HW  EP  OW  HW  HW  EP  OW  HW  HW  EP  OW  
HW  HW  EP  OW  HW  HW  EP  OW  HW  HW  EP  OW  HW  HW  EP  OW  HW  HW  EP  OW  
HW  HW  EP  OW  HW  HW  EP  OW  HW  HW  EP  OW  HW  HW  EP  OW  HW  HW  EP  OW  
HW  HW  EP  OW  HW  HW  EP  OW  HW  HW  EP  OW  HW  HW  EP  OW  HW  HW  EP  OW  
HW  HW  EP  OW  HW  HW  EP  OW  HW  HW  EP  OW  HW  HW  EP  OW  HW  HW  EP  OW  
HW  HW  EP  OW  HW  HW  EP  OW  HW  HW  EP  OW  HW  HW  EP  OW  HW  HW  EP  OW  
HW  HW  EP  OW  HW  HW  EP  OW  HW  HW  EP  OW  HW  HW  EP  OW  HW  HW  EP  OW  
HW  HW  EP  OW  HW  HW  EP  OW  HW  HW  EP  OW  HW  HW  EP  OW  HW  HW  EP  OW  
HW  HW  EP  OW  HW  HW  EP  OW  HW  HW  EP  OW  HW  HW  EP  OW  HW  HW  EP  OW  
HW  HW  EP  OW  HW  HW  EP  OW  HW  HW  EP  OW  HW  HW  EP  OW  HW  HW  EP  OW  
HW  HW  EP  OW  HW  HW  EP  OW  HW  HW  EP  OW  HW  HW  EP  OW  HW  HW  EP  OW  
HW  HW  EP  OW  HW  HW  EP  OW  HW  HW  EP  OW  HW  HW  EP  OW  HW  HW  EP  OW  
HW  HW  EP  OW  HW  HW  EP  OW  HW  HW  EP  OW  HW  HW  EP  OW  HW  HW  EP  OW  
HW  HW  EP  OW  HW  HW  EP  OW  HW  HW  EP  OW  HW  HW  EP  OW  HW  HW  EP  OW  
HW  HW  EP  OW  HW  HW  EP  OW  HW  HW  EP  OW  HW  HW  EP  OW  HW  HW  EP  OW  
HW  HW  EP  OW  HW  HW  EP  OW  HW  HW  EP  OW  HW  HW  EP  OW  HW  HW  EP  OW  
HW  HW  EP  OW  HW  HW  EP  OW  HW  HW  EP  OW  HW  HW  EP  OW  HW  HW  EP  OW  
HW  HW  EP  OW  HW  HW  EP  OW  HW  HW  EP  OW  HW  HW  EP  OW  HW  HW  EP  OW  
HW  HW  EP  OW  HW  HW  EP  OW  HW  HW  EP  OW  HW  HW  EP  OW  HW  HW  EP  OW  
HW  HW  EP  OW  HW  HW  EP  OW  HW  HW  EP  OW  HW  HW  EP  OW  HW  HW  EP  OW  
HW  HW  EP  OW  HW  HW  EP  OW  HW  HW  EP  OW  HW  HW  EP  OW  HW  HW  EP  OW  
HW  HW  EP  OW  HW  HW  EP  OW  HW  HW  EP  OW  HW  HW  EP  OW  HW  HW  EP  OW  
HW  HW  EP  OW  HW  HW  EP  OW  HW  HW  EP  OW  HW  HW  EP  OW  HW  HW  EP  OW  
HW  HW  EP  OW  HW  HW  EP  OW  HW  HW  EP  OW  HW  HW  EP  OW  HW  HW  EP  OW  
HW  HW  EP  OW  HW  HW  EP  OW  HW  HW  EP  OW  HW  HW  EP  OW  HW  HW  EP  OW  
HW  HW  EP  OW  HW  HW  EP  OW  HW  HW  EP  OW  HW  HW  EP  OW  HW  HW  EP  OW  
HW  HW  EP  OW  HW  HW  EP  OW  HW  HW  EP  OW  HW  HW  EP  OW  HW  HW  EP  OW  
HW  HW  EP  OW  HW  HW  EP  OW  HW  HW  EP  OW  HW  HW  EP  OW  HW  HW  EP  OW  
HW  HW  EP  OW  HW  HW  EP  OW  HW  HW  EP  OW  HW  HW  EP  OW  HW  HW  EP  OW  
HW  HW  EP  OW  HW  HW  EP  OW  HW  HW  EP  OW  HW  HW  EP  OW  HW  HW  EP  OW  
HW  HW  EP  OW  HW  HW  EP  OW  HW  HW  EP  OW  HW  HW  EP  OW  HW  HW  EP  OW  
HW  HW  EP  OW  HW  HW  EP  OW  HW  HW  EP  OW  HW  HW  EP  OW  HW  HW  EP  OW  
HW  HW  EP  OW  HW  HW  EP  OW  HW  HW  EP  OW  HW  HW  EP  OW  HW  HW  EP  OW  
HW  HW  EP  OW  HW  HW  EP  OW  HW  HW  EP  OW  HW  HW  EP  OW  HW  HW  EP  OW  
HW  HW  EP  OW  HW  HW  EP  OW  HW  HW  EP  OW  HW  HW  EP  OW  HW  HW  EP  OW  
HW  HW  EP  OW  HW  HW  EP  OW  HW  HW  EP  OW  HW  HW  EP  OW  HW  HW  EP  OW  
HW  HW  EP  OW  HW  HW  EP  OW  HW  HW  EP  OW  HW  HW  EP  OW  HW  HW  EP  OW  
HW  HW  EP  OW  HW  HW  EP  OW  HW  HW  EP  OW  HW  HW  EP  OW  HW  HW  EP  OW  
HW  HW  EP  OW  HW  HW  EP  OW  HW  HW  EP  OW  HW  HW  EP  OW  HW  HW  EP  OW  
HW  HW  EP  OW  HW  HW  EP  OW  HW  HW  EP  OW  HW  HW  EP  OW  HW  HW  EP  OW  
HW  HW  EP  OW  HW  HW  EP  OW  HW  HW  EP  OW  HW  HW  EP  OW  HW  HW  EP  OW  
HW  HW  EP  OW  HW  HW  EP  OW  HW  HW  EP  OW  HW  HW  EP  OW  HW  HW  EP  OW  
HW  HW  EP  OW  HW  HW  EP  OW  HW  HW  EP  OW  HW  HW  EP  OW  HW  HW  EP  OW  
HW  HW  EP  OW  HW  HW  EP  OW  HW  HW  EP  OW  HW  HW  EP  OW  HW  HW  EP  OW  
HW  HW  EP  OW  HW  HW  EP  OW  HW  HW  EP  OW  HW  HW  EP  OW  HW  HW  EP  OW  
HW  HW  EP  OW  HW  HW  EP  OW  HW  HW  EP  OW  HW  HW  EP  OW  HW  HW  EP  OW  
HW  HW  EP  OW  HW  HW  EP  OW  HW  HW  EP  OW  HW  HW  EP  OW  HW  HW  EP  OW  
HW  HW  EP  OW  HW  HW  EP  OW  HW  HW  EP  OW  HW  HW  EP  OW  HW  HW  EP  OW  
HW  HW  EP  OW  HW  HW  EP  OW  HW  HW  EP  OW  HW  HW  EP  OW  HW  HW  EP  OW  
HW  HW  EP  OW  HW  HW  EP  OW  HW  HW  EP  OW  HW  HW  EP  OW  HW  HW  EP  OW  
HW  HW  EP  OW  HW  HW  EP  OW  HW  HW  EP  OW  HW  HW  EP  OW  HW  HW  EP  OW  
HW  HW  EP  OW  HW  HW  EP  OW  HW  HW  EP  OW  HW  HW  EP  OW  HW  HW  EP  OW  
HW  HW  EP  OW  HW  HW  EP  OW  HW  HW  EP  OW  HW  HW  EP  OW  HW  HW  EP  OW  
HW  HW  EP  OW  HW  HW  EP  OW  HW  HW  EP  OW  HW  HW  EP  OW  HW  HW  EP  OW  
HW  HW  EP  OW  HW  HW  EP  OW  HW  HW  EP  OW  HW  HW  EP  OW  HW  HW  EP  OW  
HW  HW  EP  OW  HW  HW  EP  OW  HW  HW  EP  OW  HW  HW  EP  OW  HW  HW  EP  OW  
HW  HW  EP  OW  HW  HW  EP  OW  HW  HW  EP  OW  HW  HW  EP  OW  HW  HW  EP  OW  
HW  HW  EP  OW  HW  HW  EP  OW  HW  HW  EP  OW  HW  HW  EP  OW  HW  HW  EP  OW  
HW  HW  EP  OW  HW  HW  EP  OW  HW  HW  EP  OW  HW  HW  EP  OW  HW  HW  EP  OW  
HW  HW  EP  OW  HW  HW  EP  OW  HW  HW  EP  OW  HW  HW  EP  OW  HW  HW  EP  OW  
HW  HW  EP  OW  HW  HW  EP  OW  HW  HW  EP  OW  HW  HW  EP  OW  HW  HW  EP  OW  
HW  HW  EP  OW  HW  HW  EP  OW  HW  HW  EP  OW  HW  HW  EP  OW  HW  HW  EP  OW  
HW  HW  EP  OW  HW  HW  EP  OW  HW  HW  EP  OW  HW  HW  EP  OW  HW  HW  EP  OW  
HW  HW  EP  OW  HW  HW  EP  OW  HW  HW  EP  OW  HW  HW  EP  OW  HW  HW  EP  OW  
HW  HW  EP  OW  HW  HW  EP  OW  HW  HW  EP  OW  HW  HW  EP  OW  HW  HW  EP  OW  
HW  HW  EP  OW  HW  HW  EP  OW  HW  HW  EP  OW  HW  HW  EP  OW  HW  HW  EP  OW  
HW  HW  EP  OW  HW  HW  EP  OW  HW  HW  EP  OW  HW  HW  EP  OW  HW  HW  EP  OW  
HW  HW  EP  OW  HW  HW  EP  OW  HW  HW  EP  OW  HW  HW  EP  OW  HW  HW  EP  OW  
HW  HW  EP  OW  HW  HW  EP  OW  HW  HW  EP  OW  HW  HW  EP  OW  HW  HW  EP  OW  
HW  HW  EP  OW  HW  HW  EP  OW  HW  HW  EP  OW  HW  HW  EP  OW  HW  HW  EP  OW  
HW  HW  EP  OW  HW  HW  EP  OW  HW  HW  EP  OW  HW  HW  EP  OW  HW  HW  EP  OW  
HW  HW  EP  OW  HW  HW  EP  OW  HW  HW  EP  OW  HW  HW  EP  OW  HW  HW  EP  OW  
HW  HW  EP  OW  HW  HW  EP  OW  HW  HW  EP  OW  HW  HW  EP  OW  HW  HW  EP  OW  
HW  HW  EP  OW  HW  HW  EP  OW  HW  HW  EP  OW  HW  HW  EP  OW  HW  HW  EP  OW  
HW  HW  EP  OW  HW  HW  EP  OW  HW  HW  EP  OW  HW  HW  EP  OW  HW  HW  EP  OW  
HW  HW  EP  OW  HW  HW  EP  OW  HW  HW  EP  OW  HW  HW  EP  OW  HW  HW  EP  OW  
HW  HW  EP  OW  HW  HW  EP  OW  HW  HW  EP  OW  HW  HW  EP  OW  HW  HW  EP  OW  
HW  HW  EP  OW  HW  HW  EP  OW  HW  HW  EP  OW  HW  HW  EP  OW  HW  HW  EP  OW  
HW  HW  EP  OW  HW  HW  EP  OW  HW  HW  EP  OW  HW  HW  EP  OW  HW  HW  EP  OW  
HW  HW  EP  OW  HW  HW  EP  OW  HW  HW  EP  OW  HW  HW  EP  OW  HW  HW  EP  OW  
HW  HW  EP  OW  HW  HW  EP  OW  HW  HW  EP  OW  HW  HW  EP  OW  HW  HW  EP  OW  
HW  HW  EP  OW  HW  HW  EP  OW  HW  HW  EP  OW  HW  HW  EP  OW  HW  HW  EP  OW  
HW  HW  EP  OW  HW  HW  EP  OW  HW  HW  EP  OW  HW  HW  EP  OW  HW  HW  EP  OW  
HW  HW  EP  OW  HW  HW  EP  OW  HW  HW  EP  OW  HW  HW  EP  OW  HW  HW  EP  OW  
HW  HW  EP  OW  HW  HW  EP  OW  HW  HW  EP  OW  HW  HW  EP  OW  HW  HW  EP  OW  
HW  HW  EP  OW  HW  HW  EP  OW  HW  HW  EP  OW  HW  HW  EP  OW  HW  HW  EP  OW  
HW  HW  EP  OW  HW  HW  EP  OW  HW  HW  EP  OW  HW  HW  EP  OW  HW  HW  EP  OW  
HW  HW  EP  OW  HW  HW  EP  OW  HW  HW  EP  OW  HW  HW  EP  OW  HW  HW  EP  OW  
HW  HW  EP  OW  HW  HW  EP  OW  HW  HW  EP  OW  HW  HW  EP  OW  HW  HW  EP  OW  
HW  HW  EP  OW  HW  HW  EP  OW  HW  HW  EP  OW  HW  HW  EP  OW  HW  HW  EP  OW  
HW  HW  EP  OW  HW  HW  EP  OW  HW  HW  EP  OW  HW  HW  EP  OW  HW  HW  EP  OW  
HW  HW  EP  OW  HW  HW  EP  OW  HW  HW  EP  OW  HW  HW  EP  OW  HW  HW  EP  OW  
HW  HW  EP  OW  HW  HW  EP  OW  HW  HW  EP  OW  HW  HW  EP  OW  HW  HW  EP  OW  
HW  HW  EP  OW  HW  HW  EP  OW  HW  HW  EP  OW  HW  HW  EP  OW  HW  HW  EP  OW  
HW  HW  EP  OW  HW  HW  EP  OW  HW  HW  EP  OW  HW  HW  EP  OW  HW  HW  EP  OW  
HW  HW  EP  OW  HW  HW  EP  OW  HW  HW  EP  OW  HW  HW  EP  OW  HW  HW  EP  OW  
HW  HW  EP  OW  HW  HW  EP  OW  HW  HW  EP  OW  HW  HW  EP  OW  HW  HW  EP  OW  
HW  HW  EP  OW  HW  HW  EP  OW  HW  HW  EP  OW  HW  HW  EP  OW  HW  HW  EP  OW  
HW  HW  EP  OW  HW  HW  EP  OW  HW  HW  EP  OW  HW  HW  EP  OW  HW  HW  EP  OW  
HW  HW  EP  OW  HW  HW  EP  OW  HW  HW  EP  OW  HW  HW  EP  OW  HW  HW  EP  OW  
HW  HW  EP  OW  HW  HW  EP  OW  HW  HW  EP  OW  HW  HW  EP  OW  HW  HW  EP  OW  
HW  HW  EP  OW  HW  HW  EP  OW  HW  HW  EP  OW  HW  HW  EP  OW  HW  HW  EP  OW  
HW  HW  EP  OW  HW  HW  EP  OW  HW  HW  EP  OW  HW  HW  EP  OW  HW  HW  EP  OW  
HW  HW  EP  OW  HW  HW  EP  OW  HW  HW  EP  OW  HW  HW  EP  OW  HW  HW  EP  OW  
HW  HW  EP  OW  HW  HW  EP  OW  HW  HW  EP  OW  HW  HW  EP  OW  HW  HW  EP  OW  
HW  HW  EP  OW  HW  HW  EP  OW  HW  HW  EP  OW  HW  HW  EP  OW  HW  HW  EP  OW  
HW  HW  EP  OW  HW  HW  EP  OW  HW  HW  EP  OW  HW  HW  EP  OW  HW  HW  EP  OW  
HW  HW  EP  OW  HW  HW  EP  OW  HW  HW  EP  OW  HW  HW  EP  OW  HW  HW  EP  OW  
HW  HW  EP  OW  HW  HW  EP  OW  HW  HW  EP  OW  HW  HW  EP  OW  HW  HW  EP  OW  
HW  HW  EP  OW  HW  HW  EP  OW  HW  HW  EP  OW  HW  HW  EP  OW  HW  HW  EP  OW  
HW  HW  EP  OW  HW  HW  EP  OW  HW  HW  EP  OW  HW  HW  EP  OW  HW  HW  EP  OW  
HW  HW  EP  OW  HW  HW  EP  OW  HW  HW  EP  OW  HW  HW  EP  OW  HW  HW  EP  OW  
HW  HW  EP  OW  HW  HW  EP  OW  HW  HW  EP  OW  HW  HW  EP  OW  HW  HW  EP  OW  
HW  HW  EP  OW  HW  HW  EP  OW  HW  HW  EP  OW  HW  HW  EP  OW  HW  HW  EP  OW  
HW  HW  EP  OW  HW  HW  EP  OW  HW  HW  EP  OW  HW  HW  EP  OW  HW  HW  EP  OW  
HW  HW  EP  OW  HW  HW  EP  OW  HW  HW  EP  OW  HW  HW  EP  OW  HW  HW  EP  OW  
HW  HW  EP  OW  HW  HW  EP  OW  HW  HW  EP  OW  HW  HW  EP  OW  HW  HW  EP  OW  
HW  HW  EP  OW  HW  HW  EP  OW  HW  HW  EP  OW  HW  HW  EP  OW  HW  HW  EP  OW  
HW  HW  EP  OW  HW  HW  EP  OW  HW  HW  EP  OW  HW  HW  EP  OW  HW  HW  EP  OW  
HW  HW  EP  OW  HW  HW  EP  OW  HW  HW  EP  OW  HW  HW  EP  OW  HW  HW  EP  OW  
HW  HW  EP  OW  HW  HW  EP  OW  HW  HW  EP  OW  HW  HW  EP  OW  HW  HW  EP  OW  
HW  HW  EP  OW  HW  HW  EP  OW  HW  HW  EP  OW  HW  HW  EP  OW  HW  HW  EP  OW  
HW  HW  EP  OW  HW  HW  EP  OW  HW  HW  EP  OW  HW  HW  EP  OW  HW  HW  EP  OW  
HW  HW  EP  OW  HW  HW  EP  OW  HW  HW  EP  OW  HW  HW  EP  OW  HW  HW  EP  OW  
HW  HW  EP  OW  HW  HW  EP  OW  HW  HW  EP  OW  HW  HW  EP  OW  HW  HW  EP  OW  
HW  HW  EP  OW  HW  HW  EP  OW  HW  HW  EP  OW  HW  HW  EP  OW  HW  HW  EP  OW  
HW  HW  EP  OW  HW  HW  EP  OW  HW  HW  EP  OW  HW  HW  EP  OW  HW  HW  EP  OW  
HW  HW  EP  OW  HW  HW  EP  OW  HW  HW  EP  OW  HW  HW  EP  OW  HW  HW  EP  OW  
HW  HW  EP  OW  HW  HW  EP  OW  HW  HW  EP  OW  HW  HW  EP  OW  HW  HW  EP  OW  
HW  HW  EP  OW  HW  HW  EP  OW  HW  HW  EP  OW  HW  HW  EP  OW  HW  HW  EP  OW  
HW  HW  EP  OW  HW  HW  EP  OW  HW  HW  EP  OW  HW  HW  EP  OW  HW  HW  EP  OW  
HW  HW  EP  OW  HW  HW  EP  OW  HW  HW  EP  OW  HW  HW  EP  OW  HW  HW  EP  OW  
HW  HW  EP  OW  HW  HW  EP  OW  HW  HW  EP  OW  HW  HW  EP  OW  HW  HW  EP  OW  
HW  HW  EP  OW  HW  HW  EP  OW  HW  HW  EP  OW  HW  HW  EP  OW  HW  HW  EP  OW  
HW  HW  EP  OW  HW  HW  EP  OW  HW  HW  EP  OW  HW  HW  EP  OW  HW  HW  EP  OW  
HW  HW  EP  OW  HW  HW  EP  OW  HW  HW  EP  OW  HW  HW  EP  OW  HW  HW  EP  OW  
HW  HW  EP  OW  HW  HW  EP  OW  HW  HW  EP  OW  HW  HW  EP  OW  HW  HW  EP  OW  
HW  HW  EP  OW  HW  HW  EP  OW  HW  HW  EP  OW  HW  HW  EP  OW  HW  HW  EP  OW  
HW  HW  EP  OW  HW  HW  EP  OW  HW  HW  EP  OW  HW  HW  EP  OW  HW  HW  EP  OW  
HW  HW  EP  OW  HW  HW  EP  OW  HW  HW  EP  OW  HW  HW  EP  OW  HW  HW  EP  OW  
HW  HW  EP  OW  HW  HW  EP  OW  HW  HW  EP  OW  HW  HW  EP  OW  HW  HW  EP  OW  
HW  HW  EP  OW  HW  HW  EP  OW  HW  HW  EP  OW  HW  HW  EP  OW  HW  HW  EP  OW  
HW  HW  EP  OW  HW  HW  EP  OW  HW  HW  EP  OW  HW  HW  EP  OW  HW  HW  EP  OW  
HW  HW  EP  OW  HW  HW  EP  OW  HW  HW  EP  OW  HW  HW  EP  OW  HW  HW  EP  OW  
HW  HW  EP  OW  HW  HW  EP  OW  HW  HW  EP  OW  HW  HW  EP  OW  HW  HW  EP  OW  
HW  HW  EP  OW  HW  HW  EP  OW  HW  HW  EP  OW  HW  HW  EP  OW  HW  HW  EP  OW  
HW  HW  EP  OW  HW  HW  EP  OW  HW  HW  EP  OW  HW  HW  EP  OW  HW  HW  EP  OW  
HW  HW  EP  OW  HW  HW  EP  OW  HW  HW  EP  OW  HW  HW  EP  OW  HW  HW  EP  OW  
HW  HW  EP  OW  HW  HW  EP  OW  HW  HW  EP  OW  HW  HW  EP  OW  HW  HW  EP  OW  
HW  HW  EP  OW  HW  HW  EP  OW  HW  HW  EP  OW  HW  HW  EP  OW  HW  HW  EP  OW  
HW  HW  EP  OW  HW  HW  EP  OW  HW  HW  EP  OW  HW  HW  EP  OW  HW  HW  EP  OW  
HW  HW  EP  OW  HW  HW  EP  OW  HW  HW  EP  OW  HW  HW  EP  OW  HW  HW  EP  OW  
HW  HW  EP  OW  HW  HW  EP  OW  HW  HW  EP  OW  HW  HW  EP  OW  HW  HW  EP  OW  
HW  HW  EP  OW  HW  HW  EP  OW  HW  HW  EP  OW  HW  HW  EP  OW  HW  HW  EP  OW  
HW  HW  EP  OW  HW  HW  EP  OW  HW  HW  EP  OW  HW  HW  EP  OW  HW  HW  EP  OW  
HW  HW  EP  OW  HW  HW  EP  OW  HW  HW  EP  OW  HW  HW  EP  OW  HW  HW  EP  OW  
HW  HW  EP  OW  HW  HW  EP  OW  HW  HW  EP  OW  HW  HW  EP  OW  HW  HW  EP  OW  
HW  HW  EP  OW  HW  HW  EP  OW  HW  HW  EP  OW  HW  HW  EP  OW  HW  HW  EP  OW  
HW  HW  EP  OW  HW  HW  EP  OW  HW  HW  EP  OW  HW  HW  EP  OW  HW  HW  EP  OW  
HW  HW  EP  OW  HW  HW  EP  OW  HW  HW  EP  OW  HW  HW  EP  OW  HW  HW  EP  OW  
HW  HW  EP  OW  HW  HW  EP  OW  HW  HW  EP  OW  HW  HW  EP  OW  HW  HW  EP  OW  
HW  HW  EP  OW  HW  HW  EP  OW  HW  HW  EP  OW  HW  HW  EP  OW  HW  HW  EP  OW  
HW  HW  EP  OW  HW  HW  EP  OW  HW  HW  EP  OW  HW  HW  EP  OW  HW  HW  EP  OW  
HW  HW  EP  OW  HW  HW  EP  OW  HW  HW  EP  OW  HW  HW  EP  OW  HW  HW  EP  OW  
HW  HW  EP  OW  HW  HW  EP  OW  HW  HW  EP  OW  HW  HW  EP  OW  HW  HW  EP  OW  
HW  HW  EP  OW  HW  HW  EP  OW  HW  HW  EP  OW  HW  HW  EP  OW  HW  HW  EP  OW  
HW  HW  EP  OW  HW  HW  EP  OW  HW  HW  EP  OW  HW  HW  EP  OW  HW  HW  EP  OW  
HW  HW  EP  OW  HW  HW  EP  OW  HW  HW  EP  OW  HW  HW  EP  OW  HW  HW  EP  OW  
HW  HW  EP  OW  HW  HW  EP  OW  HW  HW  EP  OW  HW  HW  EP  OW  HW  HW  EP  OW  
HW  HW  EP  OW  HW  HW  EP  OW  HW  HW  EP  OW  HW  HW  EP  OW  HW  HW  EP  OW  
HW  HW  EP  OW  HW  HW  EP  OW  HW  HW  EP  OW  HW  HW  EP  OW  HW  HW  EP  OW  
HW  HW  EP  OW  HW  HW  EP  OW  HW  HW  EP  OW  HW  HW  EP  OW  HW  HW  EP  OW  
HW  HW  EP  OW  HW  HW  EP  OW  HW  HW  EP  OW  HW  HW  EP  OW  HW  HW  EP  OW  
HW  HW  EP  OW  HW  HW  EP  OW  HW  HW  EP  OW  HW  HW  EP  OW  HW  HW  EP  OW  
HW  HW  EP  OW  HW  HW  EP  OW  HW  HW  EP  OW  HW  HW  EP  OW  HW  HW  EP  OW  
HW  HW  EP  OW  HW  HW  EP  OW  HW  HW  EP  OW  HW  HW  EP  OW  HW  HW  EP  OW  
HW  HW  EP  OW  HW  HW  EP  OW  HW  HW  EP  OW  HW  HW  EP  OW  HW  HW  EP  OW  
HW  HW  EP  OW  HW  HW  EP  OW  HW  HW  EP  OW  HW  HW  EP  OW  HW  HW  EP  OW  
HW  HW  EP  OW  HW  HW  EP  OW  HW  HW  EP  OW  HW  HW  EP  OW  HW  HW  EP  OW  
HW  HW  EP  OW  HW  HW  EP  OW  HW  HW  EP  OW  HW  HW  EP  OW  HW  HW  EP  OW  
HW  HW  EP  OW  HW  HW  EP  OW  HW  HW  EP  OW  HW  HW  EP  OW  HW  HW  EP  OW  
HW  HW  EP  OW  HW  HW  EP  OW  HW  HW  EP  OW  HW  HW  EP  OW  HW  HW  EP  OW  
HW  HW  EP  OW  HW  HW  EP  OW  HW  HW  EP  OW  HW  HW  EP  OW  HW  HW  EP  OW  
HW  HW  EP  OW  HW  HW  EP  OW  HW  HW  EP  OW  HW  HW  EP  OW  HW  HW  EP  OW  
HW  HW  EP  OW  HW  HW  EP  OW  HW  HW  EP  OW  HW  HW  EP  OW  HW  HW  EP  OW  
HW  HW  EP  OW  HW  HW  EP  OW  HW  HW  EP  OW  HW  HW  EP  OW  HW  HW  EP  OW  
HW  HW  EP  OW  HW  HW  EP  OW  HW  HW  EP  OW  HW  HW  EP  OW  HW  HW  EP  OW  
HW  HW  EP  OW  HW  HW  EP  OW  HW  HW  EP  OW  HW  HW  EP  OW  HW  HW  EP  OW  
HW  HW  EP  OW  HW  HW  EP  OW  HW  HW  EP  OW  HW  HW  EP  OW  HW  HW  EP  OW  
HW  HW  EP  OW  HW  HW  EP  OW  HW  HW  EP  OW  HW  HW  EP  OW  HW  HW  EP  OW  
HW  HW  EP  OW  HW  HW  EP  OW  HW  HW  EP  OW  HW  HW  EP  OW  HW  HW  EP  OW  
HW  HW  EP  OW  HW  HW  EP  OW  HW  HW  EP  OW  HW  HW  EP  OW  HW  HW  EP  OW  
HW  HW  EP  OW  HW  HW  EP  OW  HW  HW  EP  OW  HW  HW  EP  OW  HW  HW  EP  OW  
HW  HW  EP  OW  HW  HW  EP  OW  HW  HW  EP  OW  HW  HW  EP  OW  HW  HW  EP  OW  
HW  HW  EP  OW  HW  HW  EP  OW  HW  HW  EP  OW  HW  HW  EP  OW  HW  HW  EP  OW  
HW  HW  EP  OW  HW  HW  EP  OW  HW  HW  EP  OW  HW  HW  EP  OW  HW  HW  EP  OW  
HW  HW  EP  OW  HW  HW  EP  OW  HW  HW  EP  OW  HW  HW  EP  OW  HW  HW  EP  OW  
HW  HW  EP  OW  HW  HW  EP  OW  HW  HW  EP  OW  HW  HW  EP  OW  HW  HW  EP  OW  
HW  HW  EP  OW  HW  HW  EP  OW  HW  HW  EP  OW  HW  HW  EP  OW  HW  HW  EP  OW  
HW  HW  EP  OW  HW  HW  EP  OW  HW  HW  EP  OW  HW  HW  EP  OW  HW  HW  EP  OW  
HW  HW  EP  OW  HW  HW  EP  OW  HW  HW  EP  OW  HW  HW  EP  OW  HW  HW  EP  OW  
HW  HW  EP  OW  HW  HW  EP  OW  HW  HW  EP  OW  HW  HW  EP  OW  HW  HW  EP  OW  
HW  HW  EP  OW  HW  HW  EP  OW  HW  HW  EP  OW  HW  HW  EP  OW  HW  HW  EP  OW  
HW  HW  EP  OW  HW  HW  EP  OW  HW  HW  EP  OW  HW  HW  EP  OW  HW  HW  EP  OW  
HW  HW  EP  OW  HW  HW  EP  OW  HW  HW  EP  OW  HW  HW  EP  OW  HW  HW  EP  OW  
HW  HW  EP  OW  HW  HW  EP  OW  HW  HW  EP  OW  HW  HW  EP  OW  HW  HW  EP  OW  
HW  HW  EP  OW  HW  HW  EP  OW  HW  HW  EP  OW  HW  HW  EP  OW  HW  HW  EP  OW  
HW  HW  EP  OW  HW  HW  EP  OW  HW  HW  EP  OW  HW  HW  EP  OW  HW  HW  EP  OW  
HW  HW  EP  OW  HW  HW  EP  OW  HW  HW  EP  OW  HW  HW  EP  OW  HW  HW  EP  OW  
HW  HW  EP  OW  HW  HW  EP  OW  HW  HW  EP  OW  HW  HW  EP  OW  HW  HW  EP  OW  
HW  HW  EP  OW  HW  HW  EP  OW  HW  HW  EP  OW  HW  HW  EP  OW  HW  HW  EP  OW  
HW  HW  EP  OW  HW  HW  EP  OW  HW  HW  EP  OW  HW  HW  EP  OW  HW  HW  EP  OW  
HW  HW  EP  OW  HW  HW  EP  OW  HW  HW  EP  OW  HW  HW  EP  OW  HW  HW  EP  OW  
HW  HW  EP  OW  HW  HW  EP  OW  HW  HW  EP  OW  HW  HW  EP  OW  HW  HW  EP  OW  
HW  HW  EP  OW  HW  HW  EP  OW  HW  HW  EP  OW  HW  HW  EP  OW  HW  HW  EP  OW  
HW  HW  EP  OW  HW  HW  EP  OW  HW  HW  EP  OW  HW  HW  EP  OW  HW  HW  EP  OW  
HW  HW  EP  OW  HW  HW  EP  OW  HW  HW  EP  OW  HW  HW  EP  OW  HW  HW  EP  OW  
HW  HW  EP  OW  HW  HW  EP  OW  HW  HW  EP  OW  HW  HW  EP  OW  HW  HW  EP  OW  
HW  HW  EP  OW  HW  HW  EP  OW  HW  HW  EP  OW  HW  HW  EP  OW  HW  HW  EP  OW  
HW  HW  EP  OW  HW  HW  EP  OW  HW  HW  EP  OW  HW  HW  EP  OW  HW  HW  EP  OW  
HW  HW  EP  OW  HW  HW  EP  OW  HW  HW  EP  OW  HW  HW  EP  OW  HW  HW  EP  OW  
HW  HW  EP  OW  HW  HW  EP  OW  HW  HW  EP  OW  HW  HW  EP  OW  HW  HW  EP  OW  
HW  HW  EP  OW  HW  HW  EP  OW  HW  HW  EP  OW  HW  HW  EP  OW  HW  HW  EP  OW  
HW  HW  EP  OW  HW  HW  EP  OW  HW  HW  EP  OW  HW  HW  EP  OW  HW  HW  EP  OW  
HW  HW  EP  OW  HW  HW  EP  OW  HW  HW  EP  OW  HW  HW  EP  OW  HW  HW  EP  OW  
HW  HW  EP  OW  HW  HW  EP  OW  HW  HW  EP  OW  HW  HW  EP  OW  HW  HW  EP  OW  
HW  HW  EP  OW  HW  HW  EP  OW  HW  HW  EP  OW  HW  HW  EP  OW  HW  HW  EP  OW  
HW  HW  EP  OW  HW  HW  EP  OW  HW  HW  EP  OW  HW  HW  EP  OW  HW  HW  EP  OW  
HW  HW  EP  OW  HW  HW  EP  OW  HW  HW  EP  OW  HW  HW  EP  OW  HW  HW  EP  OW  
HW  HW  EP  OW  HW  HW  EP  OW  HW  HW  EP  OW  HW  HW  EP  OW  HW  HW  EP  OW  
HW  HW  EP  OW  HW  HW  EP  OW  HW  HW  EP  OW  HW  HW  EP  OW  HW  HW  EP  OW  
HW  HW  EP  OW  HW  HW  EP  OW  HW  HW  EP  OW  HW  HW  EP  OW  HW  HW  EP  OW  
HW  HW  EP  OW  HW  HW  EP  OW  HW  HW  EP  OW  HW  HW  EP  OW  HW  HW  EP  OW  
HW  HW  EP  OW  HW  HW  EP  OW  HW  HW  EP  OW  HW  HW  EP  OW  HW  HW  EP  OW  
HW  HW  EP  OW  HW  HW  EP  OW  HW  HW  EP  OW  HW  HW  EP  OW  HW  HW  EP  OW  
HW  HW  EP  OW  HW  HW  EP  OW  HW  HW  EP  OW  HW  HW  EP  OW  HW  HW  EP  OW  
HW  HW  EP  OW  HW  HW  EP  OW  HW  HW  EP  OW  HW  HW  EP  OW  HW  HW  EP  OW  
HW  HW  EP  OW  HW  HW  EP  OW  HW  HW  EP  OW  HW  HW  EP  OW  HW  HW  EP  OW  
HW  HW  EP  OW  HW  HW  EP  OW  HW  HW  EP  OW  HW  HW  EP  OW  HW  HW  EP  OW  
HW  HW  EP  OW  HW  HW  EP  OW  HW  HW  EP  OW  HW  HW  EP  OW  HW  HW  EP  OW  
HW  HW  EP  OW  HW  HW  EP  OW  HW  HW  EP  OW  HW  HW  EP  OW  HW  HW  EP  OW  
HW  HW  EP  OW  HW  HW  EP  OW  HW  HW  EP  OW  HW  HW  EP  OW  HW  HW  EP  OW  
HW  HW  EP  OW  HW  HW  EP  OW  HW  HW  EP  OW  HW  HW  EP  OW  HW  HW  EP  OW  
HW  HW  EP  OW  HW  HW  EP  OW  HW  HW  EP  OW  HW  HW  EP  OW  HW  HW  EP  OW  
HW  HW  EP  OW  HW  HW  EP  OW  HW  HW  EP  OW  HW  HW  EP  OW  HW  HW  EP  OW  
HW  HW  EP  OW  HW  HW  EP  OW  HW  HW  EP  OW  HW  HW  EP  OW  HW  HW  EP  OW  
HW  HW  EP  OW  HW  HW  EP  OW  HW  HW  EP  OW  HW  HW  EP  OW  HW  HW  EP  OW  
HW  HW  EP  OW  HW  HW  EP  OW  HW  HW  EP  OW  HW  HW  EP  OW  HW  HW  EP  OW  
HW  HW  EP  OW  HW  HW  EP  OW  HW  HW  EP  OW  HW  HW  EP  OW  HW  HW  EP  OW  
HW  HW  EP  OW  HW  HW  EP  OW  HW  HW  EP  OW  HW  HW  EP  OW  HW  HW  EP  OW  
HW  HW  EP  OW  HW  HW  EP  OW  HW  HW  EP  OW  HW  HW  EP  OW  HW  HW  EP  OW  
HW  HW  EP  OW  HW  HW  EP  OW  HW  HW  EP  OW  HW  HW  EP  OW  HW  HW  EP  OW  
HW  HW  EP  OW  HW  HW  EP  OW  HW  HW  EP  OW  HW  HW  EP  OW  HW  HW  EP  OW  
HW  HW  EP  OW  HW  HW  EP  OW  HW  HW  EP  OW  HW  HW  EP  OW  HW  HW  EP  OW  
HW  HW  EP  OW  HW  HW  EP  OW  HW  HW  EP  OW  HW  HW  EP  OW  HW  HW  EP  OW  
HW  HW  EP  OW  HW  HW  EP  OW  HW  HW  EP  OW  HW  HW  EP  OW  HW  HW  EP  OW  
HW  HW  EP  OW  HW  HW  EP  OW  HW  HW  EP  OW  HW  HW  EP  OW  HW  HW  EP  OW  
HW  HW  EP  OW  HW  HW  EP  OW  HW  HW  EP  OW  HW  HW  EP  OW  HW  HW  EP  OW  
HW  HW  EP  OW  HW  HW  EP  OW  HW  HW  EP  OW  HW  HW  EP  OW  HW  HW  EP  OW  
HW  HW  EP  OW  HW  HW  EP  OW  HW  HW  EP  OW  HW  HW  EP  OW  HW  HW  EP  OW  
HW  HW  EP  OW  HW  HW  EP  OW  HW  HW  EP  OW  HW  HW  EP  OW  HW  HW  EP  OW  
HW  HW  EP  OW  HW  HW  EP  OW  HW  HW  EP  OW  HW  HW  EP  OW  HW  HW  EP  OW  
HW  HW  EP  OW  HW  HW  EP  OW  HW  HW  EP  OW  HW  HW  EP  OW  HW  HW  EP  OW  
HW  HW  EP  OW  HW  HW  EP  OW  HW  HW  EP  OW  HW  HW  EP  OW  HW  HW  EP  OW  
HW  HW  EP  OW  HW  HW  EP  OW  HW  HW  EP  OW  HW  HW  EP  OW  HW  HW  EP  OW  
HW  HW  EP  OW  HW  HW  EP  OW  HW  HW  EP  OW  HW  HW  EP  OW  HW  HW  EP  OW  
HW  HW  EP  OW  HW  HW  EP  OW  HW  HW  EP  OW  HW  HW  EP  OW  HW  HW  EP  OW  
HW  HW  EP  OW  HW  HW  EP  OW  HW  HW  EP  OW  HW  HW  EP  OW  HW  HW  EP  OW  
HW  HW  EP  OW  HW  HW  EP  OW  HW  HW  EP  OW  HW  HW  EP  OW  HW  HW  EP  OW  
HW  HW  EP  OW  HW  HW  EP  OW  HW  HW  EP  OW  HW  HW  EP  OW  HW  HW  EP  OW  
HW  HW  EP  OW  HW  HW  EP  OW  HW  HW  EP  OW  HW  HW  EP  OW  HW  HW  EP  OW  
HW  HW  EP  OW  HW  HW  EP  OW  HW  HW  EP  OW  HW  HW  EP  OW  HW  HW  EP  OW  
HW  HW  EP  OW  HW  HW  EP  OW  HW  HW  EP  OW  HW  HW  EP  OW  HW  HW  EP  OW  
HW  HW  EP  OW  HW  HW  EP  OW  HW  HW  EP  OW  HW  HW  EP  OW  HW  HW  EP  OW  
HW  HW  EP  OW  HW  HW  EP  OW  HW  HW  EP  OW  HW  HW  EP  OW  HW  HW  EP  OW  
HW  HW  EP  OW  HW  HW  EP  OW  HW  HW  EP  OW  HW  HW  EP  OW  HW  HW  EP  OW  
HW  HW  EP  OW  HW  HW  EP  OW  HW  HW  EP  OW  HW  HW  EP  OW  HW  HW  EP  OW  
HW  HW  EP  OW  HW  HW  EP  OW  HW  HW  EP  OW  HW  HW  EP  OW  HW  HW  EP  OW  
HW  HW  EP  OW  HW  HW  EP  OW  HW  HW  EP  OW  HW  HW  EP  OW  HW  HW  EP  OW  
HW  HW  EP  OW  HW  HW  EP  OW  HW  HW  EP  OW  HW  HW  EP  OW  HW  HW  EP  OW  
HW  HW  EP  OW  HW  HW  EP  OW  HW  HW  EP  OW  HW  HW  EP  OW  HW  HW  EP  OW  
HW  HW  EP  OW  HW  HW  EP  OW  HW  HW  EP  OW  HW  HW  EP  OW  HW  HW  EP  OW  
HW  HW  EP  OW  HW  HW  EP  OW  HW  HW  EP  OW  HW  HW  EP  OW  HW  HW  EP  OW  
HW  HW  EP  OW  HW  HW  EP  OW  HW  HW  EP  OW  HW  HW  EP  OW  HW  HW  EP  OW  
HW  HW  EP  OW  HW  HW  EP  OW  HW  HW  EP  OW  HW  HW  EP  OW  HW  HW  EP  OW  
HW  HW  EP  OW  HW  HW  EP  OW  HW  HW  EP  OW  HW  HW  EP  OW  HW  HW  EP  OW  
HW  HW  EP  OW  HW  HW  EP  OW  HW  HW  EP  OW  HW  HW  EP  OW  HW  HW  EP  OW  
HW  HW  EP  OW  HW  HW  EP  OW  HW  HW  EP  OW  HW  HW  EP  OW  HW  HW  EP  OW  
HW  HW  EP  OW  HW  HW  EP  OW  HW  HW  EP  OW  HW  HW  EP  OW  HW  HW  EP  OW  
HW  HW  EP  OW  HW  HW  EP  OW  HW  HW  EP  OW  HW  HW  EP  OW  HW  HW  EP  OW  
HW  HW  EP  OW  HW  HW  EP  OW  HW  HW  EP  OW  HW  HW  EP  OW  HW  HW  EP  OW  
HW  HW  EP  OW  HW  HW  EP  OW  HW  HW  EP  OW  HW  HW  EP  OW  HW  HW  EP  OW  
HW  HW  EP  OW  HW  HW  EP  OW  HW  HW  EP  OW  HW  HW  EP  OW  HW  HW  EP  OW  
HW  HW  EP  OW  HW  HW  EP  OW  HW  HW  EP  OW  HW  HW  EP  OW  HW  HW  EP  OW  
HW  HW  EP  OW  HW  HW  EP  OW  HW  HW  EP  OW  HW  HW  EP  OW  HW  HW  EP  OW  
HW  HW  EP  OW  HW  HW  EP  OW  HW  HW  EP  OW  HW  HW  EP  OW  HW  HW  EP  OW  
HW  HW  EP  OW  HW  HW  EP  OW  HW  HW  EP  OW  HW  HW  EP  OW  HW  HW  EP  OW  
HW  HW  EP  OW  HW  HW  EP  OW  HW  HW  EP  OW  HW  HW  EP  OW  HW  HW  EP  OW  
HW  HW  EP  OW  HW  HW  EP  OW  HW  HW  EP  OW  HW  HW  EP  OW  HW  HW  EP  OW  
HW  HW  EP  OW  HW  HW  EP  OW  HW  HW  EP  OW  HW  HW  EP  OW  HW  HW  EP  OW  
HW  HW  EP  OW  HW  HW  EP  OW  HW  HW  EP  OW  HW  HW  EP  OW  HW  HW  EP  OW  
HW  HW  EP  OW  HW  HW  EP  OW  HW  HW  EP  OW  HW  HW  EP  OW  HW  HW  EP  OW  
HW  HW  EP  OW  HW  HW  EP  OW  HW  HW  EP  OW  HW  HW  EP  OW  HW  HW  EP  OW  
HW  HW  EP  OW  HW  HW  EP  OW  HW  HW  EP  OW  HW  HW  EP  OW  HW  HW  EP  OW  
HW  HW  EP  OW  HW  HW  EP  OW  HW  HW  EP  OW  HW  HW  EP  OW  HW  HW  EP  OW  
HW  HW  EP  OW  HW  HW  EP  OW  HW  HW  EP  OW  HW  HW  EP  OW  HW  HW  EP  OW  
HW  HW  EP  OW  HW  HW  EP  OW  HW  HW  EP  OW  HW  HW  EP  OW  HW  HW  EP  OW  
HW  HW  EP  OW  HW  HW  EP  OW  HW  HW  EP  OW  HW  HW  EP  OW  HW  HW  EP  OW  
HW  HW  EP  OW  HW  HW  EP  OW  HW  HW  EP  OW  HW  HW  EP  OW  HW  HW  EP  OW  
HW  HW  EP  OW  HW  HW  EP  OW  HW  HW  EP  OW  HW  HW  EP  OW  HW  HW  EP  OW  
HW  HW  EP  OW  HW  HW  EP  OW  HW  HW  EP  OW  HW  HW  EP  OW  HW  HW  EP  OW  
HW  HW  EP  OW  HW  HW  EP  OW  HW  HW  EP  OW  HW  HW  EP  OW  HW  HW  EP  OW  
HW  HW  EP  OW  HW  HW  EP  OW  HW  HW  EP  OW  HW  HW  EP  OW  HW  HW  EP  OW  
HW  HW  EP  OW  HW  HW  EP  OW  HW  HW  EP  OW  HW  HW  EP  OW  HW  HW  EP  OW  
HW  HW  EP  OW  HW  HW  EP  OW  HW  HW  EP  OW  HW  HW  EP  OW  HW  HW  EP  OW  
HW  HW  EP  OW  HW  HW  EP  OW  HW  HW  EP  OW  HW  HW  EP  OW  HW  HW  EP  OW  
HW  HW  EP  OW  HW  HW  EP  OW  HW  HW  EP  OW  HW  HW  EP  OW  HW  HW  EP  OW  
HW  HW  EP  OW  HW  HW  EP  OW  HW  HW  EP  OW  HW  HW  EP  OW  HW  HW  EP  OW  
HW  HW  EP  OW  HW  HW  EP  OW  HW  HW  EP  OW  HW  HW  EP  OW  HW  HW  EP  OW  
HW  HW  EP  OW  HW  HW  EP  OW  HW  HW  EP  OW  HW  HW  EP  OW  HW  HW  EP  OW  
HW  HW  EP  OW  HW  HW  EP  OW  HW  HW  EP  OW  HW  HW  EP  OW  HW  HW  EP  OW  
HW  HW  EP  OW  HW  HW  EP  OW  HW  HW  EP  OW  HW  HW  EP  OW  HW  HW  EP  OW  
HW  HW  EP  OW  HW  HW  EP  OW  HW  HW  EP  OW  HW  HW  EP  OW  HW  HW  EP  OW  
HW  HW  EP  OW  HW  HW  EP  OW  HW  HW  EP  OW  HW  HW  EP  OW  HW  HW  EP  OW  
HW  HW  EP  OW  HW  HW  EP  OW  HW  HW  EP  OW  HW  HW  EP  OW  HW  HW  EP  OW  
HW  HW  EP  OW  HW  HW  EP  OW  HW  HW  EP  OW  HW  HW  EP  OW  HW  HW  EP  OW  
HW  HW  EP  OW  HW  HW  EP  OW  HW  HW  EP  OW  HW  HW  EP  OW  HW  HW  EP  OW  
HW  HW  EP  OW  HW  HW  EP  OW  HW  HW  EP  OW  HW  HW  EP  OW  HW  HW  EP  OW  
HW  HW  EP  OW  HW  HW  EP  OW  HW  HW  EP  OW  HW  HW  EP  OW  HW  HW  EP  OW  
HW  HW  EP  OW  HW  HW  EP  OW  HW  HW  EP  OW  HW  HW  EP  OW  HW  HW  EP  OW  
HW  HW  EP  OW  HW  HW  EP  OW  HW  HW  EP  OW  HW  HW  EP  OW  HW  HW  EP  OW  
HW  HW  EP  OW  HW  HW  EP  OW  HW  HW  EP  OW  HW  HW  EP  OW  HW  HW  EP  OW  
HW  HW  EP  OW  HW  HW  EP  OW  HW  HW  EP  OW  HW  HW  EP  OW  HW  HW  EP  OW  
HW  HW  EP  OW  HW  HW  EP  OW  HW  HW  EP  OW  HW  HW  EP  OW  HW  HW  EP  OW  
HW  HW  EP  OW  HW  HW  EP  OW  HW  HW  EP  OW  HW  HW  EP  OW  HW  HW  EP  OW  
HW  HW  EP  OW  HW  HW  EP  OW  HW  HW  EP  OW  HW  HW  EP  OW  HW  HW  EP  OW  
HW  HW  EP  OW  HW  HW  EP  OW  HW  HW  EP  OW  HW  HW  EP  OW  HW  HW  EP  OW  
HW  HW  EP  OW  HW  HW  EP  OW  HW  HW  EP  OW  HW  HW  EP  OW  HW  HW  EP  OW  
HW  HW  EP  OW  HW  HW  EP  OW  HW  HW  EP  OW  HW  HW  EP  OW  HW  HW  EP  OW  
HW  HW  EP  OW  HW  HW  EP  OW  HW  HW  EP  OW  HW  HW  EP  OW  HW  HW  EP  OW  
HW  HW  EP  OW  HW  HW  EP  OW  HW  HW  EP  OW  HW  HW  EP  OW  HW  HW  EP  OW  
HW  HW  EP  OW  HW  HW  EP  OW  HW  HW  EP  OW  HW  HW  EP  OW  HW  HW  EP  OW  
HW  HW  EP  OW  HW  HW  EP  OW  HW  HW  EP  OW  HW  HW  EP  OW  HW  HW  EP  OW  
HW  HW  EP  OW  HW  HW  EP  OW  HW  HW  EP  OW  HW  HW  EP  OW  HW  HW  EP  OW  
HW  HW  EP  OW  HW  HW  EP  OW  HW  HW  EP  OW  HW  HW  EP  OW  HW  HW  EP  OW  
HW  HW  EP  OW  HW  HW  EP  OW  HW  HW  EP  OW  HW  HW  EP  OW  HW  HW  EP  OW  
HW  HW  EP  OW  HW  HW  EP  OW  HW  HW  EP  OW  HW  HW  EP  OW  HW  HW  EP  OW  
HW  HW  EP  OW  HW  HW  EP  OW  HW  HW  EP  OW  HW  HW  EP  OW  HW  HW  EP  OW  
HW  HW  EP  OW  HW  HW  EP  OW  HW  HW  EP  OW  HW  HW  EP  OW  HW  HW  EP  OW  
HW  HW  EP  OW  HW  HW  EP  OW  HW  HW  EP  OW  HW  HW  EP  OW  HW  HW  EP  OW  
HW  HW  EP  OW  HW  HW  EP  OW  HW  HW  EP  OW  HW  HW  EP  OW  HW  HW  EP  OW  
HW  HW  EP  OW  HW  HW  EP  OW  HW  HW  EP  OW  HW  HW  EP  OW  HW  HW  EP  OW  
HW  HW  EP  OW  HW  HW  EP  OW  HW  HW  EP  OW  HW  HW  EP  OW  HW  HW  EP  OW  
HW  HW  EP  OW  HW  HW  EP  OW  HW  HW  EP  OW  HW  HW  EP  OW  HW  HW  EP  OW  
HW  HW  EP  OW  HW  HW  EP  OW  HW  HW  EP  OW  HW  HW  EP  OW  HW  HW  EP  OW  
HW  HW  EP  OW  HW  HW  EP  OW  HW  HW  EP  OW  HW  HW  EP  OW  HW  HW  EP  OW  
HW  HW  EP  OW  HW  HW  EP  OW  HW  HW  EP  OW  HW  HW  EP  OW  HW  HW  EP  OW  
HW  HW  EP  OW  HW  HW  EP  OW  HW  HW  EP  OW  HW  HW  EP  OW  HW  HW  EP  OW  
HW  HW  EP  OW  HW  HW  EP  OW  HW  HW  EP  OW  HW  HW  EP  OW  HW  HW  EP  OW  
HW  HW  EP  OW  HW  HW  EP  OW  HW  HW  EP  OW  HW  HW  EP  OW  HW  HW  EP  OW  
HW  HW  EP  OW  HW  HW  EP  OW  HW  HW  EP  OW  HW  HW  EP  OW  HW  HW  EP  OW  
HW  HW  EP  OW  HW  HW  EP  OW  HW  HW  EP  OW  HW  HW  EP  OW  HW  HW  EP  OW  
HW  HW  EP  OW  HW  HW  EP  OW  HW  HW  EP  OW  HW  HW  EP  OW  HW  HW  EP  OW  
HW  HW  EP  OW  HW  HW  EP  OW  HW  HW  EP  OW  HW  HW  EP  OW  HW  HW  EP  OW  
HW  HW  EP  OW  HW  HW  EP  OW  HW  HW  EP  OW  HW  HW  EP  OW  HW  HW  EP  OW  
HW  HW  EP  OW  HW  HW  EP  OW  HW  HW  EP  OW  HW  HW  EP  OW  HW  HW  EP  OW  
HW  HW  EP  OW  HW  HW  EP  OW  HW  HW  EP  OW  HW  HW  EP  OW  HW  HW  EP  OW  
HW  HW  EP  OW  HW  HW  EP  OW  HW  HW  EP  OW  HW  HW  EP  OW  HW  HW  EP  OW  
HW  HW  EP  OW  HW  HW  EP  OW  HW  HW  EP  OW  HW  HW  EP  OW  HW  HW  EP  OW  
HW  HW  EP  OW  HW  HW  EP  OW  HW  HW  EP  OW  HW  HW  EP  OW  HW  HW  EP  OW  
HW  HW  EP  OW  HW  HW  EP  OW  HW  HW  EP  OW  HW  HW  EP  OW  HW  HW  EP  OW  
HW  HW  EP  OW  HW  HW  EP  OW  HW  HW  EP  OW  HW  HW  EP  OW  HW  HW  EP  OW  
HW  HW  EP  OW  HW  HW  EP  OW  HW  HW  EP  OW  HW  HW  EP  OW  HW  HW  EP  OW  
HW  HW  EP  OW  HW  HW  EP  OW  HW  HW  EP  OW  HW  HW  EP  OW  HW  HW  EP  OW  
HW  HW  EP  OW  HW  HW  EP  OW  HW  HW  EP  OW  HW  HW  EP  OW  HW  HW  EP  OW  
HW  HW  EP  OW  HW  HW  EP  OW  HW  HW  EP  OW  HW  HW  EP  OW  HW  HW  EP  OW  
HW  HW  EP  OW  HW  HW  EP  OW  HW  HW  EP  OW  HW  HW  EP  OW  HW  HW  EP  OW  
HW  HW  EP  OW  HW  HW  EP  OW  HW  HW  EP  OW  HW  HW  EP  OW  HW  HW  EP  OW  
HW  HW  EP  OW  HW  HW  EP  OW  HW  HW  EP  OW  HW  HW  EP  OW  HW  HW  EP  OW  
HW  HW  EP  OW  HW  HW  EP  OW  HW  HW  EP  OW  HW  HW  EP  OW  HW  HW  EP  OW  
HW  HW  EP  OW  HW  HW  EP  OW  HW  HW  EP  OW  HW  HW  EP  OW  HW  HW  EP  OW  
HW  HW  EP  OW  HW  HW  EP  OW  HW  HW  EP  OW  HW  HW  EP  OW  HW  HW  EP  OW  
HW  HW  EP  OW  HW  HW  EP  OW  HW  HW  EP  OW  HW  HW  EP  OW  HW  HW  EP  OW  
HW  HW  EP  OW  HW  HW  EP  OW  HW  HW  EP  OW  HW  HW  EP  OW  HW  HW  EP  OW  
HW  HW  EP  OW  HW  HW  EP  OW  HW  HW  EP  OW  HW  HW  EP  OW  HW  HW  EP  OW  
HW  HW  EP  OW  HW  HW  EP  OW  HW  HW  EP  OW  HW  HW  EP  OW  HW  HW  EP  OW  
HW  HW  EP  OW  HW  HW  EP  OW  HW  HW  EP  OW  HW  HW  EP  OW  HW  HW  EP  OW  
HW  HW  EP  OW  HW  HW  EP  OW  HW  HW  EP  OW  HW  HW  EP  OW  HW  HW  EP  OW  
HW  HW  EP  OW  HW  HW  EP  OW  HW  HW  EP  OW  HW  HW  EP  OW  HW  HW  EP  OW  
HW  HW  EP  OW  HW  HW  EP  OW  HW  HW  EP  OW  HW  HW  EP  OW  HW  HW  EP  OW  
HW  HW  EP  OW  HW  HW  EP  OW  HW  HW  EP  OW  HW  HW  EP  OW  HW  HW  EP  OW  
HW  HW  EP  OW  HW  HW  EP  OW  HW  HW  EP  OW  HW  HW  EP  OW  HW  HW  EP  OW  
HW  HW  EP  OW  HW  HW  EP  OW  HW  HW  EP  OW  HW  HW  EP  OW  HW  HW  EP  OW  
HW  HW  EP  OW  HW  HW  EP  OW  HW  HW  EP  OW  HW  HW  EP  OW  HW  HW  EP  OW  
HW  HW  EP  OW  HW  HW  EP  OW  HW  HW  EP  OW  HW  HW  EP  OW  HW  HW  EP  OW  
HW  HW  EP  OW  HW  HW  EP  OW  HW  HW  EP  OW  HW  HW  EP  OW  HW  HW  EP  OW  
HW  HW  EP  OW  HW  HW  EP  OW  HW  HW  EP  OW  HW  HW  EP  OW  HW  HW  EP  OW  
HW  HW  EP  OW  HW  HW  EP  OW  HW  HW  EP  OW  HW  HW  EP  OW  HW  HW  EP  OW  
HW  HW  EP  OW  HW  HW  EP  OW  HW  HW  EP  OW  HW  HW  EP  OW  HW  HW  EP  OW  
HW  HW  EP  OW  HW  HW  EP  OW  HW  HW  EP  OW  HW  HW  EP  OW  HW  HW  EP  OW  
HW  HW  EP  OW  HW  HW  EP  OW  HW  HW  EP  OW  HW  HW  EP  OW  HW  HW  EP  OW  
HW  HW  EP  OW  HW  HW  EP  OW  HW  HW  EP  OW  HW  HW  EP  OW  HW  HW  EP  OW  
HW  HW  EP  OW  HW  HW  EP  OW  HW  HW  EP  OW  HW  HW  EP  OW  HW  HW  EP  OW  
HW  HW  EP  OW  HW  HW  EP  OW  HW  HW  EP  OW  HW  HW  EP  OW  HW  HW  EP  OW  
HW  HW  EP  OW  HW  HW  EP  OW  HW  HW  EP  OW  HW  HW  EP  OW  HW  HW  EP  OW  
HW  HW  EP  OW  HW  HW  EP  OW  HW  HW  EP  OW  HW  HW  EP  OW  HW  HW  EP  OW  
HW  HW  EP  OW  HW  HW  EP  OW  HW  HW  EP  OW  HW  HW  EP  OW  HW  HW  EP  OW  
HW  HW  EP  OW  HW  HW  EP  OW  HW  HW  EP  OW  HW  HW  EP  OW  HW  HW  EP  OW  
HW  HW  EP  OW  HW  HW  EP  OW  HW  HW  EP  OW  HW  HW  EP  OW  HW  HW  EP  OW  
HW  HW  EP  OW  HW  HW  EP  OW  HW  HW  EP  OW  HW  HW  EP  OW  HW  HW  EP  OW  
HW  HW  EP  OW  HW  HW  EP  OW  HW  HW  EP  OW  HW  HW  EP  OW  HW  HW  EP  OW  
HW  HW  EP  OW  HW  HW  EP  OW  HW  HW  EP  OW  HW  HW  EP  OW  HW  HW  EP  OW  
HW  HW  EP  OW  HW  HW  EP  OW  HW  HW  EP  OW  HW  HW  EP  OW  HW  HW  EP  OW  
HW  HW  EP  OW  HW  HW  EP  OW  HW  HW  EP  OW  HW  HW  EP  OW  HW  HW  EP  OW  
HW  HW  EP  OW  HW  HW  EP  OW  HW  HW  EP  OW  HW  HW  EP  OW  HW  HW  EP  OW  
HW  HW  EP  OW  HW  HW  EP  OW  HW  HW  EP  OW  HW  HW  EP  OW  HW  HW  EP  OW  
HW  HW  EP  OW  HW  HW  EP  OW  HW  HW  EP  OW  HW  HW  EP  OW  HW  HW  EP  OW  
HW  HW  EP  OW  HW  HW  EP  OW  HW  HW  EP  OW  HW  HW  EP  OW  HW  HW  EP  OW  
HW  HW  EP  OW  HW  HW  EP  OW  HW  HW  EP  OW  HW  HW  EP  OW  HW  HW  EP  OW  
HW  HW  EP  OW  HW  HW  EP  OW  HW  HW  EP  OW  HW  HW  EP  OW  HW  HW  EP  OW  
HW  HW  EP  OW  HW  HW  EP  OW  HW  HW  EP  OW  HW  HW  EP  OW  HW  HW  EP  OW  
HW  HW  EP  OW  HW  HW  EP  OW  HW  HW  EP  OW  HW  HW  EP  OW  HW  HW  EP  OW  
HW  HW  EP  OW  HW  HW  EP  OW  HW  HW  EP  OW  HW  HW  EP  OW  HW  HW  EP  OW  
HW  HW  EP  OW  HW  HW  EP  OW  HW  HW  EP  OW  HW  HW  EP  OW  HW  HW  EP  OW  
HW  HW  EP  OW  HW  HW  EP  OW  HW  HW  EP  OW  HW  HW  EP  OW  HW  HW  EP  OW  
HW  HW  EP  OW  HW  HW  EP  OW  HW  HW  EP  OW  HW  HW  EP  OW  HW  HW  EP  OW  
HW  HW  EP  OW  HW  HW  EP  OW  HW  HW  EP  OW  HW  HW  EP  OW  HW  HW  EP  OW  
HW  HW  EP  OW  HW  HW  EP  OW  HW  HW  EP  OW  HW  HW  EP  OW  HW  HW  EP  OW  
HW  HW  EP  OW  HW  HW  EP  OW  HW  HW  EP  OW  HW  HW  EP  OW  HW  HW  EP  OW  
HW  HW  EP  OW  HW  HW  EP  OW  HW  HW  EP  OW  HW  HW  EP  OW  HW  HW  EP  OW  
HW  HW  EP  OW  HW  HW  EP  OW  HW  HW  EP  OW  HW  HW  EP  OW  HW  HW  EP  OW  
HW  HW  EP  OW  HW  HW  EP  OW  HW  HW  EP  OW  HW  HW  EP  OW  HW  HW  EP  OW  
HW  HW  EP  OW  HW  HW  EP  OW  HW  HW  EP  OW  HW  HW  EP  OW  HW  HW  EP  OW  
HW  HW  EP  OW  HW  HW  EP  OW  HW  HW  EP  OW  HW  HW  EP  OW  HW  HW  EP  OW  
HW  HW  EP  OW  HW  HW  EP  OW  HW  HW  EP  OW  HW  HW  EP  OW  HW  HW  EP  OW  
HW  HW  EP  OW  HW  HW  EP  OW  HW  HW  EP  OW  HW  HW  EP  OW  HW  HW  EP  OW  
HW  HW  EP  OW  HW  HW  EP  OW  HW  HW  EP  OW  HW  HW  EP  OW  HW  HW  EP  OW  
HW  HW  EP  OW  HW  HW  EP  OW  HW  HW  EP  OW  HW  HW  EP  OW  HW  HW  EP  OW  
HW  HW  EP  OW  HW  HW  EP  OW  HW  HW  EP  OW  HW  HW  EP  OW  HW  HW  EP  OW  
HW  HW  EP  OW  HW  HW  EP  OW  HW  HW  EP  OW  HW  HW  EP  OW  HW  HW  EP  OW  
HW  HW  EP  OW  HW  HW  EP  OW  HW  HW  EP  OW  HW  HW  EP  OW  HW  HW  EP  OW  
HW  HW  EP  OW  HW  HW  EP  OW  HW  HW  EP  OW  HW  HW  EP  OW  HW  HW  EP  OW  
HW  HW  EP  OW  HW  HW  EP  OW  HW  HW  EP  OW  HW  HW  EP  OW  HW  HW  EP  OW  
HW  HW  EP  OW  HW  HW  EP  OW  HW  HW  EP  OW  HW  HW  EP  OW  HW  HW  EP  OW  
HW  HW  EP  OW  HW  HW  EP  OW  HW  HW  EP  OW  HW  HW  EP  OW  HW  HW  EP  OW  
HW  HW  EP  OW  HW  HW  EP  OW  HW  HW  EP  OW  HW  HW  EP  OW  HW  HW  EP  OW  
HW  HW  EP  OW  HW  HW  EP  OW  HW  HW  EP  OW  HW  HW  EP  OW  HW  HW  EP  OW  
HW  HW  EP  OW  HW  HW  EP  OW  HW  HW  EP  OW  HW  HW  EP  OW  HW  HW  EP  OW  
HW  HW  EP  OW  HW  HW  EP  OW  HW  HW  EP  OW  HW  HW  EP  OW  HW  HW  EP  OW  
HW  HW  EP  OW  HW  HW  EP  OW  HW  HW  EP  OW  HW  HW  EP  OW  HW  HW  EP  OW  
HW  HW  EP  OW  HW  HW  EP  OW  HW  HW  EP  OW  HW  HW  EP  OW  HW  HW  EP  OW  
HW  HW  EP  OW  HW  HW  EP  OW  HW  HW  EP  OW  HW  HW  EP  OW  HW  HW  EP  OW  
HW  HW  EP  OW  HW  HW  EP  OW  HW  HW  EP  OW  HW  HW  EP  OW  HW  HW  EP  OW  
HW  HW  EP  OW  HW  HW  EP  OW  HW  HW  EP  OW  HW  HW  EP  OW  HW  HW  EP  OW  
HW  HW  EP  OW  HW  HW  EP  OW  HW  HW  EP  OW  HW  HW  EP  OW  HW  HW  EP  OW  
HW  HW  EP  OW  HW  HW  EP  OW  HW  HW  EP  OW  HW  HW  EP  OW  HW  HW  EP  OW  
HW  HW  EP  OW  HW  HW  EP  OW  HW  HW  EP  OW  HW  HW  EP  OW  HW  HW  EP  OW  
HW  HW  EP  OW  HW  HW  EP  OW  HW  HW  EP  OW  HW  HW  EP  OW  HW  HW  EP  OW  
HW  HW  EP  OW  HW  HW  EP  OW  HW  HW  EP  OW  HW  HW  EP  OW  HW  HW  EP  OW  
HW  HW  EP  OW  HW  HW  EP  OW  HW  HW  EP  OW  HW  HW  EP  OW  HW  HW  EP  OW  
HW  HW  EP  OW  HW  HW  EP  OW  HW  HW  EP  OW  HW  HW  EP  OW  HW  HW  EP  OW  
HW  HW  EP  OW  HW  HW  EP  OW  HW  HW  EP  OW  HW  HW  EP  OW  HW  HW  EP  OW  
HW  HW  EP  OW  HW  HW  EP  OW  HW  HW  EP  OW  HW  HW  EP  OW  HW  HW  EP  OW  
HW  HW  EP  OW  HW  HW  EP  OW  HW  HW  EP  OW  HW  HW  EP  OW  HW  HW  EP  OW  
HW  HW  EP  OW  HW  HW  EP  OW  HW  HW  EP  OW  HW  HW  EP  OW  HW  HW  EP  OW  
HW  HW  EP  OW  HW  HW  EP  OW  HW  HW  EP  OW  HW  HW  EP  OW  HW  HW  EP  OW  
HW  HW  EP  OW  HW  HW  EP  OW  HW  HW  EP  OW  HW  HW  EP  OW  HW  HW  EP  OW  
HW  HW  EP  OW  HW  HW  EP  OW  HW  HW  EP  OW  HW  HW  EP  OW  HW  HW  EP  OW  
HW  HW  EP  OW  HW  HW  EP  OW  HW  HW  EP  OW  HW  HW  EP  OW  HW  HW  EP  OW  
HW  HW  EP  OW  HW  HW  EP  OW  HW  HW  EP  OW  HW  HW  EP  OW  HW  HW  EP  OW  
HW  HW  EP  OW  HW  HW  EP  OW  HW  HW  EP  OW  HW  HW  EP  OW  HW  HW  EP  OW  
HW  HW  EP  OW  HW  HW  EP  OW  HW  HW  EP  OW  HW  HW  EP  OW  HW  HW  EP  OW  
HW  HW  EP  OW  HW  HW  EP  OW  HW  HW  EP  OW  HW  HW  EP  OW  HW  HW  EP  OW  
HW  HW  EP  OW  HW  HW  EP  OW  HW  HW  EP  OW  HW  HW  EP  OW  HW  HW  EP  OW  
HW  HW  EP  OW  HW  HW  EP  OW  HW  HW  EP  OW  HW  HW  EP  OW  HW  HW  EP  OW  
HW  HW  EP  OW  HW  HW  EP  OW  HW  HW  EP  OW  HW  HW  EP  OW  HW  HW  EP  OW  
HW  HW  EP  OW  HW  HW  EP  OW  HW  HW  EP  OW  HW  HW  EP  OW  HW  HW  EP  OW  
HW  HW  EP  OW  HW  HW  EP  OW  HW  HW  EP  OW  HW  HW  EP  OW  HW  HW  EP  OW  
HW  HW  EP  OW  HW  HW  EP  OW  HW  HW  EP  OW  HW  HW  EP  OW  HW  HW  EP  OW  
HW  HW  EP  OW  HW  HW  EP  OW  HW  HW  EP  OW  HW  HW  EP  OW  HW  HW  EP  OW  
HW  HW  EP  OW  HW  HW  EP  OW  HW  HW  EP  OW  HW  HW  EP  OW  HW  HW  EP  OW  
HW  HW  EP  OW  HW  HW  EP  OW  HW  HW  EP  OW  HW  HW  EP  OW  HW  HW  EP  OW  
HW  HW  EP  OW  HW  HW  EP  OW  HW  HW  EP  OW  HW  HW  EP  OW  HW  HW  EP  OW  
HW  HW  EP  OW  HW  HW  EP  OW  HW  HW  EP  OW  HW  HW  EP  OW  HW  HW  EP  OW  
HW  HW  EP  OW  HW  HW  EP  OW  HW  HW  EP  OW  HW  HW  EP  OW  HW  HW  EP  OW  
HW  HW  EP  OW  HW  HW  EP  OW  HW  HW  EP  OW  HW  HW  EP  OW  HW  HW  EP  OW  
HW  HW  EP  OW  HW  HW  EP  OW  HW  HW  EP  OW  HW  HW  EP  OW  HW  HW  EP  OW  
HW  HW  EP  OW  HW  HW  EP  OW  HW  HW  EP  OW  HW  HW  EP  OW  HW  HW  EP  OW  
HW  HW  EP  OW  HW  HW  EP  OW  HW  HW  EP  OW  HW  HW  EP  OW  HW  HW  EP  OW  
HW  HW  EP  OW  HW  HW  EP  OW  HW  HW  EP  OW  HW  HW  EP  OW  HW  HW  EP  OW  
HW  HW  EP  OW  HW  HW  EP  OW  HW  HW  EP  OW  HW  HW  EP  OW  HW  HW  EP  OW  
HW  HW  EP  OW  HW  HW  EP  OW  HW  HW  EP  OW  HW  HW  EP  OW  HW  HW  EP  OW  
HW  HW  EP  OW  HW  HW  EP  OW  HW  HW  EP  OW  HW  HW  EP  OW  HW  HW  EP  OW  
HW  HW  EP  OW  HW  HW  EP  OW  HW  HW  EP  OW  HW  HW  EP  OW  HW  HW  EP  OW  
HW  HW  EP  OW  HW  HW  EP  OW  HW  HW  EP  OW  HW  HW  EP  OW  HW  HW  EP  OW  
HW  HW  EP  OW  HW  HW  EP  OW  HW  HW  EP  OW  HW  HW  EP  OW  HW  HW  EP  OW  
HW  HW  EP  OW  HW  HW  EP  OW  HW  HW  EP  OW  HW  HW  EP  OW  HW  HW  EP  OW  
HW  HW  EP  OW  HW  HW  EP  OW  HW  HW  EP  OW  HW  HW  EP  OW  HW  HW  EP  OW  
HW  HW  EP  OW  HW  HW  EP  OW  HW  HW  EP  OW  HW  HW  EP  OW  HW  HW  EP  OW  
HW  HW  EP  OW  HW  HW  EP  OW  HW  HW  EP  OW  HW  HW  EP  OW  HW  HW  EP  OW  
HW  HW  EP  OW  HW  HW  EP  OW  HW  HW  EP  OW  HW  HW  EP  OW  HW  HW  EP  OW  
HW  HW  EP  OW  HW  HW  EP  OW  HW  HW  EP  OW  HW  HW  EP  OW  HW  HW  EP  OW  
HW  HW  EP  OW  HW  HW  EP  OW  HW  HW  EP  OW  HW  HW  EP  OW  HW  HW  EP  OW  
HW  HW  EP  OW  HW  HW  EP  OW  HW  HW  EP  OW  HW  HW  EP  OW  HW  HW  EP  OW  
HW  HW  EP  OW  HW  HW  EP  OW  HW  HW  EP  OW  HW  HW  EP  OW  HW  HW  EP  OW  
HW  HW  EP  OW  HW  HW  EP  OW  HW  HW  EP  OW  HW  HW  EP  OW  HW  HW  EP  OW  
HW  HW  EP  OW  HW  HW  EP  OW  HW  HW  EP  OW  HW  HW  EP  OW  HW  HW  EP  OW  
HW  HW  EP  OW  HW  HW  EP  OW  HW  HW  EP  OW  HW  HW  EP  OW  HW  HW  EP  OW  
HW  HW  EP  OW  HW  HW  EP  OW  HW  HW  EP  OW  HW  HW  EP  OW  HW  HW  EP  OW  
HW  HW  EP  OW  HW  HW  EP  OW  HW  HW  EP  OW  HW  HW  EP  OW  HW  HW  EP  OW  
HW  HW  EP  OW  HW  HW  EP  OW  HW  HW  EP  OW  HW  HW  EP  OW  HW  HW  EP  OW  
HW  HW  EP  OW  HW  HW  EP  OW  HW  HW  EP  OW  HW  HW  EP  OW  HW  HW  EP  OW  
HW  HW  EP  OW  HW  HW  EP  OW  HW  HW  EP  OW  HW  HW  EP  OW  HW  HW  EP  OW  
HW  HW  EP  OW  HW  HW  EP  OW  HW  HW  EP  OW  HW  HW  EP  OW  HW  HW  EP  OW  
HW  HW  EP  OW  HW  HW  EP  OW  HW  HW  EP  OW  HW  HW  EP  OW  HW  HW  EP  OW  
HW  HW  EP  OW  HW  HW  EP  OW  HW  HW  EP  OW  HW  HW  EP  OW  HW  HW  EP  OW  
HW  HW  EP  OW  HW  HW  EP  OW  HW  HW  EP  OW  HW  HW  EP  OW  HW  HW  EP  OW  
HW  HW  EP  OW  HW  HW  EP  OW  HW  HW  EP  OW  HW  HW  EP  OW  HW  HW  EP  OW  
HW  HW  EP  OW  HW  HW  EP  OW  HW  HW  EP  OW  HW  HW  EP  OW  HW  HW  EP  OW  
HW  HW  EP  OW  HW  HW  EP  OW  HW  HW  EP  OW  HW  HW  EP  OW  HW  HW  EP  OW  
HW  HW  EP  OW  HW  HW  EP  OW  HW  HW  EP  OW  HW  HW  EP  OW  HW  HW  EP  OW  
HW  HW  EP  OW  HW  HW  EP  OW  HW  HW  EP  OW  HW  HW  EP  OW  HW  HW  EP  OW  
HW  HW  EP  OW  HW  HW  EP  OW  HW  HW  EP  OW  HW  HW  EP  OW  HW  HW  EP  OW  
HW  HW  EP  OW  HW  HW  EP  OW  HW  HW  EP  OW  HW  HW  EP  OW  HW  HW  EP  OW  
HW  HW  EP  OW  HW  HW  EP  OW  HW  HW  EP  OW  HW  HW  EP  OW  HW  HW  EP  OW  
HW  HW  EP  OW  HW  HW  EP  OW  HW  HW  EP  OW  HW  HW  EP  OW  HW  HW  EP  OW  
HW  HW  EP  OW  HW  HW  EP  OW  HW  HW  EP  OW  HW  HW  EP  OW  HW  HW  EP  OW  
HW  HW  EP  OW  HW  HW  EP  OW  HW  HW  EP  OW  HW  HW  EP  OW  HW  HW  EP  OW  
HW  HW  EP  OW  HW  HW  EP  OW  HW  HW  EP  OW  HW  HW  EP  OW  HW  HW  EP  OW  
HW  HW  EP  OW  HW  HW  EP  OW  HW  HW  EP  OW  HW  HW  EP  OW  HW  HW  EP  OW  
HW  HW  EP  OW  HW  HW  EP  OW  HW  HW  EP  OW  HW  HW  EP  OW  HW  HW  EP  OW  
HW  HW  EP  OW  HW  HW  EP  OW  HW  HW  EP  OW  HW  HW  EP  OW  HW  HW  EP  OW  
HW  HW  EP  OW  HW  HW  EP  OW  HW  HW  EP  OW  HW  HW  EP  OW  HW  HW  EP  OW  
HW  HW  EP  OW  HW  HW  EP  OW  HW  HW  EP  OW  HW  HW  EP  OW  HW  HW  EP  OW  
HW  HW  EP  OW  HW  HW  EP  OW  HW  HW  EP  OW  HW  HW  EP  OW  HW  HW  EP  OW  
HW  HW  EP  OW  HW  HW  EP  OW  HW  HW  EP  OW  HW  HW  EP  OW  HW  HW  EP  OW  
HW  HW  EP  OW  HW  HW  EP  OW  HW  HW  EP  OW  HW  HW  EP  OW  HW  HW  EP  OW  
HW  HW  EP  OW  HW  HW  EP  OW  HW  HW  EP  OW  HW  HW  EP  OW  HW  HW  EP  OW  
HW  HW  EP  OW  HW  HW  EP  OW  HW  HW  EP  OW  HW  HW  EP  OW  HW  HW  EP  OW  
HW  HW  EP  OW  HW  HW  EP  OW  HW  HW  EP  OW  HW  HW  EP  OW  HW  HW  EP  OW  
HW  HW  EP  OW  HW  HW  EP  OW  HW  HW  EP  OW  HW  HW  EP  OW  HW  HW  EP  OW  
HW  HW  EP  OW  HW  HW  EP  OW  HW  HW  EP  OW  HW  HW  EP  OW  HW  HW  EP  OW  
HW  HW  EP  OW  HW  HW  EP  OW  HW  HW  EP  OW  HW  HW  EP  OW  HW  HW  EP  OW  
HW  HW  EP  OW  HW  HW  EP  OW  HW  HW  EP  OW  HW  HW  EP  OW  HW  HW  EP  OW  
HW  HW  EP  OW  HW  HW  EP  OW  HW  HW  EP  OW  HW  HW  EP  OW  HW  HW  EP  OW  
HW  HW  EP  OW  HW  HW  EP  OW  HW  HW  EP  OW  HW  HW  EP  OW  HW  HW  EP  OW  
HW  HW  EP  OW  HW  HW  EP  OW  HW  HW  EP  OW  HW  HW  EP  OW  HW  HW  EP  OW  
HW  HW  EP  OW  HW  HW  EP  OW  HW  HW  EP  OW  HW  HW  EP  OW  HW  HW  EP  OW  
HW  HW  EP  OW  HW  HW  EP  OW  HW  HW  EP  OW  HW  HW  EP  OW  HW  HW  EP  OW  
HW  HW  EP  OW  HW  HW  EP  OW  HW  HW  EP  OW  HW  HW  EP  OW  HW  HW  EP  OW  
HW  HW  EP  OW  HW  HW  EP  OW  HW  HW  EP  OW  HW  HW  EP  OW  HW  HW  EP  OW  
HW  HW  EP  OW  HW  HW  EP  OW  HW  HW  EP  OW  HW  HW  EP  OW  HW  HW  EP  OW  
HW  HW  EP  OW  HW  HW  EP  OW  HW  HW  EP  OW  HW  HW  EP  OW  HW  HW  EP  OW  
HW  HW  EP  OW  HW  HW  EP  OW  HW  HW  EP  OW  HW  HW  EP  OW  HW  HW  EP  OW  
HW  HW  EP  OW  HW  HW  EP  OW  HW  HW  EP  OW  HW  HW  EP  OW  HW  HW  EP  OW  
HW  HW  EP  OW  HW  HW  EP  OW  HW  HW  EP  OW  HW  HW  EP  OW  HW  HW  EP  OW  
HW  HW  EP  OW  HW  HW  EP  OW  HW  HW  EP  OW  HW  HW  EP  OW  HW  HW  EP  OW  
HW  HW  EP  OW  HW  HW  EP  OW  HW  HW  EP  OW  HW  HW  EP  OW  HW  HW  EP  OW  
HW  HW  EP  OW  HW  HW  EP  OW  HW  HW  EP  OW  HW  HW  EP  OW  HW  HW  EP  OW  
HW  HW  EP  OW  HW  HW  EP  OW  HW  HW  EP  OW  HW  HW  EP  OW  HW  HW  EP  OW  
HW  HW  EP  OW  HW  HW  EP  OW  HW  HW  EP  OW  HW  HW  EP  OW  HW  HW  EP  OW  
HW  HW  EP  OW  HW  HW  EP  OW  HW  HW  EP  OW  HW  HW  EP  OW  HW  HW  EP  OW  
HW  HW  EP  OW  HW  HW  EP  OW  HW  HW  EP  OW  HW  HW  EP  OW  HW  HW  EP  OW  
HW  HW  EP  OW  HW  HW  EP  OW  HW  HW  EP  OW  HW  HW  EP  OW  HW  HW  EP  OW  
HW  HW  EP  OW  HW  HW  EP  OW  HW  HW  EP  OW  HW  HW  EP  OW  HW  HW  EP  OW  
HW  HW  EP  OW  HW  HW  EP  OW  HW  HW  EP  OW  HW  HW  EP  OW  HW  HW  EP  OW  
HW  HW  EP  OW  HW  HW  EP  OW  HW  HW  EP  OW  HW  HW  EP  OW  HW  HW  EP  OW  
HW  HW  EP  OW  HW  HW  EP  OW  HW  HW  EP  OW  HW  HW  EP  OW  HW  HW  EP  OW  
HW  HW  EP  OW  HW  HW  EP  OW  HW  HW  EP  OW  HW  HW  EP  OW  HW  HW  EP  OW  
HW  HW  EP  OW  HW  HW  EP  OW  HW  HW  EP  OW  HW  HW  EP  OW  HW  HW  EP  OW  
HW  HW  EP  OW  HW  HW  EP  OW  HW  HW  EP  OW  HW  HW  EP  OW  HW  HW  EP  OW  
HW  HW  EP  OW  HW  HW  EP  OW  HW  HW  EP  OW  HW  HW  EP  OW  HW  HW  EP  OW  
HW  HW  EP  OW  HW  HW  EP  OW  HW  HW  EP  OW  HW  HW  EP  OW  HW  HW  EP  OW  
HW  HW  EP  OW  HW  HW  EP  OW  HW  HW  EP  OW  HW  HW  EP  OW  HW  HW  EP  OW  
HW  HW  EP  OW  HW  HW  EP  OW  HW  HW  EP  OW  HW  HW  EP  OW  HW  HW  EP  OW  
HW  HW  EP  OW  HW  HW  EP  OW  HW  HW  EP  OW  HW  HW  EP  OW  HW  HW  EP  OW  
HW  HW  EP  OW  HW  HW  EP  OW  HW  HW  EP  OW  HW  HW  EP  OW  HW  HW  EP  OW  
HW  HW  EP  OW  HW  HW  EP  OW  HW  HW  EP  OW  HW  HW  EP  OW  HW  HW  EP  OW  
HW  HW  EP  OW  HW  HW  EP  OW  HW  HW  EP  OW  HW  HW  EP  OW  HW  HW  EP  OW  
HW  HW  EP  OW  HW  HW  EP  OW  HW  HW  EP  OW  HW  HW  EP  OW  HW  HW  EP  OW  
HW  HW  EP  OW  HW  HW  EP  OW  HW  HW  EP  OW  HW  HW  EP  OW  HW  HW  EP  OW  
HW  HW  EP  OW  HW  HW  EP  OW  HW  HW  EP  OW  HW  HW  EP  OW  HW  HW  EP  OW  
HW  HW  EP  OW  HW  HW  EP  OW  HW  HW  EP  OW  HW  HW  EP  OW  HW  HW  EP  OW  
HW  HW  EP  OW  HW  HW  EP  OW  HW  HW  EP  OW  HW  HW  EP  OW  HW  HW  EP  OW  
HW  HW  EP  OW  HW  HW  EP  OW  HW  HW  EP  OW  HW  HW  EP  OW  HW  HW  EP  OW  
HW  HW  EP  OW  HW  HW  EP  OW  HW  HW  EP  OW  HW  HW  EP  OW  HW  HW  EP  OW  
HW  HW  EP  OW  HW  HW  EP  OW  HW  HW  EP  OW  HW  HW  EP  OW  HW  HW  EP  OW  
HW  HW  EP  OW  HW  HW  EP  OW  HW  HW  EP  OW  HW  HW  EP  OW  HW  HW  EP  OW  
HW  HW  EP  OW  HW  HW  EP  OW  HW  HW  EP  OW  HW  HW  EP  OW  HW  HW  EP  OW  
HW  HW  EP  OW  HW  HW  EP  OW  HW  HW  EP  OW  HW  HW  EP  OW  HW  HW  EP  OW  
HW  HW  EP  OW  HW  HW  EP  OW  HW  HW  EP  OW  HW  HW  EP  OW  HW  HW  EP  OW  
HW  HW  EP  OW  HW  HW  EP  OW  HW  HW  EP  OW  HW  HW  EP  OW  HW  HW  EP  OW  
HW  HW  EP  OW  HW  HW  EP  OW  HW  HW  EP  OW  HW  HW  EP  OW  HW  HW  EP  OW  
HW  HW  EP  OW  HW  HW  EP  OW  HW  HW  EP  OW  HW  HW  EP  OW  HW  HW  EP  OW  
HW  HW  EP  OW  HW  HW  EP  OW  HW  HW  EP  OW  HW  HW  EP  OW  HW  HW  EP  OW  
HW  HW  EP  OW  HW  HW  EP  OW  HW  HW  EP  OW  HW  HW  EP  OW  HW  HW  EP  OW  
HW  HW  EP  OW  HW  HW  EP  OW  HW  HW  EP  OW  HW  HW  EP  OW  HW  HW  EP  OW  
HW  HW  EP  OW  HW  HW  EP  OW  HW  HW  EP  OW  HW  HW  EP  OW  HW  HW  EP  OW  
HW  HW  EP  OW  HW  HW  EP  OW  HW  HW  EP  OW  HW  HW  EP  OW  HW  HW  EP  OW  
HW  HW  EP  OW  HW  HW  EP  OW  HW  HW  EP  OW  HW  HW  EP  OW  HW  HW  EP  OW  
HW  HW  EP  OW  HW  HW  EP  OW  HW  HW  EP  OW  HW  HW  EP  OW  HW  HW  EP  OW  
HW  HW  EP  OW  HW  HW  EP  OW  HW  HW  EP  OW  HW  HW  EP  OW  HW  HW  EP  OW  
HW  HW  EP  OW  HW  HW  EP  OW  HW  HW  EP  OW  HW  HW  EP  OW  HW  HW  EP  OW  
HW  HW  EP  OW  HW  HW  EP  OW  HW  HW  EP  OW  HW  HW  EP  OW  HW  HW  EP  OW  
HW  HW  EP  OW  HW  HW  EP  OW  HW  HW  EP  OW  HW  HW  EP  OW  HW  HW  EP  OW  
HW  HW  EP  OW  HW  HW  EP  OW  HW  HW  EP  OW  HW  HW  EP  OW  HW  HW  EP  OW  
HW  HW  EP  OW  HW  HW  EP  OW  HW  HW  EP  OW  HW  HW  EP  OW  HW  HW  EP  OW  
HW  HW  EP  OW  HW  HW  EP  OW  HW  HW  EP  OW  HW  HW  EP  OW  HW  HW  EP  OW  
HW  HW  EP  OW  HW  HW  EP  OW  HW  HW  EP  OW  HW  HW  EP  OW  HW  HW  EP  OW  
HW  HW  EP  OW  HW  HW  EP  OW  HW  HW  EP  OW  HW  HW  EP  OW  HW  HW  EP  OW  
HW  HW  EP  OW  HW  HW  EP  OW  HW  HW  EP  OW  HW  HW  EP  OW  HW  HW  EP  OW  
HW  HW  EP  OW  HW  HW  EP  OW  HW  HW  EP  OW  HW  HW  EP  OW  HW  HW  EP  OW  
HW  HW  EP  OW  HW  HW  EP  OW  HW  HW  EP  OW  HW  HW  EP  OW  HW  HW  EP  OW  
HW  HW  EP  OW  HW  HW  EP  OW  HW  HW  EP  OW  HW  HW  EP  OW  HW  HW  EP  OW  
HW  HW  EP  OW  HW  HW  EP  OW  HW  HW  EP  OW  HW  HW  EP  OW  HW  HW  EP  OW  
HW  HW  EP  OW  HW  HW  EP  OW  HW  HW  EP  OW  HW  HW  EP  OW  HW  HW  EP  OW  
HW  HW  EP  OW  HW  HW  EP  OW  HW  HW  EP  OW  HW  HW  EP  OW  HW  HW  EP  OW  
HW  HW  EP  OW  HW  HW  EP  OW  HW  HW  EP  OW  HW  HW  EP  OW  HW  HW  EP  OW  
HW  HW  EP  OW  HW  HW  EP  OW  HW  HW  EP  OW  HW  HW  EP  OW  HW  HW  EP  OW  
HW  HW  EP  OW  HW  HW  EP  OW  HW  HW  EP  OW  HW  HW  EP  OW  HW  HW  EP  OW  
HW  HW  EP  OW  HW  HW  EP  OW  HW  HW  EP  OW  HW  HW  EP  OW  HW  HW  EP  OW  
HW  HW  EP  OW  HW  HW  EP  OW  HW  HW  EP  OW  HW  HW  EP  OW  HW  HW  EP  OW  
HW  HW  EP  OW  HW  HW  EP  OW  HW  HW  EP  OW  HW  HW  EP  OW  HW  HW  EP  OW  
HW  HW  EP  OW  HW  HW  EP  OW  HW  HW  EP  OW  HW  HW  EP  OW  HW  HW  EP  OW  
HW  HW  EP  OW  HW  HW  EP  OW  HW  HW  EP  OW  HW  HW  EP  OW  HW  HW  EP  OW  
HW  HW  EP  OW  HW  HW  EP  OW  HW  HW  EP  OW  HW  HW  EP  OW  HW  HW  EP  OW  
HW  HW  EP  OW  HW  HW  EP  OW  HW  HW  EP  OW  HW  HW  EP  OW  HW  HW  EP  OW  
HW  HW  EP  OW  HW  HW  EP  OW  HW  HW  EP  OW  HW  HW  EP  OW  HW  HW  EP  OW  
HW  HW  EP  OW  HW  HW  EP  OW  HW  HW  EP  OW  HW  HW  EP  OW  HW  HW  EP  OW  
HW  HW  EP  OW  HW  HW  EP  OW  HW  HW  EP  OW  HW  HW  EP  OW  HW  HW  EP  OW  
HW  HW  EP  OW  HW  HW  EP  OW  HW  HW  EP  OW  HW  HW  EP  OW  HW  HW  EP  OW  
HW  HW  EP  OW  HW  HW  EP  OW  HW  HW  EP  OW  HW  HW  EP  OW  HW  HW  EP  OW  
HW  HW  EP  OW  HW  HW  EP  OW  HW  HW  EP  OW  HW  HW  EP  OW  HW  HW  EP  OW  
HW  HW  EP  OW  HW  HW  EP  OW  HW  HW  EP  OW  HW  HW  EP  OW  HW  HW  EP  OW  
HW  HW  EP  OW  HW  HW  EP  OW  HW  HW  EP  OW  HW  HW  EP  OW  HW  HW  EP  OW  
HW  HW  EP  OW  HW  HW  EP  OW  HW  HW  EP  OW  HW  HW  EP  OW  HW  HW  EP  OW  
HW  HW  EP  OW  HW  HW  EP  OW  HW  HW  EP  OW  HW  HW  EP  OW  HW  HW  EP  OW  
HW  HW  EP  OW  HW  HW  EP  OW  HW  HW  EP  OW  HW  HW  EP  OW  HW  HW  EP  OW  
HW  HW  EP  OW  HW  HW  EP  OW  HW  HW  EP  OW  HW  HW  EP  OW  HW  HW  EP  OW  
HW  HW  EP  OW  HW  HW  EP  OW  HW  HW  EP  OW  HW  HW  EP  OW  HW  HW  EP  OW  
HW  HW  EP  OW  HW  HW  EP  OW  HW  HW  EP  OW  HW  HW  EP  OW  HW  HW  EP  OW  
HW  HW  EP  OW  HW  HW  EP  OW  HW  HW  EP  OW  HW  HW  EP  OW  HW  HW  EP  OW  
HW  HW  EP  OW  HW  HW  EP  OW  HW  HW  EP  OW  HW  HW  EP  OW  HW  HW  EP  OW  
HW  HW  EP  OW  HW  HW  EP  OW  HW  HW  EP  OW  HW  HW  EP  OW  HW  HW  EP  OW  
HW  HW  EP  OW  HW  HW  EP  OW  HW  HW  EP  OW  HW  HW  EP  OW  HW  HW  EP  OW  
HW  HW  EP  OW  HW  HW  EP  OW  HW  HW  EP  OW  HW  HW  EP  OW  HW  HW  EP  OW  
HW  HW  EP  OW  HW  HW  EP  OW  HW  HW  EP  OW  HW  HW  EP  OW  HW  HW  EP  OW  
HW  HW  EP  OW  HW  HW  EP  OW  HW  HW  EP  OW  HW  HW  EP  OW  HW  HW  EP  OW  
HW  HW  EP  OW  HW  HW  EP  OW  HW  HW  EP  OW  HW  HW  EP  OW  HW  HW  EP  OW  
HW  HW  EP  OW  HW  HW  EP  OW  HW  HW  EP  OW  HW  HW  EP  OW  HW  HW  EP  OW  
HW  HW  EP  OW  HW  HW  EP  OW  HW  HW  EP  OW  HW  HW  EP  OW  HW  HW  EP  OW  
HW  HW  EP  OW  HW  HW  EP  OW  HW  HW  EP  OW  HW  HW  EP  OW  HW  HW  EP  OW  
HW  HW  EP  OW  HW  HW  EP  OW  HW  HW  EP  OW  HW  HW  EP  OW  HW  HW  EP  OW  
HW  HW  EP  OW  HW  HW  EP  OW  HW  HW  EP  OW  HW  HW  EP  OW  HW  HW  EP  OW  
HW  HW  EP  OW  HW  HW  EP  OW  HW  HW  EP  OW  HW  HW  EP  OW  HW  HW  EP  OW  
HW  HW  EP  OW  HW  HW  EP  OW  HW  HW  EP  OW  HW  HW  EP  OW  HW  HW  EP  OW  
HW  HW  EP  OW  HW  HW  EP  OW  HW  HW  EP  OW  HW  HW  EP  OW  HW  HW  EP  OW  
HW  HW  EP  OW  HW  HW  EP  OW  HW  HW  EP  OW  HW  HW  EP  OW  HW  HW  EP  OW  
HW  HW  EP  OW  HW  HW  EP  OW  HW  HW  EP  OW  HW  HW  EP  OW  HW  HW  EP  OW  
HW  HW  EP  OW  HW  HW  EP  OW  HW  HW  EP  OW  HW  HW  EP  OW  HW  HW  EP  OW  
HW  HW  EP  OW  HW  HW  EP  OW  HW  HW  EP  OW  HW  HW  EP  OW  HW  HW  EP  OW  
HW  HW  EP  OW  HW  HW  EP  OW  HW  HW  EP  OW  HW  HW  EP  OW  HW  HW  EP  OW  
HW  HW  EP  OW  HW  HW  EP  OW  HW  HW  EP  OW  HW  HW  EP  OW  HW  HW  EP  OW  
HW  HW  EP  OW  HW  HW  EP  OW  HW  HW  EP  OW  HW  HW  EP  OW  HW  HW  EP  OW  
HW  HW  EP  OW  HW  HW  EP  OW  HW  HW  EP  OW  HW  HW  EP  OW  HW  HW  EP  OW  
HW  HW  EP  OW  HW  HW  EP  OW  HW  HW  EP  OW  HW  HW  EP  OW  HW  HW  EP  OW  
HW  HW  EP  OW  HW  HW  EP  OW  HW  HW  EP  OW  HW  HW  EP  OW  HW  HW  EP  OW  
HW  HW  EP  OW  HW  HW  EP  OW  HW  HW  EP  OW  HW  HW  EP  OW  HW  HW  EP  OW  
HW  HW  EP  OW  HW  HW  EP  OW  HW  HW  EP  OW  HW  HW  EP  OW  HW  HW  EP  OW  
HW  HW  EP  OW  HW  HW  EP  OW  HW  HW  EP  OW  HW  HW  EP  OW  HW  HW  EP  OW  
HW  HW  EP  OW  HW  HW  EP  OW  HW  HW  EP  OW  HW  HW  EP  OW  HW  HW  EP  OW  
HW  HW  EP  OW  HW  HW  EP  OW  HW  HW  EP  OW  HW  HW  EP  OW  HW  HW  EP  OW  
HW  HW  EP  OW  HW  HW  EP  OW  HW  HW  EP  OW  HW  HW  EP  OW  HW  HW  EP  OW  
HW  HW  EP  OW  HW  HW  EP  OW  HW  HW  EP  OW  HW  HW  EP  OW  HW  HW  EP  OW  
HW  HW  EP  OW  HW  HW  EP  OW  HW  HW  EP  OW  HW  HW  EP  OW  HW  HW  EP  OW  
HW  HW  EP  OW  HW  HW  EP  OW  HW  HW  EP  OW  HW  HW  EP  OW  HW  HW  EP  OW  
HW  HW  EP  OW  HW  HW  EP  OW  HW  HW  EP  OW  HW  HW  EP  OW  HW  HW  EP  OW  
HW  HW  EP  OW  HW  HW  EP  OW  HW  HW  EP  OW  HW  HW  EP  OW  HW  HW  EP  OW  
HW  HW  EP  OW  HW  HW  EP  OW  HW  HW  EP  OW  HW  HW  EP  OW  HW  HW  EP  OW  
HW  HW  EP  OW  HW  HW  EP  OW  HW  HW  EP  OW  HW  HW  EP  OW  HW  HW  EP  OW  
HW  HW  EP  OW  HW  HW  EP  OW  HW  HW  EP  OW  HW  HW  EP  OW  HW  HW  EP  OW  
HW  HW  EP  OW  HW  HW  EP  OW  HW  HW  EP  OW  HW  HW  EP  OW  HW  HW  EP  OW  
HW  HW  EP  OW  HW  HW  EP  OW  HW  HW  EP  OW  HW  HW  EP  OW  HW  HW  EP  OW  
HW  HW  EP  OW  HW  HW  EP  OW  HW  HW  EP  OW  HW  HW  EP  OW  HW  HW  EP  OW  
HW  HW  EP  OW  HW  HW  EP  OW  HW  HW  EP  OW  HW  HW  EP  OW  HW  HW  EP  OW  
HW  HW  EP  OW  HW  HW  EP  OW  HW  HW  EP  OW  HW  HW  EP  OW  HW  HW  EP  OW  
HW  HW  EP  OW  HW  HW  EP  OW  HW  HW  EP  OW  HW  HW  EP  OW  HW  HW  EP  OW  
HW  HW  EP  OW  HW  HW  EP  OW  HW  HW  EP  OW  HW  HW  EP  OW  HW  HW  EP  OW  
HW  HW  EP  OW  HW  HW  EP  OW  HW  HW  EP  OW  HW  HW  EP  OW  HW  HW  EP  OW  
HW  HW  EP  OW  HW  HW  EP  OW  HW  HW  EP  OW  HW  HW  EP  OW  HW  HW  EP  OW  
HW  HW  EP  OW  HW  HW  EP  OW  HW  HW  EP  OW  HW  HW  EP  OW  HW  HW  EP  OW  
HW  HW  EP  OW  HW  HW  EP  OW  HW  HW  EP  OW  HW  HW  EP  OW  HW  HW  EP  OW  
HW  HW  EP  OW  HW  HW  EP  OW  HW  HW  EP  OW  HW  HW  EP  OW  HW  HW  EP  OW  
HW  HW  EP  OW  HW  HW  EP  OW  HW  HW  EP  OW  HW  HW  EP  OW  HW  HW  EP  OW  
HW  HW  EP  OW  HW  HW  EP  OW  HW  HW  EP  OW  HW  HW  EP  OW  HW  HW  EP  OW  
HW  HW  EP  OW  HW  HW  EP  OW  HW  HW  EP  OW  HW  HW  EP  OW  HW  HW  EP  OW  
HW  HW  EP  OW  HW  HW  EP  OW  HW  HW  EP  OW  HW  HW  EP  OW  HW  HW  EP  OW  
HW  HW  EP  OW  HW  HW  EP  OW  HW  HW  EP  OW  HW  HW  EP  OW  HW  HW  EP  OW  
HW  HW  EP  OW  HW  HW  EP  OW  HW  HW  EP  OW  HW  HW  EP  OW  HW  HW  EP  OW  
HW  HW  EP  OW  HW  HW  EP  OW  HW  HW  EP  OW  HW  HW  EP  OW  HW  HW  EP  OW  
HW  HW  EP  OW  HW  HW  EP  OW  HW  HW  EP  OW  HW  HW  EP  OW  HW  HW  EP  OW  
HW  HW  EP  OW  HW  HW  EP  OW  HW  HW  EP  OW  HW  HW  EP  OW  HW  HW  EP  OW  
HW  HW  EP  OW  HW  HW  EP  OW  HW  HW  EP  OW  HW  HW  EP  OW  HW  HW  EP  OW  
HW  HW  EP  OW  HW  HW  EP  OW  HW  HW  EP  OW  HW  HW  EP  OW  HW  HW  EP  OW  
HW  HW  EP  OW  HW  HW  EP  OW  HW  HW  EP  OW  HW  HW  EP  OW  HW  HW  EP  OW  
HW  HW  EP  OW  HW  HW  EP  OW  HW  HW  EP  OW  HW  HW  EP  OW  HW  HW  EP  OW  
HW  HW  EP  OW  HW  HW  EP  OW  HW  HW  EP  OW  HW  HW  EP  OW  HW  HW  EP  OW  
HW  HW  EP  OW  HW  HW  EP  OW  HW  HW  EP  OW  HW  HW  EP  OW  HW  HW  EP  OW  
HW  HW  EP  OW  HW  HW  EP  OW  HW  HW  EP  OW  HW  HW  EP  OW  HW  HW  EP  OW  
HW  HW  EP  OW  HW  HW  EP  OW  HW  HW  EP  OW  HW  HW  EP  OW  HW  HW  EP  OW  
HW  HW  EP  OW  HW  HW  EP  OW  HW  HW  EP  OW  HW  HW  EP  OW  HW  HW  EP  OW  
HW  HW  EP  OW  HW  HW  EP  OW  HW  HW  EP  OW  HW  HW  EP  OW  HW  HW  EP  OW  
HW  HW  EP  OW  HW  HW  EP  OW  HW  HW  EP  OW  HW  HW  EP  OW  HW  HW  EP  OW  
HW  HW  EP  OW  HW  HW  EP  OW  HW  HW  EP  OW  HW  HW  EP  OW  HW  HW  EP  OW  
HW  HW  EP  OW  HW  HW  EP  OW  HW  HW  EP  OW  HW  HW  EP  OW  HW  HW  EP  OW  
HW  HW  EP  OW  HW  HW  EP  OW  HW  HW  EP  OW  HW  HW  EP  OW  HW  HW  EP  OW  
HW  HW  EP  OW  HW  HW  EP  OW  HW  HW  EP  OW  HW  HW  EP  OW  HW  HW  EP  OW  
HW  HW  EP  OW  HW  HW  EP  OW  HW  HW  EP  OW  HW  HW  EP  OW  HW  HW  EP  OW  
HW  HW  EP  OW  HW  HW  EP  OW  HW  HW  EP  OW  HW  HW  EP  OW  HW  HW  EP  OW  
HW  HW  EP  OW  HW  HW  EP  OW  HW  HW  EP  OW  HW  HW  EP  OW  HW  HW  EP  OW  
HW  HW  EP  OW  HW  HW  EP  OW  HW  HW  EP  OW  HW  HW  EP  OW  HW  HW  EP  OW  
HW  HW  EP  OW  HW  HW  EP  OW  HW  HW  EP  OW  HW  HW  EP  OW  HW  HW  EP  OW  
HW  HW  EP  OW  HW  HW  EP  OW  HW  HW  EP  OW  HW  HW  EP  OW  HW  HW  EP  OW  
HW  HW  EP  OW  HW  HW  EP  OW  HW  HW  EP  OW  HW  HW  EP  OW  HW  HW  EP  OW  
HW  HW  EP  OW  HW  HW  EP  OW  HW  HW  EP  OW  HW  HW  EP  OW  HW  HW  EP  OW  
HW  HW  EP  OW  HW  HW  EP  OW  HW  HW  EP  OW  HW  HW  EP  OW  HW  HW  EP  OW  
HW  HW  EP  OW  HW  HW  EP  OW  HW  HW  EP  OW  HW  HW  EP  OW  HW  HW  EP  OW  
HW  HW  EP  OW  HW  HW  EP  OW  HW  HW  EP  OW  HW  HW  EP  OW  HW  HW  EP  OW  
HW  HW  EP  OW  HW  HW  EP  OW  HW  HW  EP  OW  HW  HW  EP  OW  HW  HW  EP  OW  
HW  HW  EP  OW  HW  HW  EP  OW  HW  HW  EP  OW  HW  HW  EP  OW  HW  HW  EP  OW  
HW  HW  EP  OW  HW  HW  EP  OW  HW  HW  EP  OW  HW  HW  EP  OW  HW  HW  EP  OW  
HW  HW  EP  OW  HW  HW  EP  OW  HW  HW  EP  OW  HW  HW  EP  OW  HW  HW  EP  OW  
HW  HW  EP  OW  HW  HW  EP  OW  HW  HW  EP  OW  HW  HW  EP  OW  HW  HW  EP  OW  
HW  HW  EP  OW  HW  HW  EP  OW  HW  HW  EP  OW  HW  HW  EP  OW  HW  HW  EP  OW  
HW  HW  EP  OW  HW  HW  EP  OW  HW  HW  EP  OW  HW  HW  EP  OW  HW  HW  EP  OW  
HW  HW  EP  OW  HW  HW  EP  OW  HW  HW  EP  OW  HW  HW  EP  OW  HW  HW  EP  OW  
HW  HW  EP  OW  HW  HW  EP  OW  HW  HW  EP  OW  HW  HW  EP  OW  HW  HW  EP  OW  
HW  HW  EP  OW  HW  HW  EP  OW  HW  HW  EP  OW  HW  HW  EP  OW  HW  HW  EP  OW  
HW  HW  EP  OW  HW  HW  EP  OW  HW  HW  EP  OW  HW  HW  EP  OW  HW  HW  EP  OW  
HW  HW  EP  OW  HW  HW  EP  OW  HW  HW  EP  OW  HW  HW  EP  OW  HW  HW  EP  OW  
HW  HW  EP  OW  HW  HW  EP  OW  HW  HW  EP  OW  HW  HW  EP  OW  HW  HW  EP  OW  
HW  HW  EP  OW  HW  HW  EP  OW  HW  HW  EP  OW  HW  HW  EP  OW  HW  HW  EP  OW  
HW  HW  EP  OW  HW  HW  EP  OW  HW  HW  EP  OW  HW  HW  EP  OW  HW  HW  EP  OW  
HW  HW  EP  OW  HW  HW  EP  OW  HW  HW  EP  OW  HW  HW  EP  OW  HW  HW  EP  OW  
HW  HW  EP  OW  HW  HW  EP  OW  HW  HW  EP  OW  HW  HW  EP  OW  HW  HW  EP  OW  
HW  HW  EP  OW  HW  HW  EP  OW  HW  HW  EP  OW  HW  HW  EP  OW  HW  HW  EP  OW  
HW  HW  EP  OW  HW  HW  EP  OW  HW  HW  EP  OW  HW  HW  EP  OW  HW  HW  EP  OW  
HW  HW  EP  OW  HW  HW  EP  OW  HW  HW  EP  OW  HW  HW  EP  OW  HW  HW  EP  OW  
HW  HW  EP  OW  HW  HW  EP  OW  HW  HW  EP  OW  HW  HW  EP  OW  HW  HW  EP  OW  
HW  HW  EP  OW  HW  HW  EP  OW  HW  HW  EP  OW  HW  HW  EP  OW  HW  HW  EP  OW  
HW  HW  EP  OW  HW  HW  EP  OW  HW  HW  EP  OW  HW  HW  EP  OW  HW  HW  EP  OW  
HW  HW  EP  OW  HW  HW  EP  OW  HW  HW  EP  OW  HW  HW  EP  OW  HW  HW  EP  OW  
HW  HW  EP  OW  HW  HW  EP  OW  HW  HW  EP  OW  HW  HW  EP  OW  HW  HW  EP  OW  
HW  HW  EP  OW  HW  HW  EP  OW  HW  HW  EP  OW  HW  HW  EP  OW  HW  HW  EP  OW  
HW  HW  EP  OW  HW  HW  EP  OW  HW  HW  EP  OW  HW  HW  EP  OW  HW  HW  EP  OW  
HW  HW  EP  OW  HW  HW  EP  OW  HW  HW  EP  OW  HW  HW  EP  OW  HW  HW  EP  OW  
HW  HW  EP  OW  HW  HW  EP  OW  HW  HW  EP  OW  HW  HW  EP  OW  HW  HW  EP  OW  
HW  HW  EP  OW  HW  HW  EP  OW  HW  HW  EP  OW  HW  HW  EP  OW  HW  HW  EP  OW  
HW  HW  EP  OW  HW  HW  EP  OW  HW  HW  EP  OW  HW  HW  EP  OW  HW  HW  EP  OW  
HW  HW  EP  OW  HW  HW  EP  OW  HW  HW  EP  OW  HW  HW  EP  OW  HW  HW  EP  OW  
HW  HW  EP  OW  HW  HW  EP  OW  HW  HW  EP  OW  HW  HW  EP  OW  HW  HW  EP  OW  
HW  HW  EP  OW  HW  HW  EP  OW  HW  HW  EP  OW  HW  HW  EP  OW  HW  HW  EP  OW  
HW  HW  EP  OW  HW  HW  EP  OW  HW  HW  EP  OW  HW  HW  EP  OW  HW  HW  EP  OW  
HW  HW  EP  OW  HW  HW  EP  OW  HW  HW  EP  OW  HW  HW  EP  OW  HW  HW  EP  OW  
HW  HW  EP  OW  HW  HW  EP  OW  HW  HW  EP  OW  HW  HW  EP  OW  HW  HW  EP  OW  
HW  HW  EP  OW  HW  HW  EP  OW  HW  HW  EP  OW  HW  HW  EP  OW  HW  HW  EP  OW  
HW  HW  EP  OW  HW  HW  EP  OW  HW  HW  EP  OW  HW  HW  EP  OW  HW  HW  EP  OW  
HW  HW  EP  OW  HW  HW  EP  OW  HW  HW  EP  OW  HW  HW  EP  OW  HW  HW  EP  OW  
HW  HW  EP  OW  HW  HW  EP  OW  HW  HW  EP  OW  HW  HW  EP  OW  HW  HW  EP  OW  
HW  HW  EP  OW  HW  HW  EP  OW  HW  HW  EP  OW  HW  HW  EP  OW  HW  HW  EP  OW  
HW  HW  EP  OW  HW  HW  EP  OW  HW  HW  EP  OW  HW  HW  EP  OW  HW  HW  EP  OW  
HW  HW  EP  OW  HW  HW  EP  OW  HW  HW  EP  OW  HW  HW  EP  OW  HW  HW  EP  OW  
HW  HW  EP  OW  HW  HW  EP  OW  HW  HW  EP  OW  HW  HW  EP  OW  HW  HW  EP  OW  
HW  HW  EP  OW  HW  HW  EP  OW  HW  HW  EP  OW  HW  HW  EP  OW  HW  HW  EP  OW  
HW  HW  EP  OW  HW  HW  EP  OW  HW  HW  EP  OW  HW  HW  EP  OW  HW  HW  EP  OW  
HW  HW  EP  OW  HW  HW  EP  OW  HW  HW  EP  OW  HW  HW  EP  OW  HW  HW  EP  OW  
HW  HW  EP  OW  HW  HW  EP  OW  HW  HW  EP  OW  HW  HW  EP  OW  HW  HW  EP  OW  
HW  HW  EP  OW  HW  HW  EP  OW  HW  HW  EP  OW  HW  HW  EP  OW  HW  HW  EP  OW  
HW  HW  EP  OW  HW  HW  EP  OW  HW  HW  EP  OW  HW  HW  EP  OW  HW  HW  EP  OW  
HW  HW  EP  OW  HW  HW  EP  OW  HW  HW  EP  OW  HW  HW  EP  OW  HW  HW  EP  OW  
HW  HW  EP  OW  HW  HW  EP  OW  HW  HW  EP  OW  HW  HW  EP  OW  HW  HW  EP  OW  
HW  HW  EP  OW  HW  HW  EP  OW  HW  HW  EP  OW  HW  HW  EP  OW  HW  HW  EP  OW  
HW  HW  EP  OW  HW  HW  EP  OW  HW  HW  EP  OW  HW  HW  EP  OW  HW  HW  EP  OW  
HW  HW  EP  OW  HW  HW  EP  OW  HW  HW  EP  OW  HW  HW  EP  OW  HW  HW  EP  OW  
HW  HW  EP  OW  HW  HW  EP  OW  HW  HW  EP  OW  HW  HW  EP  OW  HW  HW  EP  OW  
HW  HW  EP  OW  HW  HW  EP  OW  HW  HW  EP  OW  HW  HW  EP  OW  HW  HW  EP  OW  
HW  HW  EP  OW  HW  HW  EP  OW  HW  HW  EP  OW  HW  HW  EP  OW  HW  HW  EP  OW  
HW  HW  EP  OW  HW  HW  EP  OW  HW  HW  EP  OW  HW  HW  EP  OW  HW  HW  EP  OW  
HW  HW  EP  OW  HW  HW  EP  OW  HW  HW  EP  OW  HW  HW  EP  OW  HW  HW  EP  OW  
HW  HW  EP  OW  HW  HW  EP  OW  HW  HW  EP  OW  HW  HW  EP  OW  HW  HW  EP  OW  
HW  HW  EP  OW  HW  HW  EP  OW  HW  HW  EP  OW  HW  HW  EP  OW  HW  HW  EP  OW  
HW  HW  EP  OW  HW  HW  EP  OW  HW  HW  EP  OW  HW  HW  EP  OW  HW  HW  EP  OW  
HW  HW  EP  OW  HW  HW  EP  OW  HW  HW  EP  OW  HW  HW  EP  OW  HW  HW  EP  OW  
HW  HW  EP  OW  HW  HW  EP  OW  HW  HW  EP  OW  HW  HW  EP  OW  HW  HW  EP  OW  
HW  HW  EP  OW  HW  HW  EP  OW  HW  HW  EP  OW  HW  HW  EP  OW  HW  HW  EP  OW  
HW  HW  EP  OW  HW  HW  EP  OW  HW  HW  EP  OW  HW  HW  EP  OW  HW  HW  EP  OW  
HW  HW  EP  OW  HW  HW  EP  OW  HW  HW  EP  OW  HW  HW  EP  OW  HW  HW  EP  OW  
HW  HW  EP  OW  HW  HW  EP  OW  HW  HW  EP  OW  HW  HW  EP  OW  HW  HW  EP  OW  
HW  HW  EP  OW  HW  HW  EP  OW  HW  HW  EP  OW  HW  HW  EP  OW  HW  HW  EP  OW  
HW  HW  EP  OW  HW  HW  EP  OW  HW  HW  EP  OW  HW  HW  EP  OW  HW  HW  EP  OW  
HW  HW  EP  OW  HW  HW  EP  OW  HW  HW  EP  OW  HW  HW  EP  OW  HW  HW  EP  OW  
HW  HW  EP  OW  HW  HW  EP  OW  HW  HW  EP  OW  HW  HW  EP  OW  HW  HW  EP  OW  
HW  HW  EP  OW  HW  HW  EP  OW  HW  HW  EP  OW  HW  HW  EP  OW  HW  HW  EP  OW  
HW  HW  EP  OW  HW  HW  EP  OW  HW  HW  EP  OW  HW  HW  EP  OW  HW  HW  EP  OW  
HW  HW  EP  OW  HW  HW  EP  OW  HW  HW  EP  OW  HW  HW  EP  OW  HW  HW  EP  OW  
HW  HW  EP  OW  HW  HW  EP  OW  HW  HW  EP  OW  HW  HW  EP  OW  HW  HW  EP  OW  
HW  HW  EP  OW  HW  HW  EP  OW  HW  HW  EP  OW  HW  HW  EP  OW  HW  HW  EP  OW  
HW  HW  EP  OW  HW  HW  EP  OW  HW  HW  EP  OW  HW  HW  EP  OW  HW  HW  EP  OW  
HW  HW  EP  OW  HW  HW  EP  OW  HW  HW  EP  OW  HW  HW  EP  OW  HW  HW  EP  OW  
HW  HW  EP  OW  HW  HW  EP  OW  HW  HW  EP  OW  HW  HW  EP  OW  HW  HW  EP  OW  
HW  HW  EP  OW  HW  HW  EP  OW  HW  HW  EP  OW  HW  HW  EP  OW  HW  HW  EP  OW  
HW  HW  EP  OW  HW  HW  EP  OW  HW  HW  EP  OW  HW  HW  EP  OW  HW  HW  EP  OW  
HW  HW  EP  OW  HW  HW  EP  OW  HW  HW  EP  OW  HW  HW  EP  OW  HW  HW  EP  OW  
HW  HW  EP  OW  HW  HW  EP  OW  HW  HW  EP  OW  HW  HW  EP  OW  HW  HW  EP  OW  
HW  HW  EP  OW  HW  HW  EP  OW  HW  HW  EP  OW  HW  HW  EP  OW  HW  HW  EP  OW  
HW  HW  EP  OW  HW  HW  EP  OW  HW  HW  EP  OW  HW  HW  EP  OW  HW  HW  EP  OW  
HW  HW  EP  OW  HW  HW  EP  OW  HW  HW  EP  OW  HW  HW  EP  OW  HW  HW  EP  OW  
HW  HW  EP  OW  HW  HW  EP  OW  HW  HW  EP  OW  HW  HW  EP  OW  HW  HW  EP  OW  
HW  HW  EP  OW  HW  HW  EP  OW  HW  HW  EP  OW  HW  HW  EP  OW  HW  HW  EP  OW  
HW  HW  EP  OW  HW  HW  EP  OW  HW  HW  EP  OW  HW  HW  EP  OW  HW  HW  EP  OW  
HW  HW  EP  OW  HW  HW  EP  OW  HW  HW  EP  OW  HW  HW  EP  OW  HW  HW  EP  OW  
HW  HW  EP  OW  HW  HW  EP  OW  HW  HW  EP  OW  HW  HW  EP  OW  HW  HW  EP  OW  
HW  HW  EP  OW  HW  HW  EP  OW  HW  HW  EP  OW  HW  HW  EP  OW  HW  HW  EP  OW  
HW  HW  EP  OW  HW  HW  EP  OW  HW  HW  EP  OW  HW  HW  EP  OW  HW  HW  EP  OW  
HW  HW  EP  OW  HW  HW  EP  OW  HW  HW  EP  OW  HW  HW  EP  OW  HW  HW  EP  OW  
HW  HW  EP  OW  HW  HW  EP  OW  HW  HW  EP  OW  HW  HW  EP  OW  HW  HW  EP  OW  
HW  HW  EP  OW  HW  HW  EP  OW  HW  HW  EP  OW  HW  HW  EP  OW  HW  HW  EP  OW  
HW  HW  EP  OW  HW  HW  EP  OW  HW  HW  EP  OW  HW  HW  EP  OW  HW  HW  EP  OW  
HW  HW  EP  OW  HW  HW  EP  OW  HW  HW  EP  OW  HW  HW  EP  OW  HW  HW  EP  OW  
HW  HW  EP  OW  HW  HW  EP  OW  HW  HW  EP  OW  HW  HW  EP  OW  HW  HW  EP  OW  
HW  HW  EP  OW  HW  HW  EP  OW  HW  HW  EP  OW  HW  HW  EP  OW  HW  HW  EP  OW  
HW  HW  EP  OW  HW  HW  EP  OW  HW  HW  EP  OW  HW  HW  EP  OW  HW  HW  EP  OW  
HW  HW  EP  OW  HW  HW  EP  OW  HW  HW  EP  OW  HW  HW  EP  OW  HW  HW  EP  OW  
HW  HW  EP  OW  HW  HW  EP  OW  HW  HW  EP  OW  HW  HW  EP  OW  HW  HW  EP  OW  
HW  HW  EP  OW  HW  HW  EP  OW  HW  HW  EP  OW  HW  HW  EP  OW  HW  HW  EP  OW  
HW  HW  EP  OW  HW  HW  EP  OW  HW  HW  EP  OW  HW  HW  EP  OW  HW  HW  EP  OW  
HW  HW  EP  OW  HW  HW  EP  OW  HW  HW  EP  OW  HW  HW  EP  OW  HW  HW  EP  OW  
HW  HW  EP  OW  HW  HW  EP  OW  HW  HW  EP  OW  HW  HW  EP  OW  HW  HW  EP  OW  
HW  HW  EP  OW  HW  HW  EP  OW  HW  HW  EP  OW  HW  HW  EP  OW  HW  HW  EP  OW  
HW  HW  EP  OW  HW  HW  EP  OW  HW  HW  EP  OW  HW  HW  EP  OW  HW  HW  EP  OW  
HW  HW  EP  OW  HW  HW  EP  OW  HW  HW  EP  OW  HW  HW  EP  OW  HW  HW  EP  OW  
HW  HW  EP  OW  HW  HW  EP  OW  HW  HW  EP  OW  HW  HW  EP  OW  HW  HW  EP  OW  
HW  HW  EP  OW  HW  HW  EP  OW  HW  HW  EP  OW  HW  HW  EP  OW  HW  HW  EP  OW  
HW  HW  EP  OW  HW  HW  EP  OW  HW  HW  EP  OW  HW  HW  EP  OW  HW  HW  EP  OW  
HW  HW  EP  OW  HW  HW  EP  OW  HW  HW  EP  OW  HW  HW  EP  OW  HW  HW  EP  OW  
HW  HW  EP  OW  HW  HW  EP  OW  HW  HW  EP  OW  HW  HW  EP  OW  HW  HW  EP  OW  
HW  HW  EP  OW  HW  HW  EP  OW  HW  HW  EP  OW  HW  HW  EP  OW  HW  HW  EP  OW  
HW  HW  EP  OW  HW  HW  EP  OW  HW  HW  EP  OW  HW  HW  EP  OW  HW  HW  EP  OW  
HW  HW  EP  OW  HW  HW  EP  OW  HW  HW  EP  OW  HW  HW  EP  OW  HW  HW  EP  OW  
HW  HW  EP  OW  HW  HW  EP  OW  HW  HW  EP  OW  HW  HW  EP  OW  HW  HW  EP  OW  
HW  HW  EP  OW  HW  HW  EP  OW  HW  HW  EP  OW  HW  HW  EP  OW  HW  HW  EP  OW  
HW  HW  EP  OW  HW  HW  EP  OW  HW  HW  EP  OW  HW  HW  EP  OW  HW  HW  EP  OW  
HW  HW  EP  OW  HW  HW  EP  OW  HW  HW  EP  OW  HW  HW  EP  OW  HW  HW  EP  OW  
HW  HW  EP  OW  HW  HW  EP  OW  HW  HW  EP  OW  HW  HW  EP  OW  HW  HW  EP  OW  
HW  HW  EP  OW  HW  HW  EP  OW  HW  HW  EP  OW  HW  HW  EP  OW  HW  HW  EP  OW  
HW  HW  EP  OW  HW  HW  EP  OW  HW  HW  EP  OW  HW  HW  EP  OW  HW  HW  EP  OW  
HW  HW  EP  OW  HW  HW  EP  OW  HW  HW  EP  OW  HW  HW  EP  OW  HW  HW  EP  OW  
HW  HW  EP  OW  HW  HW  EP  OW  HW  HW  EP  OW  HW  HW  EP  OW  HW  HW  EP  OW  
HW  HW  EP  OW  HW  HW  EP  OW  HW  HW  EP  OW  HW  HW  EP  OW  HW  HW  EP  OW  
HW  HW  EP  OW  HW  HW  EP  OW  HW  HW  EP  OW  HW  HW  EP  OW  HW  HW  EP  OW  
HW  HW  EP  OW  HW  HW  EP  OW  HW  HW  EP  OW  HW  HW  EP  OW  HW  HW  EP  OW  
HW  HW  EP  OW  HW  HW  EP  OW  HW  HW  EP  OW  HW  HW  EP  OW  HW  HW  EP  OW  
HW  HW  EP  OW  HW  HW  EP  OW  HW  HW  EP  OW  HW  HW  EP  OW  HW  HW  EP  OW  
HW  HW  EP  OW  HW  HW  EP  OW  HW  HW  EP  OW  HW  HW  EP  OW  HW  HW  EP  OW  
HW  HW  EP  OW  HW  HW  EP  OW  HW  HW  EP  OW  HW  HW  EP  OW  HW  HW  EP  OW  
HW  HW  EP  OW  HW  HW  EP  OW  HW  HW  EP  OW  HW  HW  EP  OW  HW  HW  EP  OW  
HW  HW  EP  OW  HW  HW  EP  OW  HW  HW  EP  OW  HW  HW  EP  OW  HW  HW  EP  OW  
HW  HW  EP  OW  HW  HW  EP  OW  HW  HW  EP  OW  HW  HW  EP  OW  HW  HW  EP  OW  
HW  HW  EP  OW  HW  HW  EP  OW  HW  HW  EP  OW  HW  HW  EP  OW  HW  HW  EP  OW  
HW  HW  EP  OW  HW  HW  EP  OW  HW  HW  EP  OW  HW  HW  EP  OW  HW  HW  EP  OW  
HW  HW  EP  OW  HW  HW  EP  OW  HW  HW  EP  OW  HW  HW  EP  OW  HW  HW  EP  OW  
HW  HW  EP  OW  HW  HW  EP  OW  HW  HW  EP  OW  HW  HW  EP  OW  HW  HW  EP  OW  
HW  HW  EP  OW  HW  HW  EP  OW  HW  HW  EP  OW  HW  HW  EP  OW  HW  HW  EP  OW  
HW  HW  EP  OW  HW  HW  EP  OW  HW  HW  EP  OW  HW  HW  EP  OW  HW  HW  EP  OW  
HW  HW  EP  OW  HW  HW  EP  OW  HW  HW  EP  OW  HW  HW  EP  OW  HW  HW  EP  OW  
HW  HW  EP  OW  HW  HW  EP  OW  HW  HW  EP  OW  HW  HW  EP  OW  HW  HW  EP  OW  
HW  HW  EP  OW  HW  HW  EP  OW  HW  HW  EP  OW  HW  HW  EP  OW  HW  HW  EP  OW  
HW  HW  EP  OW  HW  HW  EP  OW  HW  HW  EP  OW  HW  HW  EP  OW  HW  HW  EP  OW  
HW  HW  EP  OW  HW  HW  EP  OW  HW  HW  EP  OW  HW  HW  EP  OW  HW  HW  EP  OW  
HW  HW  EP  OW  HW  HW  EP  OW  HW  HW  EP  OW  HW  HW  EP  OW  HW  HW  EP  OW  
HW  HW  EP  OW  HW  HW  EP  OW  HW  HW  EP  OW  HW  HW  EP  OW  HW  HW  EP  OW  
HW  HW  EP  OW  HW  HW  EP  OW  HW  HW  EP  OW  HW  HW  EP  OW  HW  HW  EP  OW  
HW  HW  EP  OW  HW  HW  EP  OW  HW  HW  EP  OW  HW  HW  EP  OW  HW  HW  EP  OW  
HW  HW  EP  OW  HW  HW  EP  OW  HW  HW  EP  OW  HW  HW  EP  OW  HW  HW  EP  OW  
HW  HW  EP  OW  HW  HW  EP  OW  HW  HW  EP  OW  HW  HW  EP  OW  HW  HW  EP  OW  
HW  HW  EP  OW  HW  HW  EP  OW  HW  HW  EP  OW  HW  HW  EP  OW  HW  HW  EP  OW  
HW  HW  EP  OW  HW  HW  EP  OW  HW  HW  EP  OW  HW  HW  EP  OW  HW  HW  EP  OW  
HW  HW  EP  OW  HW  HW  EP  OW  HW  HW  EP  OW  HW  HW  EP  OW  HW  HW  EP  OW  
HW  HW  EP  OW  HW  HW  EP  OW  HW  HW  EP  OW  HW  HW  EP  OW  HW  HW  EP  OW  
HW  HW  EP  OW  HW  HW  EP  OW  HW  HW  EP  OW  HW  HW  EP  OW  HW  HW  EP  OW  
HW  HW  EP  OW  HW  HW  EP  OW  HW  HW  EP  OW  HW  HW  EP  OW  HW  HW  EP  OW  
HW  HW  EP  OW  HW  HW  EP  OW  HW  HW  EP  OW  HW  HW  EP  OW  HW  HW  EP  OW  
HW  HW  EP  OW  HW  HW  EP  OW  HW  HW  EP  OW  HW  HW  EP  OW  HW  HW  EP  OW  
HW  HW  EP  OW  HW  HW  EP  OW  HW  HW  EP  OW  HW  HW  EP  OW  HW  HW  EP  OW  
HW  HW  EP  OW  HW  HW  EP  OW  HW  HW  EP  OW  HW  HW  EP  OW  HW  HW  EP  OW  
HW  HW  EP  OW  HW  HW  EP  OW  HW  HW  EP  OW  HW  HW  EP  OW  HW  HW  EP  OW  
HW  HW  EP  OW  HW  HW  EP  OW  HW  HW  EP  OW  HW  HW  EP  OW  HW  HW  EP  OW  
HW  HW  EP  OW  HW  HW  EP  OW  HW  HW  EP  OW  HW  HW  EP  OW  HW  HW  EP  OW  
HW  HW  EP  OW  HW  HW  EP  OW  HW  HW  EP  OW  HW  HW  EP  OW  HW  HW  EP  OW  
HW  HW  EP  OW  HW  HW  EP  OW  HW  HW  EP  OW  HW  HW  EP  OW  HW  HW  EP  OW  
HW  HW  EP  OW  HW  HW  EP  OW  HW  HW  EP  OW  HW  HW  EP  OW  HW  HW  EP  OW  
HW  HW  EP  OW  HW  HW  EP  OW  HW  HW  EP  OW  HW  HW  EP  OW  HW  HW  EP  OW  
HW  HW  EP  OW  HW  HW  EP  OW  HW  HW  EP  OW  HW  HW  EP  OW  HW  HW  EP  OW  
HW  HW  EP  OW  HW  HW  EP  OW  HW  HW  EP  OW  HW  HW  EP  OW  HW  HW  EP  OW  
HW  HW  EP  OW  HW  HW  EP  OW  HW  HW  EP  OW  HW  HW  EP  OW  HW  HW  EP  OW  
HW  HW  EP  OW  HW  HW  EP  OW  HW  HW  EP  OW  HW  HW  EP  OW  HW  HW  EP  OW  
HW  HW  EP  OW  HW  HW  EP  OW  HW  HW  EP  OW  HW  HW  EP  OW  HW  HW  EP  OW  
HW  HW  EP  OW  HW  HW  EP  OW  HW  HW  EP  OW  HW  HW  EP  OW  HW  HW  EP  OW  
HW  HW  EP  OW  HW  HW  EP  OW  HW  HW  EP  OW  HW  HW  EP  OW  HW  HW  EP  OW  
HW  HW  EP  OW  HW  HW  EP  OW  HW  HW  EP  OW  HW  HW  EP  OW  HW  HW  EP  OW  
HW  HW  EP  OW  HW  HW  EP  OW  HW  HW  EP  OW  HW  HW  EP  OW  HW  HW  EP  OW  
HW  HW  EP  OW  HW  HW  EP  OW  HW  HW  EP  OW  HW  HW  EP  OW  HW  HW  EP  OW  
HW  HW  EP  OW  HW  HW  EP  OW  HW  HW  EP  OW  HW  HW  EP  OW  HW  HW  EP  OW  
HW  HW  EP  OW  HW  HW  EP  OW  HW  HW  EP  OW  HW  HW  EP  OW  HW  HW  EP  OW  
HW  HW  EP  OW  HW  HW  EP  OW  HW  HW  EP  OW  HW  HW  EP  OW  HW  HW  EP  OW  
HW  HW  EP  OW  HW  HW  EP  OW  HW  HW  EP  OW  HW  HW  EP  OW  HW  HW  EP  OW  
HW  HW  EP  OW  HW  HW  EP  OW  HW  HW  EP  OW  HW  HW  EP  OW  HW  HW  EP  OW  
HW  HW  EP  OW  HW  HW  EP  OW  HW  HW  EP  OW  HW  HW  EP  OW  HW  HW  EP  OW  
HW  HW  EP  OW  HW  HW  EP  OW  HW  HW  EP  OW  HW  HW  EP  OW  HW  HW  EP  OW  
HW  HW  EP  OW  HW  HW  EP  OW  HW  HW  EP  OW  HW  HW  EP  OW  HW  HW  EP  OW  
HW  HW  EP  OW  HW  HW  EP  OW  HW  HW  EP  OW  HW  HW  EP  OW  HW  HW  EP  OW  
HW  HW  EP  OW  HW  HW  EP  OW  HW  HW  EP  OW  HW  HW  EP  OW  HW  HW  EP  OW  
HW  HW  EP  OW  HW  HW  EP  OW  HW  HW  EP  OW  HW  HW  EP  OW  HW  HW  EP  OW  
HW  HW  EP  OW  HW  HW  EP  OW  HW  HW  EP  OW  HW  HW  EP  OW  HW  HW  EP  OW  
HW  HW  EP  OW  HW  HW  EP  OW  HW  HW  EP  OW  HW  HW  EP  OW  HW  HW  EP  OW  
HW  HW  EP  OW  HW  HW  EP  OW  HW  HW  EP  OW  HW  HW  EP  OW  HW  HW  EP  OW  
HW  HW  EP  OW  HW  HW  EP  OW  HW  HW  EP  OW  HW  HW  EP  OW  HW  HW  EP  OW  
HW  HW  EP  OW  HW  HW  EP  OW  HW  HW  EP  OW  HW  HW  EP  OW  HW  HW  EP  OW  
HW  HW  EP  OW  HW  HW  EP  OW  HW  HW  EP  OW  HW  HW  EP  OW  HW  HW  EP  OW  
HW  HW  EP  OW  HW  HW  EP  OW  HW  HW  EP  OW  HW  HW  EP  OW  HW  HW  EP  OW  
HW  HW  EP  OW  HW  HW  EP  OW  HW  HW  EP  OW  HW  HW  EP  OW  HW  HW  EP  OW  
HW  HW  EP  OW  HW  HW  EP  OW  HW  HW  EP  OW  HW  HW  EP  OW  HW  HW  EP  OW  
HW  HW  EP  OW  HW  HW  EP  OW  HW  HW  EP  OW  HW  HW  EP  OW  HW  HW  EP  OW  
HW  HW  EP  OW  HW  HW  EP  OW  HW  HW  EP  OW  HW  HW  EP  OW  HW  HW  EP  OW  
HW  HW  EP  OW  HW  HW  EP  OW  HW  HW  EP  OW  HW  HW  EP  OW  HW  HW  EP  OW  
HW  HW  EP  OW  HW  HW  EP  OW  HW  HW  EP  OW  HW  HW  EP  OW  HW  HW  EP  OW  
HW  HW  EP  OW  HW  HW  EP  OW  HW  HW  EP  OW  HW  HW  EP  OW  HW  HW  EP  OW  
HW  HW  EP  OW  HW  HW  EP  OW  HW  HW  EP  OW  HW  HW  EP  OW  HW  HW  EP  OW  
HW  HW  EP  OW  HW  HW  EP  OW  HW  HW  EP  OW  HW  HW  EP  OW  HW  HW  EP  OW  
HW  HW  EP  OW  HW  HW  EP  OW  HW  HW  EP  OW  HW  HW  EP  OW  HW  HW  EP  OW  
HW  HW  EP  OW  HW  HW  EP  OW  HW  HW  EP  OW  HW  HW  EP  OW  HW  HW  EP  OW  
HW  HW  EP  OW  HW  HW  EP  OW  HW  HW  EP  OW  HW  HW  EP  OW  HW  HW  EP  OW  
HW  HW  EP  OW  HW  HW  EP  OW  HW  HW  EP  OW  HW  HW  EP  OW  HW  HW  EP  OW  
HW  HW  EP  OW  HW  HW  EP  OW  HW  HW  EP  OW  HW  HW  EP  OW  HW  HW  EP  OW  
HW  HW  EP  OW  HW  HW  EP  OW  HW  HW  EP  OW  HW  HW  EP  OW  HW  HW  EP  OW  
HW  HW  EP  OW  HW  HW  EP  OW  HW  HW  EP  OW  HW  HW  EP  OW  HW  HW  EP  OW  
HW  HW  EP  OW  HW  HW  EP  OW  HW  HW  EP  OW  HW  HW  EP  OW  HW  HW  EP  OW  
HW  HW  EP  OW  HW  HW  EP  OW  HW  HW  EP  OW  HW  HW  EP  OW  HW  HW  EP  OW  
HW  HW  EP  OW  HW  HW  EP  OW  HW  HW  EP  OW  HW  HW  EP  OW  HW  HW  EP  OW  
HW  HW  EP  OW  HW  HW  EP  OW  HW  HW  EP  OW  HW  HW  EP  OW  HW  HW  EP  OW  
HW  HW  EP  OW  HW  HW  EP  OW  HW  HW  EP  OW  HW  HW  EP  OW  HW  HW  EP  OW  
HW  HW  EP  OW  HW  HW  EP  OW  HW  HW  EP  OW  HW  HW  EP  OW  HW  HW  EP  OW  
HW  HW  EP  OW  HW  HW  EP  OW  HW  HW  EP  OW  HW  HW  EP  OW  HW  HW  EP  OW  
HW  HW  EP  OW  HW  HW  EP  OW  HW  HW  EP  OW  HW  HW  EP  OW  HW  HW  EP  OW  
HW  HW  EP  OW  HW  HW  EP  OW  HW  HW  EP  OW  HW  HW  EP  OW  HW  HW  EP  OW  
HW  HW  EP  OW  HW  HW  EP  OW  HW  HW  EP  OW  HW  HW  EP  OW  HW  HW  EP  OW  
HW  HW  EP  OW  HW  HW  EP  OW  HW  HW  EP  OW  HW  HW  EP  OW  HW  HW  EP  OW  
HW  HW  EP  OW  HW  HW  EP  OW  HW  HW  EP  OW  HW  HW  EP  OW  HW  HW  EP  OW  
HW  HW  EP  OW  HW  HW  EP  OW  HW  HW  EP  OW  HW  HW  EP  OW  HW  HW  EP  OW  
HW  HW  EP  OW  HW  HW  EP  OW  HW  HW  EP  OW  HW  HW  EP  OW  HW  HW  EP  OW  
HW  HW  EP  OW  HW  HW  EP  OW  HW  HW  EP  OW  HW  HW  EP  OW  HW  HW  EP  OW  
HW  HW  EP  OW  HW  HW  EP  OW  HW  HW  EP  OW  HW  HW  EP  OW  HW  HW  EP  OW  
HW  HW  EP  OW  HW  HW  EP  OW  HW  HW  EP  OW  HW  HW  EP  OW  HW  HW  EP  OW  
HW  HW  EP  OW  HW  HW  EP  OW  HW  HW  EP  OW  HW  HW  EP  OW  HW  HW  EP  OW  
HW  HW  EP  OW  HW  HW  EP  OW  HW  HW  EP  OW  HW  HW  EP  OW  HW  HW  EP  OW  
HW  HW  EP  OW  HW  HW  EP  OW  HW  HW  EP  OW  HW  HW  EP  OW  HW  HW  EP  OW  
HW  HW  EP  OW  HW  HW  EP  OW  HW  HW  EP  OW  HW  HW  EP  OW  HW  HW  EP  OW  
HW  HW  EP  OW  HW  HW  EP  OW  HW  HW  EP  OW  HW  HW  EP  OW  HW  HW  EP  OW  
HW  HW  EP  OW  HW  HW  EP  OW  HW  HW  EP  OW  HW  HW  EP  OW  HW  HW  EP  OW  
HW  HW  EP  OW  HW  HW  EP  OW  HW  HW  EP  OW  HW  HW  EP  OW  HW  HW  EP  OW  
HW  HW  EP  OW  HW  HW  EP  OW  HW  HW  EP  OW  HW  HW  EP  OW  HW  HW  EP  OW  
HW  HW  EP  OW  HW  HW  EP  OW  HW  HW  EP  OW  HW  HW  EP  OW  HW  HW  EP  OW  
HW  HW  EP  OW  HW  HW  EP  OW  HW  HW  EP  OW  HW  HW  EP  OW  HW  HW  EP  OW  
HW  HW  EP  OW  HW  HW  EP  OW  HW  HW  EP  OW  HW  HW  EP  OW  HW  HW  EP  OW  
HW  HW  EP  OW  HW  HW  EP  OW  HW  HW  EP  OW  HW  HW  EP  OW  HW  HW  EP  OW  
HW  HW  EP  OW  HW  HW  EP  OW  HW  HW  EP  OW  HW  HW  EP  OW  HW  HW  EP  OW  
HW  HW  EP  OW  HW  HW  EP  OW  HW  HW  EP  OW  HW  HW  EP  OW  HW  HW  EP  OW  
HW  HW  EP  OW  HW  HW  EP  OW  HW  HW  EP  OW  HW  HW  EP  OW  HW  HW  EP  OW  
HW  HW  EP  OW  HW  HW  EP  OW  HW  HW  EP  OW  HW  HW  EP  OW  HW  HW  EP  OW  
HW  HW  EP  OW  HW  HW  EP  OW  HW  HW  EP  OW  HW  HW  EP  OW  HW  HW  EP  OW  
HW  HW  EP  OW  HW  HW  EP  OW  HW  HW  EP  OW  HW  HW  EP  OW  HW  HW  EP  OW  
HW  HW  EP  OW  HW  HW  EP  OW  HW  HW  EP  OW  HW  HW  EP  OW  HW  HW  EP  OW  
HW  HW  EP  OW  HW  HW  EP  OW  HW  HW  EP  OW  HW  HW  EP  OW  HW  HW  EP  OW  
HW  HW  EP  OW  HW  HW  EP  OW  HW  HW  EP  OW  HW  HW  EP  OW  HW  HW  EP  OW  
HW  HW  EP  OW  HW  HW  EP  OW  HW  HW  EP  OW  HW  HW  EP  OW  HW  HW  EP  OW  
HW  HW  EP  OW  HW  HW  EP  OW  HW  HW  EP  OW  HW  HW  EP  OW  HW  HW  EP  OW  
HW  HW  EP  OW  HW  HW  EP  OW  HW  HW  EP  OW  HW  HW  EP  OW  HW  HW  EP  OW  
HW  HW  EP  OW  HW  HW  EP  OW  HW  HW  EP  OW  HW  HW  EP  OW  HW  HW  EP  OW  
HW  HW  EP  OW  HW  HW  EP  OW  HW  HW  EP  OW  HW  HW  EP  OW  HW  HW  EP  OW  
HW  HW  EP  OW  HW  HW  EP  OW  HW  HW  EP  OW  HW  HW  EP  OW  HW  HW  EP  OW  
HW  HW  EP  OW  HW  HW  EP  OW  HW  HW  EP  OW  HW  HW  EP  OW  HW  HW  EP  OW  
HW  HW  EP  OW  HW  HW  EP  OW  HW  HW  EP  OW  HW  HW  EP  OW  HW  HW  EP  OW  
HW  HW  EP  OW  HW  HW  EP  OW  HW  HW  EP  OW  HW  HW  EP  OW  HW  HW  EP  OW  
HW  HW  EP  OW  HW  HW  EP  OW  HW  HW  EP  OW  HW  HW  EP  OW  HW  HW  EP  OW  
HW  HW  EP  OW  HW  HW  EP  OW  HW  HW  EP  OW  HW  HW  EP  OW  HW  HW  EP  OW  
HW  HW  EP  OW  HW  HW  EP  OW  HW  HW  EP  OW  HW  HW  EP  OW  HW  HW  EP  OW  
HW  HW  EP  OW  HW  HW  EP  OW  HW  HW  EP  OW  HW  HW  EP  OW  HW  HW  EP  OW  
HW  HW  EP  OW  HW  HW  EP  OW  HW  HW  EP  OW  HW  HW  EP  OW  HW  HW  EP  OW  
HW  HW  EP  OW  HW  HW  EP  OW  HW  HW  EP  OW  HW  HW  EP  OW  HW  HW  EP  OW  
HW  HW  EP  OW  HW  HW  EP  OW  HW  HW  EP  OW  HW  HW  EP  OW  HW  HW  EP  OW  
HW  HW  EP  OW  HW  HW  EP  OW  HW  HW  EP  OW  HW  HW  EP  OW  HW  HW  EP  OW  
HW  HW  EP  OW  HW  HW  EP  OW  HW  HW  EP  OW  HW  HW  EP  OW  HW  HW  EP  OW  
HW  HW  EP  OW  HW  HW  EP  OW  HW  HW  EP  OW  HW  HW  EP  OW  HW  HW  EP  OW  
HW  HW  EP  OW  HW  HW  EP  OW  HW  HW  EP  OW  HW  HW  EP  OW  HW  HW  EP  OW  
HW  HW  EP  OW  HW  HW  EP  OW  HW  HW  EP  OW  HW  HW  EP  OW  HW  HW  EP  OW  
HW  HW  EP  OW  HW  HW  EP  OW  HW  HW  EP  OW  HW  HW  EP  OW  HW  HW  EP  OW  
HW  HW  EP  OW  HW  HW  EP  OW  HW  HW  EP  OW  HW  HW  EP  OW  HW  HW  EP  OW  
HW  HW  EP  OW  HW  HW  EP  OW  HW  HW  EP  OW  HW  HW  EP  OW  HW  HW  EP  OW  
HW  HW  EP  OW  HW  HW  EP  OW  HW  HW  EP  OW  HW  HW  EP  OW  HW  HW  EP  OW  
HW  HW  EP  OW  HW  HW  EP  OW  HW  HW  EP  OW  HW  HW  EP  OW  HW  HW  EP  OW  
HW  HW  EP  OW  HW  HW  EP  OW  HW  HW  EP  OW  HW  HW  EP  OW  HW  HW  EP  OW  
HW  HW  EP  OW  HW  HW  EP  OW  HW  HW  EP  OW  HW  HW  EP  OW  HW  HW  EP  OW  
HW  HW  EP  OW  HW  HW  EP  OW  HW  HW  EP  OW  HW  HW  EP  OW  HW  HW  EP  OW  
HW  HW  EP  OW  HW  HW  EP  OW  HW  HW  EP  OW  HW  HW  EP  OW  HW  HW  EP  OW  
HW  HW  EP  OW  HW  HW  EP  OW  HW  HW  EP  OW  HW  HW  EP  OW  HW  HW  EP  OW  
HW  HW  EP  OW  HW  HW  EP  OW  HW  HW  EP  OW  HW  HW  EP  OW  HW  HW  EP  OW  
HW  HW  EP  OW  HW  HW  EP  OW  HW  HW  EP  OW  HW  HW  EP  OW  HW  HW  EP  OW  
HW  HW  EP  OW  HW  HW  EP  OW  HW  HW  EP  OW  HW  HW  EP  OW  HW  HW  EP  OW  
HW  HW  EP  OW  HW  HW  EP  OW  HW  HW  EP  OW  HW  HW  EP  OW  HW  HW  EP  OW  
HW  HW  EP  OW  HW  HW  EP  OW  HW  HW  EP  OW  HW  HW  EP  OW  HW  HW  EP  OW  
HW  HW  EP  OW  HW  HW  EP  OW  HW  HW  EP  OW  HW  HW  EP  OW  HW  HW  EP  OW  
HW  HW  EP  OW  HW  HW  EP  OW  HW  HW  EP  OW  HW  HW  EP  OW  HW  HW  EP  OW  
HW  HW  EP  OW  HW  HW  EP  OW  HW  HW  EP  OW  HW  HW  EP  OW  HW  HW  EP  OW  
HW  HW  EP  OW  HW  HW  EP  OW  HW  HW  EP  OW  HW  HW  EP  OW  HW  HW  EP  OW  
HW  HW  EP  OW  HW  HW  EP  OW  HW  HW  EP  OW  HW  HW  EP  OW  HW  HW  EP  OW  
HW  HW  EP  OW  HW  HW  EP  OW  HW  HW  EP  OW  HW  HW  EP  OW  HW  HW  EP  OW  
HW  HW  EP  OW  HW  HW  EP  OW  HW  HW  EP  OW  HW  HW  EP  OW  HW  HW  EP  OW  
HW  HW  EP  OW  HW  HW  EP  OW  HW  HW  EP  OW  HW  HW  EP  OW  HW  HW  EP  OW  
HW  HW  EP  OW  HW  HW  EP  OW  HW  HW  EP  OW  HW  HW  EP  OW  HW  HW  EP  OW  
HW  HW  EP  OW  HW  HW  EP  OW  HW  HW  EP  OW  HW  HW  EP  OW  HW  HW  EP  OW  
HW  HW  EP  OW  HW  HW  EP  OW  HW  HW  EP  OW  HW  HW  EP  OW  HW  HW  EP  OW  
HW  HW  EP  OW  HW  HW  EP  OW  HW  HW  EP  OW  HW  HW  EP  OW  HW  HW  EP  OW  
HW  HW  EP  OW  HW  HW  EP  OW  HW  HW  EP  OW  HW  HW  EP  OW  HW  HW  EP  OW  
HW  HW  EP  OW  HW  HW  EP  OW  HW  HW  EP  OW  HW  HW  EP  OW  HW  HW  EP  OW  
HW  HW  EP  OW  HW  HW  EP  OW  HW  HW  EP  OW  HW  HW  EP  OW  HW  HW  EP  OW  
HW  HW  EP  OW  HW  HW  EP  OW  HW  HW  EP  OW  HW  HW  EP  OW  HW  HW  EP  OW  
HW  HW  EP  OW  HW  HW  EP  OW  HW  HW  EP  OW  HW  HW  EP  OW  HW  HW  EP  OW  
HW  HW  EP  OW  HW  HW  EP  OW  HW  HW  EP  OW  HW  HW  EP  OW  HW  HW  EP  OW  
HW  HW  EP  OW  HW  HW  EP  OW  HW  HW  EP  OW  HW  HW  EP  OW  HW  HW  EP  OW  
HW  HW  EP  OW  HW  HW  EP  OW  HW  HW  EP  OW  HW  HW  EP  OW  HW  HW  EP  OW  
HW  HW  EP  OW  HW  HW  EP  OW  HW  HW  EP  OW  HW  HW  EP  OW  HW  HW  EP  OW  
HW  HW  EP  OW  HW  HW  EP  OW  HW  HW  EP  OW  HW  HW  EP  OW  HW  HW  EP  OW  
HW  HW  EP  OW  HW  HW  EP  OW  HW  HW  EP  OW  HW  HW  EP  OW  HW  HW  EP  OW  
HW  HW  EP  OW  HW  HW  EP  OW  HW  HW  EP  OW  HW  HW  EP  OW  HW  HW  EP  OW  
HW  HW  EP  OW  HW  HW  EP  OW  HW  HW  EP  OW  HW  HW  EP  OW  HW  HW  EP  OW  
HW  HW  EP  OW  HW  HW  EP  OW  HW  HW  EP  OW  HW  HW  EP  OW  HW  HW  EP  OW  
HW  HW  EP  OW  HW  HW  EP  OW  HW  HW  EP  OW  HW  HW  EP  OW  HW  HW  EP  OW  
HW  HW  EP  OW  HW  HW  EP  OW  HW  HW  EP  OW  HW  HW  EP  OW  HW  HW  EP  OW  
HW  HW  EP  OW  HW  HW  EP  OW  HW  HW  EP  OW  HW  HW  EP  OW  HW  HW  EP  OW  
HW  HW  EP  OW  HW  HW  EP  OW  HW  HW  EP  OW  HW  HW  EP  OW  HW  HW  EP  OW  
HW  HW  EP  OW  HW  HW  EP  OW  HW  HW  EP  OW  HW  HW  EP  OW  HW  HW  EP  OW  
HW  HW  EP  OW  HW  HW  EP  OW  HW  HW  EP  OW  HW  HW  EP  OW  HW  HW  EP  OW  
HW  HW  EP  OW  HW  HW  EP  OW  HW  HW  EP  OW  HW  HW  EP  OW  HW  HW  EP  OW  
HW  HW  EP  OW  HW  HW  EP  OW  HW  HW  EP  OW  HW  HW  EP  OW  HW  HW  EP  OW  
HW  HW  EP  OW  HW  HW  EP  OW  HW  HW  EP  OW  HW  HW  EP  OW  HW  HW  EP  OW  
HW  HW  EP  OW  HW  HW  EP  OW  HW  HW  EP  OW  HW  HW  EP  OW  HW  HW  EP  OW  
HW  HW  EP  OW  HW  HW  EP  OW  HW  HW  EP  OW  HW  HW  EP  OW  HW  HW  EP  OW  
HW  HW  EP  OW  HW  HW  EP  OW  HW  HW  EP  OW  HW  HW  EP  OW  HW  HW  EP  OW  
HW  HW  EP  OW  HW  HW  EP  OW  HW  HW  EP  OW  HW  HW  EP  OW  HW  HW  EP  OW  
HW  HW  EP  OW  HW  HW  EP  OW  HW  HW  EP  OW  HW  HW  EP  OW  HW  HW  EP  OW  
HW  HW  EP  OW  HW  HW  EP  OW  HW  HW  EP  OW  HW  HW  EP  OW  HW  HW  EP  OW  
HW  HW  EP  OW  HW  HW  EP  OW  HW  HW  EP  OW  HW  HW  EP  OW  HW  HW  EP  OW  
HW  HW  EP  OW  HW  HW  EP  OW  HW  HW  EP  OW  HW  HW  EP  OW  HW  HW  EP  OW  
HW  HW  EP  OW  HW  HW  EP  OW  HW  HW  EP  OW  HW  HW  EP  OW  HW  HW  EP  OW  
HW  HW  EP  OW  HW  HW  EP  OW  HW  HW  EP  OW  HW  HW  EP  OW  HW  HW  EP  OW  
HW  HW  EP  OW  HW  HW  EP  OW  HW  HW  EP  OW  HW  HW  EP  OW  HW  HW  EP  OW  
HW  HW  EP  OW  HW  HW  EP  OW  HW  HW  EP  OW  HW  HW  EP  OW  HW  HW  EP  OW  
HW  HW  EP  OW  HW  HW  EP  OW  HW  HW  EP  OW  HW  HW  EP  OW  HW  HW  EP  OW  
HW  HW  EP  OW  HW  HW  EP  OW  HW  HW  EP  OW  HW  HW  EP  OW  HW  HW  EP  OW  
HW  HW  EP  OW  HW  HW  EP  OW  HW  HW  EP  OW  HW  HW  EP  OW  HW  HW  EP  OW  
HW  HW  EP  OW  HW  HW  EP  OW  HW  HW  EP  OW  HW  HW  EP  OW  HW  HW  EP  OW  
HW  HW  EP  OW  HW  HW  EP  OW  HW  HW  EP  OW  HW  HW  EP  OW  HW  HW  EP  OW  
HW  HW  EP  OW  HW  HW  EP  OW  HW  HW  EP  OW  HW  HW  EP  OW  HW  HW  EP  OW  
HW  HW  EP  OW  HW  HW  EP  OW  HW  HW  EP  OW  HW  HW  EP  OW  HW  HW  EP  OW  
HW  HW  EP  OW  HW  HW  EP  OW  HW  HW  EP  OW  HW  HW  EP  OW  HW  HW  EP  OW  
HW  HW  EP  OW  HW  HW  EP  OW  HW  HW  EP  OW  HW  HW  EP  OW  HW  HW  EP  OW  
HW  HW  EP  OW  HW  HW  EP  OW  HW  HW  EP  OW  HW  HW  EP  OW  HW  HW  EP  OW  
HW  HW  EP  OW  HW  HW  EP  OW  HW  HW  EP  OW  HW  HW  EP  OW  HW  HW  EP  OW  
HW  HW  EP  OW  HW  HW  EP  OW  HW  HW  EP  OW  HW  HW  EP  OW  HW  HW  EP  OW  
HW  HW  EP  OW  HW  HW  EP  OW  HW  HW  EP  OW  HW  HW  EP  OW  HW  HW  EP  OW  
HW  HW  EP  OW  HW  HW  EP  OW  HW  HW  EP  OW  HW  HW  EP  OW  HW  HW  EP  OW  
HW  HW  EP  OW  HW  HW  EP  OW  HW  HW  EP  OW  HW  HW  EP  OW  HW  HW  EP  OW  
HW  HW  EP  OW  HW  HW  EP  OW  HW  HW  EP  OW  HW  HW  EP  OW  HW  HW  EP  OW  
HW  HW  EP  OW  HW  HW  EP  OW  HW  HW  EP  OW  HW  HW  EP  OW  HW  HW  EP  OW  
HW  HW  EP  OW  HW  HW  EP  OW  HW  HW  EP  OW  HW  HW  EP  OW  HW  HW  EP  OW  
HW  HW  EP  OW  HW  HW  EP  OW  HW  HW  EP  OW  HW  HW  EP  OW  HW  HW  EP  OW  
HW  HW  EP  OW  HW  HW  EP  OW  HW  HW  EP  OW  HW  HW  EP  OW  HW  HW  EP  OW  
HW  HW  EP  OW  HW  HW  EP  OW  HW  HW  EP  OW  HW  HW  EP  OW  HW  HW  EP  OW  
HW  HW  EP  OW  HW  HW  EP  OW  HW  HW  EP  OW  HW  HW  EP  OW  HW  HW  EP  OW  
HW  HW  EP  OW  HW  HW  EP  OW  HW  HW  EP  OW  HW  HW  EP  OW  HW  HW  EP  OW  
HW  HW  EP  OW  HW  HW  EP  OW  HW  HW  EP  OW  HW  HW  EP  OW  HW  HW  EP  OW  
HW  HW  EP  OW  HW  HW  EP  OW  HW  HW  EP  OW  HW  HW  EP  OW  HW  HW  EP  OW  
HW  HW  EP  OW  HW  HW  EP  OW  HW  HW  EP  OW  HW  HW  EP  OW  HW  HW  EP  OW  
HW  HW  EP  OW  HW  HW  EP  OW  HW  HW  EP  OW  HW  HW  EP  OW  HW  HW  EP  OW  
HW  HW  EP  OW  HW  HW  EP  OW  HW  HW  EP  OW  HW  HW  EP  OW  HW  HW  EP  OW  
HW  HW  EP  OW  HW  HW  EP  OW  HW  HW  EP  OW  HW  HW  EP  OW  HW  HW  EP  OW  
HW  HW  EP  OW  HW  HW  EP  OW  HW  HW  EP  OW  HW  HW  EP  OW  HW  HW  EP  OW  
HW  HW  EP  OW  HW  HW  EP  OW  HW  HW  EP  OW  HW  HW  EP  OW  HW  HW  EP  OW  
HW  HW  EP  OW  HW  HW  EP  OW  HW  HW  EP  OW  HW  HW  EP  OW  HW  HW  EP  OW  
HW  HW  EP  OW  HW  HW  EP  OW  HW  HW  EP  OW  HW  HW  EP  OW  HW  HW  EP  OW  
HW  HW  EP  OW  HW  HW  EP  OW  HW  HW  EP  OW  HW  HW  EP  OW  HW  HW  EP  OW  
HW  HW  EP  OW  HW  HW  EP  OW  HW  HW  EP  OW  HW  HW  EP  OW  HW  HW  EP  OW  
HW  HW  EP  OW  HW  HW  EP  OW  HW  HW  EP  OW  HW  HW  EP  OW  HW  HW  EP  OW  
HW  HW  EP  OW  HW  HW  EP  OW  HW  HW  EP  OW  HW  HW  EP  OW  HW  HW  EP  OW  
HW  HW  EP  OW  HW  HW  EP  OW  HW  HW  EP  OW  HW  HW  EP  OW  HW  HW  EP  OW  
HW  HW  EP  OW  HW  HW  EP  OW  HW  HW  EP  OW  HW  HW  EP  OW  HW  HW  EP  OW  
HW  HW  EP  OW  HW  HW  EP  OW  HW  HW  EP  OW  HW  HW  EP  OW  HW  HW  EP  OW  
HW  HW  EP  OW  HW  HW  EP  OW  HW  HW  EP  OW  HW  HW  EP  OW  HW  HW  EP  OW  
HW  HW  EP  OW  HW  HW  EP  OW  HW  HW  EP  OW  HW  HW  EP  OW  HW  HW  EP  OW  
HW  HW  EP  OW  HW  HW  EP  OW  HW  HW  EP  OW  HW  HW  EP  OW  HW  HW  EP  OW  
HW  HW  EP  OW  HW  HW  EP  OW  HW  HW  EP  OW  HW  HW  EP  OW  HW  HW  EP  OW  
HW  HW  EP  OW  HW  HW  EP  OW  HW  HW  EP  OW  HW  HW  EP  OW  HW  HW  EP  OW  
HW  HW  EP  OW  HW  HW  EP  OW  HW  HW  EP  OW  HW  HW  EP  OW  HW  HW  EP  OW  
HW  HW  EP  OW  HW  HW  EP  OW  HW  HW  EP  OW  HW  HW  EP  OW  HW  HW  EP  OW  
HW  HW  EP  OW  HW  HW  EP  OW  HW  HW  EP  OW  HW  HW  EP  OW  HW  HW  EP  OW  
HW  HW  EP  OW  HW  HW  EP  OW  HW  HW  EP  OW  HW  HW  EP  OW  HW  HW  EP  OW  
HW  HW  EP  OW  HW  HW  EP  OW  HW  HW  EP  OW  HW  HW  EP  OW  HW  HW  EP  OW  
HW  HW  EP  OW  HW  HW  EP  OW  HW  HW  EP  OW  HW  HW  EP  OW  HW  HW  EP  OW  
HW  HW  EP  OW  HW  HW  EP  OW  HW  HW  EP  OW  HW  HW  EP  OW  HW  HW  EP  OW  
HW  HW  EP  OW  HW  HW  EP  OW  HW  HW  EP  OW  HW  HW  EP  OW  HW  HW  EP  OW  
HW  HW  EP  OW  HW  HW  EP  OW  HW  HW  EP  OW  HW  HW  EP  OW  HW  HW  EP  OW  
HW  HW  EP  OW  HW  HW  EP  OW  HW  HW  EP  OW  HW  HW  EP  OW  HW  HW  EP  OW  
HW  HW  EP  OW  HW  HW  EP  OW  HW  HW  EP  OW  HW  HW  EP  OW  HW  HW  EP  OW  
HW  HW  EP  OW  HW  HW  EP  OW  HW  HW  EP  OW  HW  HW  EP  OW  HW  HW  EP  OW  
HW  HW  EP  OW  HW  HW  EP  OW  HW  HW  EP  OW  HW  HW  EP  OW  HW  HW  EP  OW  
HW  HW  EP  OW  HW  HW  EP  OW  HW  HW  EP  OW  HW  HW  EP  OW  HW  HW  EP  OW  
HW  HW  EP  OW  HW  HW  EP  OW  HW  HW  EP  OW  HW  HW  EP  OW  HW  HW  EP  OW  
HW  HW  EP  OW  HW  HW  EP  OW  HW  HW  EP  OW  HW  HW  EP  OW  HW  HW  EP  OW  
HW  HW  EP  OW  HW  HW  EP  OW  HW  HW  EP  OW  HW  HW  EP  OW  HW  HW  EP  OW  
HW  HW  EP  OW  HW  HW  EP  OW  HW  HW  EP  OW  HW  HW  EP  OW  HW  HW  EP  OW  
HW  HW  EP  OW  HW  HW  EP  OW  HW  HW  EP  OW  HW  HW  EP  OW  HW  HW  EP  OW  
HW  HW  EP  OW  HW  HW  EP  OW  HW  HW  EP  OW  HW  HW  EP  OW  HW  HW  EP  OW  
HW  HW  EP  OW  HW  HW  EP  OW  HW  HW  EP  OW  HW  HW  EP  OW  HW  HW  EP  OW  
HW  HW  EP  OW  HW  HW  EP  OW  HW  HW  EP  OW  HW  HW  EP  OW  HW  HW  EP  OW  
HW  HW  EP  OW  HW  HW  EP  OW  HW  HW  EP  OW  HW  HW  EP  OW  HW  HW  EP  OW  
HW  HW  EP  OW  HW  HW  EP  OW  HW  HW  EP  OW  HW  HW  EP  OW  HW  HW  EP  OW  
HW  HW  EP  OW  HW  HW  EP  OW  HW  HW  EP  OW  HW  HW  EP  OW  HW  HW  EP  OW  
HW  HW  EP  OW  HW  HW  EP  OW  HW  HW  EP  OW  HW  HW  EP  OW  HW  HW  EP  OW  
HW  HW  EP  OW  HW  HW  EP  OW  HW  HW  EP  OW  HW  HW  EP  OW  HW  HW  EP  OW  
HW  HW  EP  OW  HW  HW  EP  OW  HW  HW  EP  OW  HW  HW  EP  OW  HW  HW  EP  OW  
HW  HW  EP  OW  HW  HW  EP  OW  HW  HW  EP  OW  HW  HW  EP  OW  HW  HW  EP  OW  
HW  HW  EP  OW  HW  HW  EP  OW  HW  HW  EP  OW  HW  HW  EP  OW  HW  HW  EP  OW  
HW  HW  EP  OW  HW  HW  EP  OW  HW  HW  EP  OW  HW  HW  EP  OW  HW  HW  EP  OW  
HW  HW  EP  OW  HW  HW  EP  OW  HW  HW  EP  OW  HW  HW  EP  OW  HW  HW  EP  OW  
HW  HW  EP  OW  HW  HW  EP  OW  HW  HW  EP  OW  HW  HW  EP  OW  HW  HW  EP  OW  
HW  HW  EP  OW  HW  HW  EP  OW  HW  HW  EP  OW  HW  HW  EP  OW  HW  HW  EP  OW  
HW  HW  EP  OW  HW  HW  EP  OW  HW  HW  EP  OW  HW  HW  EP  OW  HW  HW  EP  OW  
HW  HW  EP  OW  HW  HW  EP  OW  HW  HW  EP  OW  HW  HW  EP  OW  HW  HW  EP  OW  
HW  HW  EP  OW  HW  HW  EP  OW  HW  HW  EP  OW  HW  HW  EP  OW  HW  HW  EP  OW  
HW  HW  EP  OW  HW  HW  EP  OW  HW  HW  EP  OW  HW  HW  EP  OW  HW  HW  EP  OW  
HW  HW  EP  OW  HW  HW  EP  OW  HW  HW  EP  OW  HW  HW  EP  OW  HW  HW  EP  OW  
HW  HW  EP  OW  HW  HW  EP  OW  HW  HW  EP  OW  HW  HW  EP  OW  HW  HW  EP  OW  
HW  HW  EP  OW  HW  HW  EP  OW  HW  HW  EP  OW  HW  HW  EP  OW  HW  HW  EP  OW  
HW  HW  EP  OW  HW  HW  EP  OW  HW  HW  EP  OW  HW  HW  EP  OW  HW  HW  EP  OW  
HW  HW  EP  OW  HW  HW  EP  OW  HW  HW  EP  OW  HW  HW  EP  OW  HW  HW  EP  OW  
HW  HW  EP  OW  HW  HW  EP  OW  HW  HW  EP  OW  HW  HW  EP  OW  HW  HW  EP  OW  
HW  HW  EP  OW  HW  HW  EP  OW  HW  HW  EP  OW  HW  HW  EP  OW  HW  HW  EP  OW  
HW  HW  EP  OW  HW  HW  EP  OW  HW  HW  EP  OW  HW  HW  EP  OW  HW  HW  EP  OW  
HW  HW  EP  OW  HW  HW  EP  OW  HW  HW  EP  OW  HW  HW  EP  OW  HW  HW  EP  OW  
HW  HW  EP  OW  HW  HW  EP  OW  HW  HW  EP  OW  HW  HW  EP  OW  HW  HW  EP  OW  
HW  HW  EP  OW  HW  HW  EP  OW  HW  HW  EP  OW  HW  HW  EP  OW  HW  HW  EP  OW  
HW  HW  EP  OW  HW  HW  EP  OW  HW  HW  EP  OW  HW  HW  EP  OW  HW  HW  EP  OW  
HW  HW  EP  OW  HW  HW  EP  OW  HW  HW  EP  OW  HW  HW  EP  OW  HW  HW  EP  OW  
HW  HW  EP  OW  HW  HW  EP  OW  HW  HW  EP  OW  HW  HW  EP  OW  HW  HW  EP  OW  
HW  HW  EP  OW  HW  HW  EP  OW  HW  HW  EP  OW  HW  HW  EP  OW  HW  HW  EP  OW  
HW  HW  EP  OW  HW  HW  EP  OW  HW  HW  EP  OW  HW  HW  EP  OW  HW  HW  EP  OW  
HW  HW  EP  OW  HW  HW  EP  OW  HW  HW  EP  OW  HW  HW  EP  OW  HW  HW  EP  OW  
HW  HW  EP  OW  HW  HW  EP  OW  HW  HW  EP  OW  HW  HW  EP  OW  HW  HW  EP  OW  
HW  HW  EP  OW  HW  HW  EP  OW  HW  HW  EP  OW  HW  HW  EP  OW  HW  HW  EP  OW  
HW  HW  EP  OW  HW  HW  EP  OW  HW  HW  EP  OW  HW  HW  EP  OW  HW  HW  EP  OW  
HW  HW  EP  OW  HW  HW  EP  OW  HW  HW  EP  OW  HW  HW  EP  OW  HW  HW  EP  OW  
HW  HW  EP  OW  HW  HW  EP  OW  HW  HW  EP  OW  HW  HW  EP  OW  HW  HW  EP  OW  
HW  HW  EP  OW  HW  HW  EP  OW  HW  HW  EP  OW  HW  HW  EP  OW  HW  HW  EP  OW  
HW  HW  EP  OW  HW  HW  EP  OW  HW  HW  EP  OW  HW  HW  EP  OW  HW  HW  EP  OW  
HW  HW  EP  OW  HW  HW  EP  OW  HW  HW  EP  OW  HW  HW  EP  OW  HW  HW  EP  OW  
HW  HW  EP  OW  HW  HW  EP  OW  HW  HW  EP  OW  HW  HW  EP  OW  HW  HW  EP  OW  
HW  HW  EP  OW  HW  HW  EP  OW  HW  HW  EP  OW  HW  HW  EP  OW  HW  HW  EP  OW  
HW  HW  EP  OW  HW  HW  EP  OW  HW  HW  EP  OW  HW  HW  EP  OW  HW  HW  EP  OW  
HW  HW  EP  OW  HW  HW  EP  OW  HW  HW  EP  OW  HW  HW  EP  OW  HW  HW  EP  OW  
HW  HW  EP  OW  HW  HW  EP  OW  HW  HW  EP  OW  HW  HW  EP  OW  HW  HW  EP  OW  
HW  HW  EP  OW  HW  HW  EP  OW  HW  HW  EP  OW  HW  HW  EP  OW  HW  HW  EP  OW  
HW  HW  EP  OW  HW  HW  EP  OW  HW  HW  EP  OW  HW  HW  EP  OW  HW  HW  EP  OW  
HW  HW  EP  OW  HW  HW  EP  OW  HW  HW  EP  OW  HW  HW  EP  OW  HW  HW  EP  OW  
HW  HW  EP  OW  HW  HW  EP  OW  HW  HW  EP  OW  HW  HW  EP  OW  HW  HW  EP  OW  
HW  HW  EP  OW  HW  HW  EP  OW  HW  HW  EP  OW  HW  HW  EP  OW  HW  HW  EP  OW  
HW  HW  EP  OW  HW  HW  EP  OW  HW  HW  EP  OW  HW  HW  EP  OW  HW  HW  EP  OW  
HW  HW  EP  OW  HW  HW  EP  OW  HW  HW  EP  OW  HW  HW  EP  OW  HW  HW  EP  OW  
HW  HW  EP  OW  HW  HW  EP  OW  HW  HW  EP  OW  HW  HW  EP  OW  HW  HW  EP  OW  
HW  HW  EP  OW  HW  HW  EP  OW  HW  HW  EP  OW  HW  HW  EP  OW  HW  HW  EP  OW  
HW  HW  EP  OW  HW  HW  EP  OW  HW  HW  EP  OW  HW  HW  EP  OW  HW  HW  EP  OW  
HW  HW  EP  OW  HW  HW  EP  OW  HW  HW  EP  OW  HW  HW  EP  OW  HW  HW  EP  OW  
HW  HW  EP  OW  HW  HW  EP  OW  HW  HW  EP  OW  HW  HW  EP  OW  HW  HW  EP  OW  
HW  HW  EP  OW  HW  HW  EP  OW  HW  HW  EP  OW  HW  HW  EP  OW  HW  HW  EP  OW  
HW  HW  EP  OW  HW  HW  EP  OW  HW  HW  EP  OW  HW  HW  EP  OW  HW  HW  EP  OW  
HW  HW  EP  OW  HW  HW  EP  OW  HW  HW  EP  OW  HW  HW  EP  OW  HW  HW  EP  OW  
HW  HW  EP  OW  HW  HW  EP  OW  HW  HW  EP  OW  HW  HW  EP  OW  HW  HW  EP  OW  
HW  HW  EP  OW  HW  HW  EP  OW  HW  HW  EP  OW  HW  HW  EP  OW  HW  HW  EP  OW  
HW  HW  EP  OW  HW  HW  EP  OW  HW  HW  EP  OW  HW  HW  EP  OW  HW  HW  EP  OW  
HW  HW  EP  OW  HW  HW  EP  OW  HW  HW  EP  OW  HW  HW  EP  OW  HW  HW  EP  OW  
HW  HW  EP  OW  HW  HW  EP  OW  HW  HW  EP  OW  HW  HW  EP  OW  HW  HW  EP  OW  
HW  HW  EP  OW  HW  HW  EP  OW  HW  HW  EP  OW  HW  HW  EP  OW  HW  HW  EP  OW  
HW  HW  EP  OW  HW  HW  EP  OW  HW  HW  EP  OW  HW  HW  EP  OW  HW  HW  EP  OW  
HW  HW  EP  OW  HW  HW  EP  OW  HW  HW  EP  OW  HW  HW  EP  OW  HW  HW  EP  OW  
HW  HW  EP  OW  HW  HW  EP  OW  HW  HW  EP  OW  HW  HW  EP  OW  HW  HW  EP  OW  
HW  HW  EP  OW  HW  HW  EP  OW  HW  HW  EP  OW  HW  HW  EP  OW  HW  HW  EP  OW  
HW  HW  EP  OW  HW  HW  EP  OW  HW  HW  EP  OW  HW  HW  EP  OW  HW  HW  EP  OW  
HW  HW  EP  OW  HW  HW  EP  OW  HW  HW  EP  OW  HW  HW  EP  OW  HW  HW  EP  OW  
HW  HW  EP  OW  HW  HW  EP  OW  HW  HW  EP  OW  HW  HW  EP  OW  HW  HW  EP  OW  
HW  HW  EP  OW  HW  HW  EP  OW  HW  HW  EP  OW  HW  HW  EP  OW  HW  HW  EP  OW  
HW  HW  EP  OW  HW  HW  EP  OW  HW  HW  EP  OW  HW  HW  EP  OW  HW  HW  EP  OW  
HW  HW  EP  OW  HW  HW  EP  OW  HW  HW  EP  OW  HW  HW  EP  OW  HW  HW  EP  OW  
HW  HW  EP  OW  HW  HW  EP  OW  HW  HW  EP  OW  HW  HW  EP  OW  HW  HW  EP  OW  
HW  HW  EP  OW  HW  HW  EP  OW  HW  HW  EP  OW  HW  HW  EP  OW  HW  HW  EP  OW  
HW  HW  EP  OW  HW  HW  EP  OW  HW  HW  EP  OW  HW  HW  EP  OW  HW  HW  EP  OW  
HW  HW  EP  OW  HW  HW  EP  OW  HW  HW  EP  OW  HW  HW  EP  OW  HW  HW  EP  OW  
HW  HW  EP  OW  HW  HW  EP  OW  HW  HW  EP  OW  HW  HW  EP  OW  HW  HW  EP  OW  
HW  HW  EP  OW  HW  HW  EP  OW  HW  HW  EP  OW  HW  HW  EP  OW  HW  HW  EP  OW  
HW  HW  EP  OW  HW  HW  EP  OW  HW  HW  EP  OW  HW  HW  EP  OW  HW  HW  EP  OW  
HW  HW  EP  OW  HW  HW  EP  OW  HW  HW  EP  OW  HW  HW  EP  OW  HW  HW  EP  OW  
HW  HW  EP  OW  HW  HW  EP  OW  HW  HW  EP  OW  HW  HW  EP  OW  HW  HW  EP  OW  
HW  HW  EP  OW  HW  HW  EP  OW  HW  HW  EP  OW  HW  HW  EP  OW  HW  HW  EP  OW  
HW  HW  EP  OW  HW  HW  EP  OW  HW  HW  EP  OW  HW  HW  EP  OW  HW  HW  EP  OW  
HW  HW  EP  OW  HW  HW  EP  OW  HW  HW  EP  OW  HW  HW  EP  OW  HW  HW  EP  OW  
HW  HW  EP  OW  HW  HW  EP  OW  HW  HW  EP  OW  HW  HW  EP  OW  HW  HW  EP  OW  
HW  HW  EP  OW  HW  HW  EP  OW  HW  HW  EP  OW  HW  HW  EP  OW  HW  HW  EP  OW  
HW  HW  EP  OW  HW  HW  EP  OW  HW  HW  EP  OW  HW  HW  EP  OW  HW  HW  EP  OW  
HW  HW  EP  OW  HW  HW  EP  OW  HW  HW  EP  OW  HW  HW  EP  OW  HW  HW  EP  OW  
HW  HW  EP  OW  HW  HW  EP  OW  HW  HW  EP  OW  HW  HW  EP  OW  HW  HW  EP  OW  
HW  HW  EP  OW  HW  HW  EP  OW  HW  HW  EP  OW  HW  HW  EP  OW  HW  HW  EP  OW  
HW  HW  EP  OW  HW  HW  EP  OW  HW  HW  EP  OW  HW  HW  EP  OW  HW  HW  EP  OW  
HW  HW  EP  OW  HW  HW  EP  OW  HW  HW  EP  OW  HW  HW  EP  OW  HW  HW  EP  OW  
HW  HW  EP  OW  HW  HW  EP  OW  HW  HW  EP  OW  HW  HW  EP  OW  HW  HW  EP  OW  
HW  HW  EP  OW  HW  HW  EP  OW  HW  HW  EP  
%FLAG TREE_CHAIN_CLASSIFICATION                                                 
%FORMAT(20a4)                                                                   
M   M   E   E   M   E   M   E   M   E   3   E   E   B   B   E   B   E   S   B   
E   B   E   B   E   S   E   E   M   E   M   E   M   E   3   E   3   E   E   E   
3   E   E   E   M   E   M   E   M   E   3   E   3   E   E   E   S   E   M   E   
M   E   M   E   3   E   E   B   S   E   S   E   S   B   E   M   E   M   E   M   
E   3   E   E   3   E   E   3   E   E   B   E   B   B   E   E   B   E   E   M   
E   M   E   M   3   3   3   3   B   B   B   M   E   E   E   E   E   E   E   E   
E   E   E   E   E   E   M   E   M   E   3   E   E   E   M   E   M   E   M   E   
E   M   E   M   E   M   E   3   E   E   3   E   3   E   E   E   3   E   E   E   
M   E   M   E   M   3   3   B   M   E   E   E   E   E   E   E   E   M   E   M   
E   3   E   E   S   E   M   E   M   E   M   E   3   E   E   3   E   E   3   E   
E   B   E   B   B   E   E   B   E   E   M   E   M   E   M   E   3   E   E   S   
E   M   E   M   E   M   E   E   M   E   M   E   M   E   E   M   E   M   E   M   
E   3   E   3   E   E   E   3   E   E   E   M   E   M   E   M   E   3   E   3   
E   E   E   3   E   E   E   M   E   M   E   M   E   3   E   E   3   E   E   3   
E   E   3   E   E   3   E   E   E   M   E   M   E   M   E   3   E   E   B   E   
B   E   E   M   E   M   E   M   E   3   E   E   B   E   B   E   E   M   E   M   
E   M   E   3   E   E   B   B   E   B   E   B   E   S   E   S   E   M   E   M   
E   M   E   3   E   3   E   E   E   3   E   E   E   M   E   M   3   E   E   3   
E   E   B   E   E   M   E   M   E   M   E   M   E   3   E   3   E   E   E   S   
E   M   E   M   E   M   E   3   E   E   B   E   E   M   E   M   E   M   E   3   
E   3   E   E   E   3   E   E   E   M   E   M   E   M   E   E   M   E   M   3   
E   E   3   E   E   B   E   E   M   E   M   E   M   E   M   E   3   E   E   B   
B   E   B   E   B   E   S   E   S   E   M   E   M   E   M   E   3   E   E   E   
M   E   M   E   M   E   3   E   E   B   B   E   B   E   B   E   S   E   S   E   
M   E   M   E   E   M   M   M   M   M   M   M   M   M   M   M   M   M   M   M   
M   M   M   M   M   M   M   M   M   M   M   M   M   M   M   M   M   M   M   M   
M   M   M   M   M   M   M   M   S   E   E   M   S   E   E   M   S   E   E   M   
S   E   E   M   S   E   E   M   S   E   E   M   S   E   E   M   S   E   E   M   
S   E   E   M   S   E   E   M   S   E   E   M   S   E   E   M   S   E   E   M   
S   E   E   M   S   E   E   M   S   E   E   M   S   E   E   M   S   E   E   M   
S   E   E   M   S   E   E   M   S   E   E   M   S   E   E   M   S   E   E   M   
S   E   E   M   S   E   E   M   S   E   E   M   S   E   E   M   S   E   E   M   
S   E   E   M   S   E   E   M   S   E   E   M   S   E   E   M   S   E   E   M   
S   E   E   M   S   E   E   M   S   E   E   M   S   E   E   M   S   E   E   M   
S   E   E   M   S   E   E   M   S   E   E   M   S   E   E   M   S   E   E   M   
S   E   E   M   S   E   E   M   S   E   E   M   S   E   E   M   S   E   E   M   
S   E   E   M   S   E   E   M   S   E   E   M   S   E   E   M   S   E   E   M   
S   E   E   M   S   E   E   M   S   E   E   M   S   E   E   M   S   E   E   M   
S   E   E   M   S   E   E   M   S   E   E   M   S   E   E   M   S   E   E   M   
S   E   E   M   S   E   E   M   S   E   E   M   S   E   E   M   S   E   E   M   
S   E   E   M   S   E   E   M   S   E   E   M   S   E   E   M   S   E   E   M   
S   E   E   M   S   E   E   M   S   E   E   M   S   E   E   M   S   E   E   M   
S   E   E   M   S   E   E   M   S   E   E   M   S   E   E   M   S   E   E   M   
S   E   E   M   S   E   E   M   S   E   E   M   S   E   E   M   S   E   E   M   
S   E   E   M   S   E   E   M   S   E   E   M   S   E   E   M   S   E   E   M   
S   E   E   M   S   E   E   M   S   E   E   M   S   E   E   M   S   E   E   M   
S   E   E   M   S   E   E   M   S   E   E   M   S   E   E   M   S   E   E   M   
S   E   E   M   S   E   E   M   S   E   E   M   S   E   E   M   S   E   E   M   
S   E   E   M   S   E   E   M   S   E   E   M   S   E   E   M   S   E   E   M   
S   E   E   M   S   E   E   M   S   E   E   M   S   E   E   M   S   E   E   M   
S   E   E   M   S   E   E   M   S   E   E   M   S   E   E   M   S   E   E   M   
S   E   E   M   S   E   E   M   S   E   E   M   S   E   E   M   S   E   E   M   
S   E   E   M   S   E   E   M   S   E   E   M   S   E   E   M   S   E   E   M   
S   E   E   M   S   E   E   M   S   E   E   M   S   E   E   M   S   E   E   M   
S   E   E   M   S   E   E   M   S   E   E   M   S   E   E   M   S   E   E   M   
S   E   E   M   S   E   E   M   S   E   E   M   S   E   E   M   S   E   E   M   
S   E   E   M   S   E   E   M   S   E   E   M   S   E   E   M   S   E   E   M   
S   E   E   M   S   E   E   M   S   E   E   M   S   E   E   M   S   E   E   M   
S   E   E   M   S   E   E   M   S   E   E   M   S   E   E   M   S   E   E   M   
S   E   E   M   S   E   E   M   S   E   E   M   S   E   E   M   S   E   E   M   
S   E   E   M   S   E   E   M   S   E   E   M   S   E   E   M   S   E   E   M   
S   E   E   M   S   E   E   M   S   E   E   M   S   E   E   M   S   E   E   M   
S   E   E   M   S   E   E   M   S   E   E   M   S   E   E   M   S   E   E   M   
S   E   E   M   S   E   E   M   S   E   E   M   S   E   E   M   S   E   E   M   
S   E   E   M   S   E   E   M   S   E   E   M   S   E   E   M   S   E   E   M   
S   E   E   M   S   E   E   M   S   E   E   M   S   E   E   M   S   E   E   M   
S   E   E   M   S   E   E   M   S   E   E   M   S   E   E   M   S   E   E   M   
S   E   E   M   S   E   E   M   S   E   E   M   S   E   E   M   S   E   E   M   
S   E   E   M   S   E   E   M   S   E   E   M   S   E   E   M   S   E   E   M   
S   E   E   M   S   E   E   M   S   E   E   M   S   E   E   M   S   E   E   M   
S   E   E   M   S   E   E   M   S   E   E   M   S   E   E   M   S   E   E   M   
S   E   E   M   S   E   E   M   S   E   E   M   S   E   E   M   S   E   E   M   
S   E   E   M   S   E   E   M   S   E   E   M   S   E   E   M   S   E   E   M   
S   E   E   M   S   E   E   M   S   E   E   M   S   E   E   M   S   E   E   M   
S   E   E   M   S   E   E   M   S   E   E   M   S   E   E   M   S   E   E   M   
S   E   E   M   S   E   E   M   S   E   E   M   S   E   E   M   S   E   E   M   
S   E   E   M   S   E   E   M   S   E   E   M   S   E   E   M   S   E   E   M   
S   E   E   M   S   E   E   M   S   E   E   M   S   E   E   M   S   E   E   M   
S   E   E   M   S   E   E   M   S   E   E   M   S   E   E   M   S   E   E   M   
S   E   E   M   S   E   E   M   S   E   E   M   S   E   E   M   S   E   E   M   
S   E   E   M   S   E   E   M   S   E   E   M   S   E   E   M   S   E   E   M   
S   E   E   M   S   E   E   M   S   E   E   M   S   E   E   M   S   E   E   M   
S   E   E   M   S   E   E   M   S   E   E   M   S   E   E   M   S   E   E   M   
S   E   E   M   S   E   E   M   S   E   E   M   S   E   E   M   S   E   E   M   
S   E   E   M   S   E   E   M   S   E   E   M   S   E   E   M   S   E   E   M   
S   E   E   M   S   E   E   M   S   E   E   M   S   E   E   M   S   E   E   M   
S   E   E   M   S   E   E   M   S   E   E   M   S   E   E   M   S   E   E   M   
S   E   E   M   S   E   E   M   S   E   E   M   S   E   E   M   S   E   E   M   
S   E   E   M   S   E   E   M   S   E   E   M   S   E   E   M   S   E   E   M   
S   E   E   M   S   E   E   M   S   E   E   M   S   E   E   M   S   E   E   M   
S   E   E   M   S   E   E   M   S   E   E   M   S   E   E   M   S   E   E   M   
S   E   E   M   S   E   E   M   S   E   E   M   S   E   E   M   S   E   E   M   
S   E   E   M   S   E   E   M   S   E   E   M   S   E   E   M   S   E   E   M   
S   E   E   M   S   E   E   M   S   E   E   M   S   E   E   M   S   E   E   M   
S   E   E   M   S   E   E   M   S   E   E   M   S   E   E   M   S   E   E   M   
S   E   E   M   S   E   E   M   S   E   E   M   S   E   E   M   S   E   E   M   
S   E   E   M   S   E   E   M   S   E   E   M   S   E   E   M   S   E   E   M   
S   E   E   M   S   E   E   M   S   E   E   M   S   E   E   M   S   E   E   M   
S   E   E   M   S   E   E   M   S   E   E   M   S   E   E   M   S   E   E   M   
S   E   E   M   S   E   E   M   S   E   E   M   S   E   E   M   S   E   E   M   
S   E   E   M   S   E   E   M   S   E   E   M   S   E   E   M   S   E   E   M   
S   E   E   M   S   E   E   M   S   E   E   M   S   E   E   M   S   E   E   M   
S   E   E   M   S   E   E   M   S   E   E   M   S   E   E   M   S   E   E   M   
S   E   E   M   S   E   E   M   S   E   E   M   S   E   E   M   S   E   E   M   
S   E   E   M   S   E   E   M   S   E   E   M   S   E   E   M   S   E   E   M   
S   E   E   M   S   E   E   M   S   E   E   M   S   E   E   M   S   E   E   M   
S   E   E   M   S   E   E   M   S   E   E   M   S   E   E   M   S   E   E   M   
S   E   E   M   S   E   E   M   S   E   E   M   S   E   E   M   S   E   E   M   
S   E   E   M   S   E   E   M   S   E   E   M   S   E   E   M   S   E   E   M   
S   E   E   M   S   E   E   M   S   E   E   M   S   E   E   M   S   E   E   M   
S   E   E   M   S   E   E   M   S   E   E   M   S   E   E   M   S   E   E   M   
S   E   E   M   S   E   E   M   S   E   E   M   S   E   E   M   S   E   E   M   
S   E   E   M   S   E   E   M   S   E   E   M   S   E   E   M   S   E   E   M   
S   E   E   M   S   E   E   M   S   E   E   M   S   E   E   M   S   E   E   M   
S   E   E   M   S   E   E   M   S   E   E   M   S   E   E   M   S   E   E   M   
S   E   E   M   S   E   E   M   S   E   E   M   S   E   E   M   S   E   E   M   
S   E   E   M   S   E   E   M   S   E   E   M   S   E   E   M   S   E   E   M   
S   E   E   M   S   E   E   M   S   E   E   M   S   E   E   M   S   E   E   M   
S   E   E   M   S   E   E   M   S   E   E   M   S   E   E   M   S   E   E   M   
S   E   E   M   S   E   E   M   S   E   E   M   S   E   E   M   S   E   E   M   
S   E   E   M   S   E   E   M   S   E   E   M   S   E   E   M   S   E   E   M   
S   E   E   M   S   E   E   M   S   E   E   M   S   E   E   M   S   E   E   M   
S   E   E   M   S   E   E   M   S   E   E   M   S   E   E   M   S   E   E   M   
S   E   E   M   S   E   E   M   S   E   E   M   S   E   E   M   S   E   E   M   
S   E   E   M   S   E   E   M   S   E   E   M   S   E   E   M   S   E   E   M   
S   E   E   M   S   E   E   M   S   E   E   M   S   E   E   M   S   E   E   M   
S   E   E   M   S   E   E   M   S   E   E   M   S   E   E   M   S   E   E   M   
S   E   E   M   S   E   E   M   S   E   E   M   S   E   E   M   S   E   E   M   
S   E   E   M   S   E   E   M   S   E   E   M   S   E   E   M   S   E   E   M   
S   E   E   M   S   E   E   M   S   E   E   M   S   E   E   M   S   E   E   M   
S   E   E   M   S   E   E   M   S   E   E   M   S   E   E   M   S   E   E   M   
S   E   E   M   S   E   E   M   S   E   E   M   S   E   E   M   S   E   E   M   
S   E   E   M   S   E   E   M   S   E   E   M   S   E   E   M   S   E   E   M   
S   E   E   M   S   E   E   M   S   E   E   M   S   E   E   M   S   E   E   M   
S   E   E   M   S   E   E   M   S   E   E   M   S   E   E   M   S   E   E   M   
S   E   E   M   S   E   E   M   S   E   E   M   S   E   E   M   S   E   E   M   
S   E   E   M   S   E   E   M   S   E   E   M   S   E   E   M   S   E   E   M   
S   E   E   M   S   E   E   M   S   E   E   M   S   E   E   M   S   E   E   M   
S   E   E   M   S   E   E   M   S   E   E   M   S   E   E   M   S   E   E   M   
S   E   E   M   S   E   E   M   S   E   E   M   S   E   E   M   S   E   E   M   
S   E   E   M   S   E   E   M   S   E   E   M   S   E   E   M   S   E   E   M   
S   E   E   M   S   E   E   M   S   E   E   M   S   E   E   M   S   E   E   M   
S   E   E   M   S   E   E   M   S   E   E   M   S   E   E   M   S   E   E   M   
S   E   E   M   S   E   E   M   S   E   E   M   S   E   E   M   S   E   E   M   
S   E   E   M   S   E   E   M   S   E   E   M   S   E   E   M   S   E   E   M   
S   E   E   M   S   E   E   M   S   E   E   M   S   E   E   M   S   E   E   M   
S   E   E   M   S   E   E   M   S   E   E   M   S   E   E   M   S   E   E   M   
S   E   E   M   S   E   E   M   S   E   E   M   S   E   E   M   S   E   E   M   
S   E   E   M   S   E   E   M   S   E   E   M   S   E   E   M   S   E   E   M   
S   E   E   M   S   E   E   M   S   E   E   M   S   E   E   M   S   E   E   M   
S   E   E   M   S   E   E   M   S   E   E   M   S   E   E   M   S   E   E   M   
S   E   E   M   S   E   E   M   S   E   E   M   S   E   E   M   S   E   E   M   
S   E   E   M   S   E   E   M   S   E   E   M   S   E   E   M   S   E   E   M   
S   E   E   M   S   E   E   M   S   E   E   M   S   E   E   M   S   E   E   M   
S   E   E   M   S   E   E   M   S   E   E   M   S   E   E   M   S   E   E   M   
S   E   E   M   S   E   E   M   S   E   E   M   S   E   E   M   S   E   E   M   
S   E   E   M   S   E   E   M   S   E   E   M   S   E   E   M   S   E   E   M   
S   E   E   M   S   E   E   M   S   E   E   M   S   E   E   M   S   E   E   M   
S   E   E   M   S   E   E   M   S   E   E   M   S   E   E   M   S   E   E   M   
S   E   E   M   S   E   E   M   S   E   E   M   S   E   E   M   S   E   E   M   
S   E   E   M   S   E   E   M   S   E   E   M   S   E   E   M   S   E   E   M   
S   E   E   M   S   E   E   M   S   E   E   M   S   E   E   M   S   E   E   M   
S   E   E   M   S   E   E   M   S   E   E   M   S   E   E   M   S   E   E   M   
S   E   E   M   S   E   E   M   S   E   E   M   S   E   E   M   S   E   E   M   
S   E   E   M   S   E   E   M   S   E   E   M   S   E   E   M   S   E   E   M   
S   E   E   M   S   E   E   M   S   E   E   M   S   E   E   M   S   E   E   M   
S   E   E   M   S   E   E   M   S   E   E   M   S   E   E   M   S   E   E   M   
S   E   E   M   S   E   E   M   S   E   E   M   S   E   E   M   S   E   E   M   
S   E   E   M   S   E   E   M   S   E   E   M   S   E   E   M   S   E   E   M   
S   E   E   M   S   E   E   M   S   E   E   M   S   E   E   M   S   E   E   M   
S   E   E   M   S   E   E   M   S   E   E   M   S   E   E   M   S   E   E   M   
S   E   E   M   S   E   E   M   S   E   E   M   S   E   E   M   S   E   E   M   
S   E   E   M   S   E   E   M   S   E   E   M   S   E   E   M   S   E   E   M   
S   E   E   M   S   E   E   M   S   E   E   M   S   E   E   M   S   E   E   M   
S   E   E   M   S   E   E   M   S   E   E   M   S   E   E   M   S   E   E   M   
S   E   E   M   S   E   E   M   S   E   E   M   S   E   E   M   S   E   E   M   
S   E   E   M   S   E   E   M   S   E   E   M   S   E   E   M   S   E   E   M   
S   E   E   M   S   E   E   M   S   E   E   M   S   E   E   M   S   E   E   M   
S   E   E   M   S   E   E   M   S   E   E   M   S   E   E   M   S   E   E   M   
S   E   E   M   S   E   E   M   S   E   E   M   S   E   E   M   S   E   E   M   
S   E   E   M   S   E   E   M   S   E   E   M   S   E   E   M   S   E   E   M   
S   E   E   M   S   E   E   M   S   E   E   M   S   E   E   M   S   E   E   M   
S   E   E   M   S   E   E   M   S   E   E   M   S   E   E   M   S   E   E   M   
S   E   E   M   S   E   E   M   S   E   E   M   S   E   E   M   S   E   E   M   
S   E   E   M   S   E   E   M   S   E   E   M   S   E   E   M   S   E   E   M   
S   E   E   M   S   E   E   M   S   E   E   M   S   E   E   M   S   E   E   M   
S   E   E   M   S   E   E   M   S   E   E   M   S   E   E   M   S   E   E   M   
S   E   E   M   S   E   E   M   S   E   E   M   S   E   E   M   S   E   E   M   
S   E   E   M   S   E   E   M   S   E   E   M   S   E   E   M   S   E   E   M   
S   E   E   M   S   E   E   M   S   E   E   M   S   E   E   M   S   E   E   M   
S   E   E   M   S   E   E   M   S   E   E   M   S   E   E   M   S   E   E   M   
S   E   E   M   S   E   E   M   S   E   E   M   S   E   E   M   S   E   E   M   
S   E   E   M   S   E   E   M   S   E   E   M   S   E   E   M   S   E   E   M   
S   E   E   M   S   E   E   M   S   E   E   M   S   E   E   M   S   E   E   M   
S   E   E   M   S   E   E   M   S   E   E   M   S   E   E   M   S   E   E   M   
S   E   E   M   S   E   E   M   S   E   E   M   S   E   E   M   S   E   E   M   
S   E   E   M   S   E   E   M   S   E   E   M   S   E   E   M   S   E   E   M   
S   E   E   M   S   E   E   M   S   E   E   M   S   E   E   M   S   E   E   M   
S   E   E   M   S   E   E   M   S   E   E   M   S   E   E   M   S   E   E   M   
S   E   E   M   S   E   E   M   S   E   E   M   S   E   E   M   S   E   E   M   
S   E   E   M   S   E   E   M   S   E   E   M   S   E   E   M   S   E   E   M   
S   E   E   M   S   E   E   M   S   E   E   M   S   E   E   M   S   E   E   M   
S   E   E   M   S   E   E   M   S   E   E   M   S   E   E   M   S   E   E   M   
S   E   E   M   S   E   E   M   S   E   E   M   S   E   E   M   S   E   E   M   
S   E   E   M   S   E   E   M   S   E   E   M   S   E   E   M   S   E   E   M   
S   E   E   M   S   E   E   M   S   E   E   M   S   E   E   M   S   E   E   M   
S   E   E   M   S   E   E   M   S   E   E   M   S   E   E   M   S   E   E   M   
S   E   E   M   S   E   E   M   S   E   E   M   S   E   E   M   S   E   E   M   
S   E   E   M   S   E   E   M   S   E   E   M   S   E   E   M   S   E   E   M   
S   E   E   M   S   E   E   M   S   E   E   M   S   E   E   M   S   E   E   M   
S   E   E   M   S   E   E   M   S   E   E   M   S   E   E   M   S   E   E   M   
S   E   E   M   S   E   E   M   S   E   E   M   S   E   E   M   S   E   E   M   
S   E   E   M   S   E   E   M   S   E   E   M   S   E   E   M   S   E   E   M   
S   E   E   M   S   E   E   M   S   E   E   M   S   E   E   M   S   E   E   M   
S   E   E   M   S   E   E   M   S   E   E   M   S   E   E   M   S   E   E   M   
S   E   E   M   S   E   E   M   S   E   E   M   S   E   E   M   S   E   E   M   
S   E   E   M   S   E   E   M   S   E   E   M   S   E   E   M   S   E   E   M   
S   E   E   M   S   E   E   M   S   E   E   M   S   E   E   M   S   E   E   M   
S   E   E   M   S   E   E   M   S   E   E   M   S   E   E   M   S   E   E   M   
S   E   E   M   S   E   E   M   S   E   E   M   S   E   E   M   S   E   E   M   
S   E   E   M   S   E   E   M   S   E   E   M   S   E   E   M   S   E   E   M   
S   E   E   M   S   E   E   M   S   E   E   M   S   E   E   M   S   E   E   M   
S   E   E   M   S   E   E   M   S   E   E   M   S   E   E   M   S   E   E   M   
S   E   E   M   S   E   E   M   S   E   E   M   S   E   E   M   S   E   E   M   
S   E   E   M   S   E   E   M   S   E   E   M   S   E   E   M   S   E   E   M   
S   E   E   M   S   E   E   M   S   E   E   M   S   E   E   M   S   E   E   M   
S   E   E   M   S   E   E   M   S   E   E   M   S   E   E   M   S   E   E   M   
S   E   E   M   S   E   E   M   S   E   E   M   S   E   E   M   S   E   E   M   
S   E   E   M   S   E   E   M   S   E   E   M   S   E   E   M   S   E   E   M   
S   E   E   M   S   E   E   M   S   E   E   M   S   E   E   M   S   E   E   M   
S   E   E   M   S   E   E   M   S   E   E   M   S   E   E   M   S   E   E   M   
S   E   E   M   S   E   E   M   S   E   E   M   S   E   E   M   S   E   E   M   
S   E   E   M   S   E   E   M   S   E   E   M   S   E   E   M   S   E   E   M   
S   E   E   M   S   E   E   M   S   E   E   M   S   E   E   M   S   E   E   M   
S   E   E   M   S   E   E   M   S   E   E   M   S   E   E   M   S   E   E   M   
S   E   E   M   S   E   E   M   S   E   E   M   S   E   E   M   S   E   E   M   
S   E   E   M   S   E   E   M   S   E   E   M   S   E   E   M   S   E   E   M   
S   E   E   M   S   E   E   M   S   E   E   M   S   E   E   M   S   E   E   M   
S   E   E   M   S   E   E   M   S   E   E   M   S   E   E   M   S   E   E   M   
S   E   E   M   S   E   E   M   S   E   E   M   S   E   E   M   S   E   E   M   
S   E   E   M   S   E   E   M   S   E   E   M   S   E   E   M   S   E   E   M   
S   E   E   M   S   E   E   M   S   E   E   M   S   E   E   M   S   E   E   M   
S   E   E   M   S   E   E   M   S   E   E   M   S   E   E   M   S   E   E   M   
S   E   E   M   S   E   E   M   S   E   E   M   S   E   E   M   S   E   E   M   
S   E   E   M   S   E   E   M   S   E   E   M   S   E   E   M   S   E   E   M   
S   E   E   M   S   E   E   M   S   E   E   M   S   E   E   M   S   E   E   M   
S   E   E   M   S   E   E   M   S   E   E   M   S   E   E   M   S   E   E   M   
S   E   E   M   S   E   E   M   S   E   E   M   S   E   E   M   S   E   E   M   
S   E   E   M   S   E   E   M   S   E   E   M   S   E   E   M   S   E   E   M   
S   E   E   M   S   E   E   M   S   E   E   M   S   E   E   M   S   E   E   M   
S   E   E   M   S   E   E   M   S   E   E   M   S   E   E   M   S   E   E   M   
S   E   E   M   S   E   E   M   S   E   E   M   S   E   E   M   S   E   E   M   
S   E   E   M   S   E   E   M   S   E   E   M   S   E   E   M   S   E   E   M   
S   E   E   M   S   E   E   M   S   E   E   M   S   E   E   M   S   E   E   M   
S   E   E   M   S   E   E   M   S   E   E   M   S   E   E   M   S   E   E   M   
S   E   E   M   S   E   E   M   S   E   E   M   S   E   E   M   S   E   E   M   
S   E   E   M   S   E   E   M   S   E   E   M   S   E   E   M   S   E   E   M   
S   E   E   M   S   E   E   M   S   E   E   M   S   E   E   M   S   E   E   M   
S   E   E   M   S   E   E   M   S   E   E   M   S   E   E   M   S   E   E   M   
S   E   E   M   S   E   E   M   S   E   E   M   S   E   E   M   S   E   E   M   
S   E   E   M   S   E   E   M   S   E   E   M   S   E   E   M   S   E   E   M   
S   E   E   M   S   E   E   M   S   E   E   M   S   E   E   M   S   E   E   M   
S   E   E   M   S   E   E   M   S   E   E   M   S   E   E   M   S   E   E   M   
S   E   E   M   S   E   E   M   S   E   E   M   S   E   E   M   S   E   E   M   
S   E   E   M   S   E   E   M   S   E   E   M   S   E   E   M   S   E   E   M   
S   E   E   M   S   E   E   M   S   E   E   M   S   E   E   M   S   E   E   M   
S   E   E   M   S   E   E   M   S   E   E   M   S   E   E   M   S   E   E   M   
S   E   E   M   S   E   E   M   S   E   E   M   S   E   E   M   S   E   E   M   
S   E   E   M   S   E   E   M   S   E   E   M   S   E   E   M   S   E   E   M   
S   E   E   M   S   E   E   M   S   E   E   M   S   E   E   M   S   E   E   M   
S   E   E   M   S   E   E   M   S   E   E   M   S   E   E   M   S   E   E   M   
S   E   E   M   S   E   E   M   S   E   E   M   S   E   E   M   S   E   E   M   
S   E   E   M   S   E   E   M   S   E   E   M   S   E   E   M   S   E   E   M   
S   E   E   M   S   E   E   M   S   E   E   M   S   E   E   M   S   E   E   M   
S   E   E   M   S   E   E   M   S   E   E   M   S   E   E   M   S   E   E   M   
S   E   E   M   S   E   E   M   S   E   E   M   S   E   E   M   S   E   E   M   
S   E   E   M   S   E   E   M   S   E   E   M   S   E   E   M   S   E   E   M   
S   E   E   M   S   E   E   M   S   E   E   M   S   E   E   M   S   E   E   M   
S   E   E   M   S   E   E   M   S   E   E   M   S   E   E   M   S   E   E   M   
S   E   E   M   S   E   E   M   S   E   E   M   S   E   E   M   S   E   E   M   
S   E   E   M   S   E   E   M   S   E   E   M   S   E   E   M   S   E   E   M   
S   E   E   M   S   E   E   M   S   E   E   M   S   E   E   M   S   E   E   M   
S   E   E   M   S   E   E   M   S   E   E   M   S   E   E   M   S   E   E   M   
S   E   E   M   S   E   E   M   S   E   E   M   S   E   E   M   S   E   E   M   
S   E   E   M   S   E   E   M   S   E   E   M   S   E   E   M   S   E   E   M   
S   E   E   M   S   E   E   M   S   E   E   M   S   E   E   M   S   E   E   M   
S   E   E   M   S   E   E   M   S   E   E   M   S   E   E   M   S   E   E   M   
S   E   E   M   S   E   E   M   S   E   E   M   S   E   E   M   S   E   E   M   
S   E   E   M   S   E   E   M   S   E   E   M   S   E   E   M   S   E   E   M   
S   E   E   M   S   E   E   M   S   E   E   M   S   E   E   M   S   E   E   M   
S   E   E   M   S   E   E   M   S   E   E   M   S   E   E   M   S   E   E   M   
S   E   E   M   S   E   E   M   S   E   E   M   S   E   E   M   S   E   E   M   
S   E   E   M   S   E   E   M   S   E   E   M   S   E   E   M   S   E   E   M   
S   E   E   M   S   E   E   M   S   E   E   M   S   E   E   M   S   E   E   M   
S   E   E   M   S   E   E   M   S   E   E   M   S   E   E   M   S   E   E   M   
S   E   E   M   S   E   E   M   S   E   E   M   S   E   E   M   S   E   E   M   
S   E   E   M   S   E   E   M   S   E   E   M   S   E   E   M   S   E   E   M   
S   E   E   M   S   E   E   M   S   E   E   M   S   E   E   M   S   E   E   M   
S   E   E   M   S   E   E   M   S   E   E   M   S   E   E   M   S   E   E   M   
S   E   E   M   S   E   E   M   S   E   E   M   S   E   E   M   S   E   E   M   
S   E   E   M   S   E   E   M   S   E   E   M   S   E   E   M   S   E   E   M   
S   E   E   M   S   E   E   M   S   E   E   M   S   E   E   M   S   E   E   M   
S   E   E   M   S   E   E   M   S   E   E   M   S   E   E   M   S   E   E   M   
S   E   E   M   S   E   E   M   S   E   E   M   S   E   E   M   S   E   E   M   
S   E   E   M   S   E   E   M   S   E   E   M   S   E   E   M   S   E   E   M   
S   E   E   M   S   E   E   M   S   E   E   M   S   E   E   M   S   E   E   M   
S   E   E   M   S   E   E   M   S   E   E   M   S   E   E   M   S   E   E   M   
S   E   E   M   S   E   E   M   S   E   E   M   S   E   E   M   S   E   E   M   
S   E   E   M   S   E   E   M   S   E   E   M   S   E   E   M   S   E   E   M   
S   E   E   M   S   E   E   M   S   E   E   M   S   E   E   M   S   E   E   M   
S   E   E   M   S   E   E   M   S   E   E   M   S   E   E   M   S   E   E   M   
S   E   E   M   S   E   E   M   S   E   E   M   S   E   E   M   S   E   E   M   
S   E   E   M   S   E   E   M   S   E   E   M   S   E   E   M   S   E   E   M   
S   E   E   M   S   E   E   M   S   E   E   M   S   E   E   M   S   E   E   M   
S   E   E   M   S   E   E   M   S   E   E   M   S   E   E   M   S   E   E   M   
S   E   E   M   S   E   E   M   S   E   E   M   S   E   E   M   S   E   E   M   
S   E   E   M   S   E   E   M   S   E   E   M   S   E   E   M   S   E   E   M   
S   E   E   M   S   E   E   M   S   E   E   M   S   E   E   M   S   E   E   M   
S   E   E   M   S   E   E   M   S   E   E   M   S   E   E   M   S   E   E   M   
S   E   E   M   S   E   E   M   S   E   E   M   S   E   E   M   S   E   E   M   
S   E   E   M   S   E   E   M   S   E   E   M   S   E   E   M   S   E   E   M   
S   E   E   M   S   E   E   M   S   E   E   M   S   E   E   M   S   E   E   M   
S   E   E   M   S   E   E   M   S   E   E   M   S   E   E   M   S   E   E   M   
S   E   E   M   S   E   E   M   S   E   E   M   S   E   E   M   S   E   E   M   
S   E   E   M   S   E   E   M   S   E   E   M   S   E   E   M   S   E   E   M   
S   E   E   M   S   E   E   M   S   E   E   M   S   E   E   M   S   E   E   M   
S   E   E   M   S   E   E   M   S   E   E   M   S   E   E   M   S   E   E   M   
S   E   E   M   S   E   E   M   S   E   E   M   S   E   E   M   S   E   E   M   
S   E   E   M   S   E   E   M   S   E   E   M   S   E   E   M   S   E   E   M   
S   E   E   M   S   E   E   M   S   E   E   M   S   E   E   M   S   E   E   M   
S   E   E   M   S   E   E   M   S   E   E   M   S   E   E   M   S   E   E   M   
S   E   E   M   S   E   E   M   S   E   E   M   S   E   E   M   S   E   E   M   
S   E   E   M   S   E   E   M   S   E   E   M   S   E   E   M   S   E   E   M   
S   E   E   M   S   E   E   M   S   E   E   M   S   E   E   M   S   E   E   M   
S   E   E   M   S   E   E   M   S   E   E   M   S   E   E   M   S   E   E   M   
S   E   E   M   S   E   E   M   S   E   E   M   S   E   E   M   S   E   E   M   
S   E   E   M   S   E   E   M   S   E   E   M   S   E   E   M   S   E   E   M   
S   E   E   M   S   E   E   M   S   E   E   M   S   E   E   M   S   E   E   M   
S   E   E   M   S   E   E   M   S   E   E   M   S   E   E   M   S   E   E   M   
S   E   E   M   S   E   E   M   S   E   E   M   S   E   E   M   S   E   E   M   
S   E   E   M   S   E   E   M   S   E   E   M   S   E   E   M   S   E   E   M   
S   E   E   M   S   E   E   M   S   E   E   M   S   E   E   M   S   E   E   M   
S   E   E   M   S   E   E   M   S   E   E   M   S   E   E   M   S   E   E   M   
S   E   E   M   S   E   E   M   S   E   E   M   S   E   E   M   S   E   E   M   
S   E   E   M   S   E   E   M   S   E   E   M   S   E   E   M   S   E   E   M   
S   E   E   M   S   E   E   M   S   E   E   M   S   E   E   M   S   E   E   M   
S   E   E   M   S   E   E   M   S   E   E   M   S   E   E   M   S   E   E   M   
S   E   E   M   S   E   E   M   S   E   E   M   S   E   E   M   S   E   E   M   
S   E   E   M   S   E   E   M   S   E   E   M   S   E   E   M   S   E   E   M   
S   E   E   M   S   E   E   M   S   E   E   M   S   E   E   M   S   E   E   M   
S   E   E   M   S   E   E   M   S   E   E   M   S   E   E   M   S   E   E   M   
S   E   E   M   S   E   E   M   S   E   E   M   S   E   E   M   S   E   E   M   
S   E   E   M   S   E   E   M   S   E   E   M   S   E   E   M   S   E   E   M   
S   E   E   M   S   E   E   M   S   E   E   M   S   E   E   M   S   E   E   M   
S   E   E   M   S   E   E   M   S   E   E   M   S   E   E   M   S   E   E   M   
S   E   E   M   S   E   E   M   S   E   E   M   S   E   E   M   S   E   E   M   
S   E   E   M   S   E   E   M   S   E   E   M   S   E   E   M   S   E   E   M   
S   E   E   M   S   E   E   M   S   E   E   M   S   E   E   M   S   E   E   M   
S   E   E   M   S   E   E   M   S   E   E   M   S   E   E   M   S   E   E   M   
S   E   E   M   S   E   E   M   S   E   E   M   S   E   E   M   S   E   E   M   
S   E   E   M   S   E   E   M   S   E   E   M   S   E   E   M   S   E   E   M   
S   E   E   M   S   E   E   M   S   E   E   M   S   E   E   M   S   E   E   M   
S   E   E   M   S   E   E   M   S   E   E   M   S   E   E   M   S   E   E   M   
S   E   E   M   S   E   E   M   S   E   E   M   S   E   E   M   S   E   E   M   
S   E   E   M   S   E   E   M   S   E   E   M   S   E   E   M   S   E   E   M   
S   E   E   M   S   E   E   M   S   E   E   M   S   E   E   M   S   E   E   M   
S   E   E   M   S   E   E   M   S   E   E   M   S   E   E   M   S   E   E   M   
S   E   E   M   S   E   E   M   S   E   E   M   S   E   E   M   S   E   E   M   
S   E   E   M   S   E   E   M   S   E   E   M   S   E   E   M   S   E   E   M   
S   E   E   M   S   E   E   M   S   E   E   M   S   E   E   M   S   E   E   M   
S   E   E   M   S   E   E   M   S   E   E   M   S   E   E   M   S   E   E   M   
S   E   E   M   S   E   E   M   S   E   E   M   S   E   E   M   S   E   E   M   
S   E   E   M   S   E   E   M   S   E   E   M   S   E   E   M   S   E   E   M   
S   E   E   M   S   E   E   M   S   E   E   M   S   E   E   M   S   E   E   M   
S   E   E   M   S   E   E   M   S   E   E   M   S   E   E   M   S   E   E   M   
S   E   E   M   S   E   E   M   S   E   E   M   S   E   E   M   S   E   E   M   
S   E   E   M   S   E   E   M   S   E   E   M   S   E   E   M   S   E   E   M   
S   E   E   M   S   E   E   M   S   E   E   M   S   E   E   M   S   E   E   M   
S   E   E   M   S   E   E   M   S   E   E   M   S   E   E   M   S   E   E   M   
S   E   E   M   S   E   E   M   S   E   E   M   S   E   E   M   S   E   E   M   
S   E   E   M   S   E   E   M   S   E   E   M   S   E   E   M   S   E   E   M   
S   E   E   M   S   E   E   M   S   E   E   M   S   E   E   M   S   E   E   M   
S   E   E   M   S   E   E   M   S   E   E   M   S   E   E   M   S   E   E   M   
S   E   E   M   S   E   E   M   S   E   E   M   S   E   E   M   S   E   E   M   
S   E   E   M   S   E   E   M   S   E   E   M   S   E   E   M   S   E   E   M   
S   E   E   M   S   E   E   M   S   E   E   M   S   E   E   M   S   E   E   M   
S   E   E   M   S   E   E   M   S   E   E   M   S   E   E   M   S   E   E   M   
S   E   E   M   S   E   E   M   S   E   E   M   S   E   E   M   S   E   E   M   
S   E   E   M   S   E   E   M   S   E   E   M   S   E   E   M   S   E   E   M   
S   E   E   M   S   E   E   M   S   E   E   M   S   E   E   M   S   E   E   M   
S   E   E   M   S   E   E   M   S   E   E   M   S   E   E   M   S   E   E   M   
S   E   E   M   S   E   E   M   S   E   E   M   S   E   E   M   S   E   E   M   
S   E   E   M   S   E   E   M   S   E   E   M   S   E   E   M   S   E   E   M   
S   E   E   M   S   E   E   M   S   E   E   M   S   E   E   M   S   E   E   M   
S   E   E   M   S   E   E   M   S   E   E   M   S   E   E   M   S   E   E   M   
S   E   E   M   S   E   E   M   S   E   E   M   S   E   E   M   S   E   E   M   
S   E   E   M   S   E   E   M   S   E   E   M   S   E   E   M   S   E   E   M   
S   E   E   M   S   E   E   M   S   E   E   M   S   E   E   M   S   E   E   M   
S   E   E   M   S   E   E   M   S   E   E   M   S   E   E   M   S   E   E   M   
S   E   E   M   S   E   E   M   S   E   E   M   S   E   E   M   S   E   E   M   
S   E   E   M   S   E   E   M   S   E   E   M   S   E   E   M   S   E   E   M   
S   E   E   M   S   E   E   M   S   E   E   M   S   E   E   M   S   E   E   M   
S   E   E   M   S   E   E   M   S   E   E   M   S   E   E   M   S   E   E   M   
S   E   E   M   S   E   E   M   S   E   E   M   S   E   E   M   S   E   E   M   
S   E   E   M   S   E   E   M   S   E   E   M   S   E   E   M   S   E   E   M   
S   E   E   M   S   E   E   M   S   E   E   M   S   E   E   M   S   E   E   M   
S   E   E   M   S   E   E   M   S   E   E   M   S   E   E   M   S   E   E   M   
S   E   E   M   S   E   E   M   S   E   E   M   S   E   E   M   S   E   E   M   
S   E   E   M   S   E   E   M   S   E   E   M   S   E   E   M   S   E   E   M   
S   E   E   M   S   E   E   M   S   E   E   M   S   E   E   M   S   E   E   M   
S   E   E   M   S   E   E   M   S   E   E   M   S   E   E   M   S   E   E   M   
S   E   E   M   S   E   E   M   S   E   E   M   S   E   E   M   S   E   E   M   
S   E   E   M   S   E   E   M   S   E   E   M   S   E   E   M   S   E   E   M   
S   E   E   M   S   E   E   M   S   E   E   M   S   E   E   M   S   E   E   M   
S   E   E   M   S   E   E   M   S   E   E   M   S   E   E   M   S   E   E   M   
S   E   E   M   S   E   E   M   S   E   E   M   S   E   E   M   S   E   E   M   
S   E   E   M   S   E   E   M   S   E   E   M   S   E   E   M   S   E   E   M   
S   E   E   M   S   E   E   M   S   E   E   M   S   E   E   M   S   E   E   M   
S   E   E   M   S   E   E   M   S   E   E   M   S   E   E   M   S   E   E   M   
S   E   E   M   S   E   E   M   S   E   E   M   S   E   E   M   S   E   E   M   
S   E   E   M   S   E   E   M   S   E   E   M   S   E   E   M   S   E   E   M   
S   E   E   M   S   E   E   M   S   E   E   M   S   E   E   M   S   E   E   M   
S   E   E   M   S   E   E   M   S   E   E   M   S   E   E   M   S   E   E   M   
S   E   E   M   S   E   E   M   S   E   E   M   S   E   E   M   S   E   E   M   
S   E   E   M   S   E   E   M   S   E   E   M   S   E   E   M   S   E   E   M   
S   E   E   M   S   E   E   M   S   E   E   M   S   E   E   M   S   E   E   M   
S   E   E   M   S   E   E   M   S   E   E   M   S   E   E   M   S   E   E   M   
S   E   E   M   S   E   E   M   S   E   E   M   S   E   E   M   S   E   E   M   
S   E   E   M   S   E   E   M   S   E   E   M   S   E   E   M   S   E   E   M   
S   E   E   M   S   E   E   M   S   E   E   M   S   E   E   M   S   E   E   M   
S   E   E   M   S   E   E   M   S   E   E   M   S   E   E   M   S   E   E   M   
S   E   E   M   S   E   E   M   S   E   E   M   S   E   E   M   S   E   E   M   
S   E   E   M   S   E   E   M   S   E   E   M   S   E   E   M   S   E   E   M   
S   E   E   M   S   E   E   M   S   E   E   M   S   E   E   M   S   E   E   M   
S   E   E   M   S   E   E   M   S   E   E   M   S   E   E   M   S   E   E   M   
S   E   E   M   S   E   E   M   S   E   E   M   S   E   E   M   S   E   E   M   
S   E   E   M   S   E   E   M   S   E   E   M   S   E   E   M   S   E   E   M   
S   E   E   M   S   E   E   M   S   E   E   M   S   E   E   M   S   E   E   M   
S   E   E   M   S   E   E   M   S   E   E   M   S   E   E   M   S   E   E   M   
S   E   E   M   S   E   E   M   S   E   E   M   S   E   E   M   S   E   E   M   
S   E   E   M   S   E   E   M   S   E   E   M   S   E   E   M   S   E   E   M   
S   E   E   M   S   E   E   M   S   E   E   M   S   E   E   M   S   E   E   M   
S   E   E   M   S   E   E   M   S   E   E   M   S   E   E   M   S   E   E   M   
S   E   E   M   S   E   E   M   S   E   E   M   S   E   E   M   S   E   E   M   
S   E   E   M   S   E   E   M   S   E   E   M   S   E   E   M   S   E   E   M   
S   E   E   M   S   E   E   M   S   E   E   M   S   E   E   M   S   E   E   M   
S   E   E   M   S   E   E   M   S   E   E   M   S   E   E   M   S   E   E   M   
S   E   E   M   S   E   E   M   S   E   E   M   S   E   E   M   S   E   E   M   
S   E   E   M   S   E   E   M   S   E   E   M   S   E   E   M   S   E   E   M   
S   E   E   M   S   E   E   M   S   E   E   M   S   E   E   M   S   E   E   M   
S   E   E   M   S   E   E   M   S   E   E   M   S   E   E   M   S   E   E   M   
S   E   E   M   S   E   E   M   S   E   E   M   S   E   E   M   S   E   E   M   
S   E   E   M   S   E   E   M   S   E   E   M   S   E   E   M   S   E   E   M   
S   E   E   M   S   E   E   M   S   E   E   M   S   E   E   M   S   E   E   M   
S   E   E   M   S   E   E   M   S   E   E   M   S   E   E   M   S   E   E   M   
S   E   E   M   S   E   E   M   S   E   E   M   S   E   E   M   S   E   E   M   
S   E   E   M   S   E   E   M   S   E   E   M   S   E   E   M   S   E   E   M   
S   E   E   M   S   E   E   M   S   E   E   M   S   E   E   M   S   E   E   M   
S   E   E   M   S   E   E   M   S   E   E   M   S   E   E   M   S   E   E   M   
S   E   E   M   S   E   E   M   S   E   E   M   S   E   E   M   S   E   E   M   
S   E   E   M   S   E   E   M   S   E   E   M   S   E   E   M   S   E   E   M   
S   E   E   M   S   E   E   M   S   E   E   M   S   E   E   M   S   E   E   M   
S   E   E   M   S   E   E   M   S   E   E   M   S   E   E   M   S   E   E   M   
S   E   E   M   S   E   E   M   S   E   E   M   S   E   E   M   S   E   E   M   
S   E   E   M   S   E   E   M   S   E   E   M   S   E   E   M   S   E   E   M   
S   E   E   M   S   E   E   M   S   E   E   M   S   E   E   M   S   E   E   M   
S   E   E   M   S   E   E   M   S   E   E   M   S   E   E   M   S   E   E   M   
S   E   E   M   S   E   E   M   S   E   E   M   S   E   E   M   S   E   E   M   
S   E   E   M   S   E   E   M   S   E   E   M   S   E   E   M   S   E   E   M   
S   E   E   M   S   E   E   M   S   E   E   M   S   E   E   M   S   E   E   M   
S   E   E   M   S   E   E   M   S   E   E   M   S   E   E   M   S   E   E   M   
S   E   E   M   S   E   E   M   S   E   E   M   S   E   E   M   S   E   E   M   
S   E   E   M   S   E   E   M   S   E   E   M   S   E   E   M   S   E   E   M   
S   E   E   M   S   E   E   M   S   E   E   M   S   E   E   M   S   E   E   M   
S   E   E   M   S   E   E   M   S   E   E   M   S   E   E   M   S   E   E   M   
S   E   E   M   S   E   E   M   S   E   E   M   S   E   E   M   S   E   E   M   
S   E   E   M   S   E   E   M   S   E   E   M   S   E   E   M   S   E   E   M   
S   E   E   M   S   E   E   M   S   E   E   M   S   E   E   M   S   E   E   M   
S   E   E   M   S   E   E   M   S   E   E   M   S   E   E   M   S   E   E   M   
S   E   E   M   S   E   E   M   S   E   E   M   S   E   E   M   S   E   E   M   
S   E   E   M   S   E   E   M   S   E   E   M   S   E   E   M   S   E   E   M   
S   E   E   M   S   E   E   M   S   E   E   M   S   E   E   M   S   E   E   M   
S   E   E   M   S   E   E   M   S   E   E   M   S   E   E   M   S   E   E   M   
S   E   E   M   S   E   E   M   S   E   E   M   S   E   E   M   S   E   E   M   
S   E   E   M   S   E   E   M   S   E   E   M   S   E   E   M   S   E   E   M   
S   E   E   M   S   E   E   M   S   E   E   M   S   E   E   M   S   E   E   M   
S   E   E   M   S   E   E   M   S   E   E   M   S   E   E   M   S   E   E   M   
S   E   E   M   S   E   E   M   S   E   E   M   S   E   E   M   S   E   E   M   
S   E   E   M   S   E   E   M   S   E   E   M   S   E   E   M   S   E   E   M   
S   E   E   M   S   E   E   M   S   E   E   M   S   E   E   M   S   E   E   M   
S   E   E   M   S   E   E   M   S   E   E   M   S   E   E   M   S   E   E   M   
S   E   E   M   S   E   E   M   S   E   E   M   S   E   E   M   S   E   E   M   
S   E   E   M   S   E   E   M   S   E   E   M   S   E   E   M   S   E   E   M   
S   E   E   M   S   E   E   M   S   E   E   M   S   E   E   M   S   E   E   M   
S   E   E   M   S   E   E   M   S   E   E   M   S   E   E   M   S   E   E   M   
S   E   E   M   S   E   E   M   S   E   E   M   S   E   E   M   S   E   E   M   
S   E   E   M   S   E   E   M   S   E   E   M   S   E   E   M   S   E   E   M   
S   E   E   M   S   E   E   M   S   E   E   M   S   E   E   M   S   E   E   M   
S   E   E   M   S   E   E   M   S   E   E   M   S   E   E   M   S   E   E   M   
S   E   E   M   S   E   E   M   S   E   E   M   S   E   E   M   S   E   E   M   
S   E   E   M   S   E   E   M   S   E   E   M   S   E   E   M   S   E   E   M   
S   E   E   M   S   E   E   M   S   E   E   M   S   E   E   M   S   E   E   M   
S   E   E   M   S   E   E   M   S   E   E   M   S   E   E   M   S   E   E   M   
S   E   E   M   S   E   E   M   S   E   E   M   S   E   E   M   S   E   E   M   
S   E   E   M   S   E   E   M   S   E   E   M   S   E   E   M   S   E   E   M   
S   E   E   M   S   E   E   M   S   E   E   M   S   E   E   M   S   E   E   M   
S   E   E   M   S   E   E   M   S   E   E   M   S   E   E   M   S   E   E   M   
S   E   E   M   S   E   E   M   S   E   E   M   S   E   E   M   S   E   E   M   
S   E   E   M   S   E   E   M   S   E   E   M   S   E   E   M   S   E   E   M   
S   E   E   M   S   E   E   M   S   E   E   M   S   E   E   M   S   E   E   M   
S   E   E   M   S   E   E   M   S   E   E   M   S   E   E   M   S   E   E   M   
S   E   E   M   S   E   E   M   S   E   E   M   S   E   E   M   S   E   E   M   
S   E   E   M   S   E   E   M   S   E   E   M   S   E   E   M   S   E   E   M   
S   E   E   M   S   E   E   M   S   E   E   M   S   E   E   M   S   E   E   M   
S   E   E   M   S   E   E   M   S   E   E   M   S   E   E   M   S   E   E   M   
S   E   E   M   S   E   E   M   S   E   E   M   S   E   E   M   S   E   E   M   
S   E   E   M   S   E   E   M   S   E   E   M   S   E   E   M   S   E   E   M   
S   E   E   M   S   E   E   M   S   E   E   M   S   E   E   M   S   E   E   M   
S   E   E   M   S   E   E   M   S   E   E   M   S   E   E   M   S   E   E   M   
S   E   E   M   S   E   E   M   S   E   E   M   S   E   E   M   S   E   E   M   
S   E   E   M   S   E   E   M   S   E   E   M   S   E   E   M   S   E   E   M   
S   E   E   M   S   E   E   M   S   E   E   M   S   E   E   M   S   E   E   M   
S   E   E   M   S   E   E   M   S   E   E   M   S   E   E   M   S   E   E   M   
S   E   E   M   S   E   E   M   S   E   E   M   S   E   E   M   S   E   E   M   
S   E   E   M   S   E   E   M   S   E   E   M   S   E   E   M   S   E   E   M   
S   E   E   M   S   E   E   M   S   E   E   M   S   E   E   M   S   E   E   M   
S   E   E   M   S   E   E   M   S   E   E   M   S   E   E   M   S   E   E   M   
S   E   E   M   S   E   E   M   S   E   E   M   S   E   E   M   S   E   E   M   
S   E   E   M   S   E   E   M   S   E   E   M   S   E   E   M   S   E   E   M   
S   E   E   M   S   E   E   M   S   E   E   M   S   E   E   M   S   E   E   M   
S   E   E   M   S   E   E   M   S   E   E   M   S   E   E   M   S   E   E   M   
S   E   E   M   S   E   E   M   S   E   E   M   S   E   E   M   S   E   E   M   
S   E   E   M   S   E   E   M   S   E   E   M   S   E   E   M   S   E   E   M   
S   E   E   M   S   E   E   M   S   E   E   M   S   E   E   M   S   E   E   M   
S   E   E   M   S   E   E   M   S   E   E   M   S   E   E   M   S   E   E   M   
S   E   E   M   S   E   E   M   S   E   E   M   S   E   E   M   S   E   E   M   
S   E   E   M   S   E   E   M   S   E   E   M   S   E   E   M   S   E   E   M   
S   E   E   M   S   E   E   M   S   E   E   M   S   E   E   M   S   E   E   M   
S   E   E   M   S   E   E   M   S   E   E   M   S   E   E   M   S   E   E   M   
S   E   E   M   S   E   E   M   S   E   E   M   S   E   E   M   S   E   E   M   
S   E   E   M   S   E   E   M   S   E   E   M   S   E   E   M   S   E   E   M   
S   E   E   M   S   E   E   M   S   E   E   M   S   E   E   M   S   E   E   M   
S   E   E   M   S   E   E   M   S   E   E   M   S   E   E   M   S   E   E   M   
S   E   E   M   S   E   E   M   S   E   E   M   S   E   E   M   S   E   E   M   
S   E   E   M   S   E   E   M   S   E   E   M   S   E   E   M   S   E   E   M   
S   E   E   M   S   E   E   M   S   E   E   M   S   E   E   M   S   E   E   M   
S   E   E   M   S   E   E   M   S   E   E   M   S   E   E   M   S   E   E   M   
S   E   E   M   S   E   E   M   S   E   E   M   S   E   E   M   S   E   E   M   
S   E   E   M   S   E   E   M   S   E   E   M   S   E   E   M   S   E   E   M   
S   E   E   M   S   E   E   M   S   E   E   M   S   E   E   M   S   E   E   M   
S   E   E   M   S   E   E   M   S   E   E   M   S   E   E   M   S   E   E   M   
S   E   E   M   S   E   E   M   S   E   E   M   S   E   E   M   S   E   E   M   
S   E   E   M   S   E   E   M   S   E   E   M   S   E   E   M   S   E   E   M   
S   E   E   M   S   E   E   M   S   E   E   M   S   E   E   M   S   E   E   M   
S   E   E   M   S   E   E   M   S   E   E   M   S   E   E   M   S   E   E   M   
S   E   E   M   S   E   E   M   S   E   E   M   S   E   E   M   S   E   E   M   
S   E   E   M   S   E   E   M   S   E   E   M   S   E   E   M   S   E   E   M   
S   E   E   M   S   E   E   M   S   E   E   M   S   E   E   M   S   E   E   M   
S   E   E   M   S   E   E   M   S   E   E   M   S   E   E   M   S   E   E   M   
S   E   E   M   S   E   E   M   S   E   E   M   S   E   E   M   S   E   E   M   
S   E   E   M   S   E   E   M   S   E   E   M   S   E   E   M   S   E   E   M   
S   E   E   M   S   E   E   M   S   E   E   M   S   E   E   M   S   E   E   M   
S   E   E   M   S   E   E   M   S   E   E   M   S   E   E   M   S   E   E   M   
S   E   E   M   S   E   E   M   S   E   E   M   S   E   E   M   S   E   E   M   
S   E   E   M   S   E   E   M   S   E   E   M   S   E   E   M   S   E   E   M   
S   E   E   M   S   E   E   M   S   E   E   M   S   E   E   M   S   E   E   M   
S   E   E   M   S   E   E   M   S   E   E   M   S   E   E   M   S   E   E   M   
S   E   E   M   S   E   E   M   S   E   E   M   S   E   E   M   S   E   E   M   
S   E   E   M   S   E   E   M   S   E   E   M   S   E   E   M   S   E   E   M   
S   E   E   M   S   E   E   M   S   E   E   M   S   E   E   M   S   E   E   M   
S   E   E   M   S   E   E   M   S   E   E   M   S   E   E   M   S   E   E   M   
S   E   E   M   S   E   E   M   S   E   E   M   S   E   E   M   S   E   E   M   
S   E   E   M   S   E   E   M   S   E   E   M   S   E   E   M   S   E   E   M   
S   E   E   M   S   E   E   M   S   E   E   M   S   E   E   M   S   E   E   M   
S   E   E   M   S   E   E   M   S   E   E   M   S   E   E   M   S   E   E   M   
S   E   E   M   S   E   E   M   S   E   E   M   S   E   E   M   S   E   E   M   
S   E   E   M   S   E   E   M   S   E   E   M   S   E   E   M   S   E   E   M   
S   E   E   M   S   E   E   M   S   E   E   M   S   E   E   M   S   E   E   M   
S   E   E   M   S   E   E   M   S   E   E   M   S   E   E   M   S   E   E   M   
S   E   E   M   S   E   E   M   S   E   E   M   S   E   E   M   S   E   E   M   
S   E   E   M   S   E   E   M   S   E   E   M   S   E   E   M   S   E   E   M   
S   E   E   M   S   E   E   M   S   E   E   M   S   E   E   M   S   E   E   M   
S   E   E   M   S   E   E   M   S   E   E   M   S   E   E   M   S   E   E   M   
S   E   E   M   S   E   E   M   S   E   E   M   S   E   E   M   S   E   E   M   
S   E   E   M   S   E   E   M   S   E   E   M   S   E   E   M   S   E   E   M   
S   E   E   M   S   E   E   M   S   E   E   M   S   E   E   M   S   E   E   M   
S   E   E   M   S   E   E   M   S   E   E   M   S   E   E   M   S   E   E   M   
S   E   E   M   S   E   E   M   S   E   E   M   S   E   E   M   S   E   E   M   
S   E   E   M   S   E   E   M   S   E   E   M   S   E   E   M   S   E   E   M   
S   E   E   M   S   E   E   M   S   E   E   M   S   E   E   M   S   E   E   M   
S   E   E   M   S   E   E   M   S   E   E   M   S   E   E   M   S   E   E   M   
S   E   E   M   S   E   E   M   S   E   E   M   S   E   E   M   S   E   E   M   
S   E   E   M   S   E   E   M   S   E   E   M   S   E   E   M   S   E   E   M   
S   E   E   M   S   E   E   M   S   E   E   M   S   E   E   M   S   E   E   M   
S   E   E   M   S   E   E   M   S   E   E   M   S   E   E   M   S   E   E   M   
S   E   E   M   S   E   E   M   S   E   E   M   S   E   E   M   S   E   E   M   
S   E   E   M   S   E   E   M   S   E   E   M   S   E   E   M   S   E   E   M   
S   E   E   M   S   E   E   M   S   E   E   M   S   E   E   M   S   E   E   M   
S   E   E   M   S   E   E   M   S   E   E   M   S   E   E   M   S   E   E   M   
S   E   E   M   S   E   E   M   S   E   E   M   S   E   E   M   S   E   E   M   
S   E   E   M   S   E   E   M   S   E   E   M   S   E   E   M   S   E   E   M   
S   E   E   M   S   E   E   M   S   E   E   M   S   E   E   M   S   E   E   M   
S   E   E   M   S   E   E   M   S   E   E   M   S   E   E   M   S   E   E   M   
S   E   E   M   S   E   E   M   S   E   E   M   S   E   E   M   S   E   E   M   
S   E   E   M   S   E   E   M   S   E   E   M   S   E   E   M   S   E   E   M   
S   E   E   M   S   E   E   M   S   E   E   M   S   E   E   M   S   E   E   M   
S   E   E   M   S   E   E   M   S   E   E   M   S   E   E   M   S   E   E   M   
S   E   E   M   S   E   E   M   S   E   E   M   S   E   E   M   S   E   E   M   
S   E   E   M   S   E   E   M   S   E   E   M   S   E   E   M   S   E   E   M   
S   E   E   M   S   E   E   M   S   E   E   M   S   E   E   M   S   E   E   M   
S   E   E   M   S   E   E   M   S   E   E   M   S   E   E   M   S   E   E   M   
S   E   E   M   S   E   E   M   S   E   E   M   S   E   E   M   S   E   E   M   
S   E   E   M   S   E   E   M   S   E   E   M   S   E   E   M   S   E   E   M   
S   E   E   M   S   E   E   M   S   E   E   M   S   E   E   M   S   E   E   M   
S   E   E   M   S   E   E   M   S   E   E   M   S   E   E   M   S   E   E   M   
S   E   E   M   S   E   E   M   S   E   E   M   S   E   E   M   S   E   E   M   
S   E   E   M   S   E   E   M   S   E   E   M   S   E   E   M   S   E   E   M   
S   E   E   M   S   E   E   M   S   E   E   M   S   E   E   M   S   E   E   M   
S   E   E   M   S   E   E   M   S   E   E   M   S   E   E   M   S   E   E   M   
S   E   E   M   S   E   E   M   S   E   E   M   S   E   E   M   S   E   E   M   
S   E   E   M   S   E   E   M   S   E   E   M   S   E   E   M   S   E   E   M   
S   E   E   M   S   E   E   M   S   E   E   M   S   E   E   M   S   E   E   M   
S   E   E   M   S   E   E   M   S   E   E   M   S   E   E   M   S   E   E   M   
S   E   E   M   S   E   E   M   S   E   E   M   S   E   E   M   S   E   E   M   
S   E   E   M   S   E   E   M   S   E   E   M   S   E   E   M   S   E   E   M   
S   E   E   M   S   E   E   M   S   E   E   M   S   E   E   M   S   E   E   M   
S   E   E   M   S   E   E   M   S   E   E   M   S   E   E   M   S   E   E   M   
S   E   E   M   S   E   E   M   S   E   E   M   S   E   E   M   S   E   E   M   
S   E   E   M   S   E   E   M   S   E   E   M   S   E   E   M   S   E   E   M   
S   E   E   M   S   E   E   M   S   E   E   M   S   E   E   M   S   E   E   M   
S   E   E   M   S   E   E   M   S   E   E   M   S   E   E   M   S   E   E   M   
S   E   E   M   S   E   E   M   S   E   E   M   S   E   E   M   S   E   E   M   
S   E   E   M   S   E   E   M   S   E   E   M   S   E   E   M   S   E   E   M   
S   E   E   M   S   E   E   M   S   E   E   M   S   E   E   M   S   E   E   M   
S   E   E   M   S   E   E   M   S   E   E   M   S   E   E   M   S   E   E   M   
S   E   E   M   S   E   E   M   S   E   E   M   S   E   E   M   S   E   E   M   
S   E   E   M   S   E   E   M   S   E   E   M   S   E   E   M   S   E   E   M   
S   E   E   M   S   E   E   M   S   E   E   M   S   E   E   M   S   E   E   M   
S   E   E   M   S   E   E   M   S   E   E   M   S   E   E   M   S   E   E   M   
S   E   E   M   S   E   E   M   S   E   E   M   S   E   E   M   S   E   E   M   
S   E   E   M   S   E   E   M   S   E   E   M   S   E   E   M   S   E   E   M   
S   E   E   M   S   E   E   M   S   E   E   M   S   E   E   M   S   E   E   M   
S   E   E   M   S   E   E   M   S   E   E   M   S   E   E   M   S   E   E   M   
S   E   E   M   S   E   E   M   S   E   E   M   S   E   E   M   S   E   E   M   
S   E   E   M   S   E   E   M   S   E   E   M   S   E   E   M   S   E   E   M   
S   E   E   M   S   E   E   M   S   E   E   M   S   E   E   M   S   E   E   M   
S   E   E   M   S   E   E   M   S   E   E   M   S   E   E   M   S   E   E   M   
S   E   E   M   S   E   E   M   S   E   E   M   S   E   E   M   S   E   E   M   
S   E   E   M   S   E   E   M   S   E   E   M   S   E   E   M   S   E   E   M   
S   E   E   M   S   E   E   M   S   E   E   M   S   E   E   M   S   E   E   M   
S   E   E   M   S   E   E   M   S   E   E   M   S   E   E   M   S   E   E   M   
S   E   E   M   S   E   E   M   S   E   E   M   S   E   E   M   S   E   E   M   
S   E   E   M   S   E   E   M   S   E   E   M   S   E   E   M   S   E   E   M   
S   E   E   M   S   E   E   M   S   E   E   M   S   E   E   M   S   E   E   M   
S   E   E   M   S   E   E   M   S   E   E   M   S   E   E   M   S   E   E   M   
S   E   E   M   S   E   E   M   S   E   E   M   S   E   E   M   S   E   E   M   
S   E   E   M   S   E   E   M   S   E   E   M   S   E   E   M   S   E   E   M   
S   E   E   M   S   E   E   M   S   E   E   M   S   E   E   M   S   E   E   M   
S   E   E   M   S   E   E   M   S   E   E   M   S   E   E   M   S   E   E   M   
S   E   E   M   S   E   E   M   S   E   E   M   S   E   E   M   S   E   E   M   
S   E   E   M   S   E   E   M   S   E   E   M   S   E   E   M   S   E   E   M   
S   E   E   M   S   E   E   M   S   E   E   M   S   E   E   M   S   E   E   M   
S   E   E   M   S   E   E   M   S   E   E   M   S   E   E   M   S   E   E   M   
S   E   E   M   S   E   E   M   S   E   E   M   S   E   E   M   S   E   E   M   
S   E   E   M   S   E   E   M   S   E   E   M   S   E   E   M   S   E   E   M   
S   E   E   M   S   E   E   M   S   E   E   M   S   E   E   M   S   E   E   M   
S   E   E   M   S   E   E   M   S   E   E   M   S   E   E   M   S   E   E   M   
S   E   E   M   S   E   E   M   S   E   E   M   S   E   E   M   S   E   E   M   
S   E   E   M   S   E   E   M   S   E   E   M   S   E   E   M   S   E   E   M   
S   E   E   M   S   E   E   M   S   E   E   M   S   E   E   M   S   E   E   M   
S   E   E   M   S   E   E   M   S   E   E   M   S   E   E   M   S   E   E   M   
S   E   E   M   S   E   E   M   S   E   E   M   S   E   E   M   S   E   E   M   
S   E   E   M   S   E   E   M   S   E   E   M   S   E   E   M   S   E   E   M   
S   E   E   M   S   E   E   M   S   E   E   M   S   E   E   M   S   E   E   M   
S   E   E   M   S   E   E   M   S   E   E   M   S   E   E   M   S   E   E   M   
S   E   E   M   S   E   E   M   S   E   E   M   S   E   E   M   S   E   E   M   
S   E   E   M   S   E   E   M   S   E   E   M   S   E   E   M   S   E   E   M   
S   E   E   M   S   E   E   M   S   E   E   M   S   E   E   M   S   E   E   M   
S   E   E   M   S   E   E   M   S   E   E   M   S   E   E   M   S   E   E   M   
S   E   E   M   S   E   E   M   S   E   E   M   S   E   E   M   S   E   E   M   
S   E   E   M   S   E   E   M   S   E   E   M   S   E   E   M   S   E   E   M   
S   E   E   M   S   E   E   M   S   E   E   M   S   E   E   M   S   E   E   M   
S   E   E   M   S   E   E   M   S   E   E   M   S   E   E   M   S   E   E   M   
S   E   E   M   S   E   E   M   S   E   E   M   S   E   E   M   S   E   E   M   
S   E   E   M   S   E   E   M   S   E   E   M   S   E   E   M   S   E   E   M   
S   E   E   M   S   E   E   M   S   E   E   M   S   E   E   M   S   E   E   M   
S   E   E   M   S   E   E   M   S   E   E   M   S   E   E   M   S   E   E   M   
S   E   E   M   S   E   E   M   S   E   E   M   S   E   E   M   S   E   E   M   
S   E   E   M   S   E   E   M   S   E   E   M   S   E   E   M   S   E   E   M   
S   E   E   M   S   E   E   M   S   E   E   M   S   E   E   M   S   E   E   M   
S   E   E   M   S   E   E   M   S   E   E   M   S   E   E   M   S   E   E   M   
S   E   E   M   S   E   E   M   S   E   E   M   S   E   E   M   S   E   E   M   
S   E   E   M   S   E   E   M   S   E   E   M   S   E   E   M   S   E   E   M   
S   E   E   M   S   E   E   M   S   E   E   M   S   E   E   M   S   E   E   M   
S   E   E   M   S   E   E   M   S   E   E   M   S   E   E   M   S   E   E   M   
S   E   E   M   S   E   E   M   S   E   E   M   S   E   E   M   S   E   E   M   
S   E   E   M   S   E   E   M   S   E   E   M   S   E   E   M   S   E   E   M   
S   E   E   M   S   E   E   M   S   E   E   M   S   E   E   M   S   E   E   M   
S   E   E   M   S   E   E   M   S   E   E   M   S   E   E   M   S   E   E   M   
S   E   E   M   S   E   E   M   S   E   E   M   S   E   E   M   S   E   E   M   
S   E   E   M   S   E   E   M   S   E   E   M   S   E   E   M   S   E   E   M   
S   E   E   M   S   E   E   M   S   E   E   M   S   E   E   M   S   E   E   M   
S   E   E   M   S   E   E   M   S   E   E   M   S   E   E   M   S   E   E   M   
S   E   E   M   S   E   E   M   S   E   E   M   S   E   E   M   S   E   E   M   
S   E   E   M   S   E   E   M   S   E   E   M   S   E   E   M   S   E   E   M   
S   E   E   M   S   E   E   M   S   E   E   M   S   E   E   M   S   E   E   M   
S   E   E   M   S   E   E   M   S   E   E   M   S   E   E   M   S   E   E   M   
S   E   E   M   S   E   E   M   S   E   E   M   S   E   E   M   S   E   E   M   
S   E   E   M   S   E   E   M   S   E   E   M   S   E   E   M   S   E   E   M   
S   E   E   M   S   E   E   M   S   E   E   M   S   E   E   M   S   E   E   M   
S   E   E   M   S   E   E   M   S   E   E   M   S   E   E   M   S   E   E   M   
S   E   E   M   S   E   E   M   S   E   E   M   S   E   E   M   S   E   E   M   
S   E   E   M   S   E   E   M   S   E   E   M   S   E   E   M   S   E   E   M   
S   E   E   M   S   E   E   M   S   E   E   M   S   E   E   M   S   E   E   M   
S   E   E   M   S   E   E   M   S   E   E   M   S   E   E   M   S   E   E   M   
S   E   E   M   S   E   E   M   S   E   E   M   S   E   E   M   S   E   E   M   
S   E   E   M   S   E   E   M   S   E   E   M   S   E   E   M   S   E   E   M   
S   E   E   M   S   E   E   M   S   E   E   M   S   E   E   M   S   E   E   M   
S   E   E   M   S   E   E   M   S   E   E   M   S   E   E   M   S   E   E   M   
S   E   E   M   S   E   E   M   S   E   E   M   S   E   E   M   S   E   E   M   
S   E   E   M   S   E   E   M   S   E   E   M   S   E   E   M   S   E   E   M   
S   E   E   M   S   E   E   M   S   E   E   M   S   E   E   M   S   E   E   M   
S   E   E   M   S   E   E   M   S   E   E   M   S   E   E   M   S   E   E   M   
S   E   E   M   S   E   E   M   S   E   E   M   S   E   E   M   S   E   E   M   
S   E   E   M   S   E   E   M   S   E   E   M   S   E   E   M   S   E   E   M   
S   E   E   M   S   E   E   M   S   E   E   M   S   E   E   M   S   E   E   M   
S   E   E   M   S   E   E   M   S   E   E   M   S   E   E   M   S   E   E   M   
S   E   E   M   S   E   E   M   S   E   E   M   S   E   E   M   S   E   E   M   
S   E   E   M   S   E   E   M   S   E   E   M   S   E   E   M   S   E   E   M   
S   E   E   M   S   E   E   M   S   E   E   M   S   E   E   M   S   E   E   M   
S   E   E   M   S   E   E   M   S   E   E   M   S   E   E   M   S   E   E   M   
S   E   E   M   S   E   E   M   S   E   E   M   S   E   E   M   S   E   E   M   
S   E   E   M   S   E   E   M   S   E   E   M   S   E   E   M   S   E   E   M   
S   E   E   M   S   E   E   M   S   E   E   M   S   E   E   M   S   E   E   M   
S   E   E   M   S   E   E   M   S   E   E   M   S   E   E   M   S   E   E   M   
S   E   E   M   S   E   E   M   S   E   E   M   S   E   E   M   S   E   E   M   
S   E   E   M   S   E   E   M   S   E   E   M   S   E   E   M   S   E   E   M   
S   E   E   M   S   E   E   M   S   E   E   M   S   E   E   M   S   E   E   M   
S   E   E   M   S   E   E   M   S   E   E   M   S   E   E   M   S   E   E   M   
S   E   E   M   S   E   E   M   S   E   E   M   S   E   E   M   S   E   E   M   
S   E   E   M   S   E   E   M   S   E   E   M   S   E   E   M   S   E   E   M   
S   E   E   M   S   E   E   M   S   E   E   M   S   E   E   M   S   E   E   M   
S   E   E   M   S   E   E   M   S   E   E   M   S   E   E   M   S   E   E   M   
S   E   E   M   S   E   E   M   S   E   E   M   S   E   E   M   S   E   E   M   
S   E   E   M   S   E   E   M   S   E   E   M   S   E   E   M   S   E   E   M   
S   E   E   M   S   E   E   M   S   E   E   M   S   E   E   M   S   E   E   M   
S   E   E   M   S   E   E   M   S   E   E   M   S   E   E   M   S   E   E   M   
S   E   E   M   S   E   E   M   S   E   E   M   S   E   E   M   S   E   E   M   
S   E   E   M   S   E   E   M   S   E   E   M   S   E   E   M   S   E   E   M   
S   E   E   M   S   E   E   M   S   E   E   M   S   E   E   M   S   E   E   M   
S   E   E   M   S   E   E   M   S   E   E   M   S   E   E   M   S   E   E   M   
S   E   E   M   S   E   E   M   S   E   E   M   S   E   E   M   S   E   E   M   
S   E   E   M   S   E   E   M   S   E   E   M   S   E   E   M   S   E   E   M   
S   E   E   M   S   E   E   M   S   E   E   M   S   E   E   M   S   E   E   M   
S   E   E   M   S   E   E   M   S   E   E   M   S   E   E   M   S   E   E   M   
S   E   E   M   S   E   E   M   S   E   E   M   S   E   E   M   S   E   E   M   
S   E   E   M   S   E   E   M   S   E   E   M   S   E   E   M   S   E   E   M   
S   E   E   M   S   E   E   M   S   E   E   M   S   E   E   M   S   E   E   M   
S   E   E   M   S   E   E   M   S   E   E   M   S   E   E   M   S   E   E   M   
S   E   E   M   S   E   E   M   S   E   E   M   S   E   E   M   S   E   E   M   
S   E   E   M   S   E   E   M   S   E   E   M   S   E   E   M   S   E   E   M   
S   E   E   M   S   E   E   M   S   E   E   M   S   E   E   M   S   E   E   M   
S   E   E   M   S   E   E   M   S   E   E   M   S   E   E   M   S   E   E   M   
S   E   E   M   S   E   E   M   S   E   E   M   S   E   E   M   S   E   E   M   
S   E   E   M   S   E   E   M   S   E   E   M   S   E   E   M   S   E   E   M   
S   E   E   M   S   E   E   M   S   E   E   M   S   E   E   M   S   E   E   M   
S   E   E   M   S   E   E   M   S   E   E   M   S   E   E   M   S   E   E   M   
S   E   E   M   S   E   E   M   S   E   E   M   S   E   E   M   S   E   E   M   
S   E   E   M   S   E   E   M   S   E   E   M   S   E   E   M   S   E   E   M   
S   E   E   M   S   E   E   M   S   E   E   M   S   E   E   M   S   E   E   M   
S   E   E   M   S   E   E   M   S   E   E   M   S   E   E   M   S   E   E   M   
S   E   E   M   S   E   E   M   S   E   E   M   S   E   E   M   S   E   E   M   
S   E   E   M   S   E   E   M   S   E   E   M   S   E   E   M   S   E   E   M   
S   E   E   M   S   E   E   M   S   E   E   M   S   E   E   M   S   E   E   M   
S   E   E   M   S   E   E   M   S   E   E   M   S   E   E   M   S   E   E   M   
S   E   E   M   S   E   E   M   S   E   E   M   S   E   E   M   S   E   E   M   
S   E   E   M   S   E   E   M   S   E   E   M   S   E   E   M   S   E   E   M   
S   E   E   M   S   E   E   M   S   E   E   M   S   E   E   M   S   E   E   M   
S   E   E   M   S   E   E   M   S   E   E   M   S   E   E   M   S   E   E   M   
S   E   E   M   S   E   E   M   S   E   E   M   S   E   E   M   S   E   E   M   
S   E   E   M   S   E   E   M   S   E   E   M   S   E   E   M   S   E   E   M   
S   E   E   M   S   E   E   M   S   E   E   M   S   E   E   M   S   E   E   M   
S   E   E   M   S   E   E   M   S   E   E   M   S   E   E   M   S   E   E   M   
S   E   E   M   S   E   E   M   S   E   E   M   S   E   E   M   S   E   E   M   
S   E   E   M   S   E   E   M   S   E   E   M   S   E   E   M   S   E   E   M   
S   E   E   M   S   E   E   M   S   E   E   M   S   E   E   M   S   E   E   M   
S   E   E   M   S   E   E   M   S   E   E   M   S   E   E   M   S   E   E   M   
S   E   E   M   S   E   E   M   S   E   E   M   S   E   E   M   S   E   E   M   
S   E   E   M   S   E   E   M   S   E   E   M   S   E   E   M   S   E   E   M   
S   E   E   M   S   E   E   M   S   E   E   M   S   E   E   M   S   E   E   M   
S   E   E   M   S   E   E   M   S   E   E   M   S   E   E   M   S   E   E   M   
S   E   E   M   S   E   E   M   S   E   E   M   S   E   E   M   S   E   E   M   
S   E   E   M   S   E   E   M   S   E   E   M   S   E   E   M   S   E   E   M   
S   E   E   M   S   E   E   M   S   E   E   M   S   E   E   M   S   E   E   M   
S   E   E   M   S   E   E   M   S   E   E   M   S   E   E   M   S   E   E   M   
S   E   E   M   S   E   E   M   S   E   E   M   S   E   E   M   S   E   E   M   
S   E   E   M   S   E   E   M   S   E   E   M   S   E   E   M   S   E   E   M   
S   E   E   M   S   E   E   M   S   E   E   M   S   E   E   M   S   E   E   M   
S   E   E   M   S   E   E   M   S   E   E   M   S   E   E   M   S   E   E   M   
S   E   E   M   S   E   E   M   S   E   E   M   S   E   E   M   S   E   E   M   
S   E   E   M   S   E   E   M   S   E   E   M   S   E   E   M   S   E   E   M   
S   E   E   M   S   E   E   M   S   E   E   M   S   E   E   M   S   E   E   M   
S   E   E   M   S   E   E   M   S   E   E   M   S   E   E   M   S   E   E   M   
S   E   E   M   S   E   E   M   S   E   E   M   S   E   E   M   S   E   E   M   
S   E   E   M   S   E   E   M   S   E   E   M   S   E   E   M   S   E   E   M   
S   E   E   M   S   E   E   M   S   E   E   M   S   E   E   M   S   E   E   M   
S   E   E   M   S   E   E   M   S   E   E   M   S   E   E   M   S   E   E   M   
S   E   E   M   S   E   E   M   S   E   E   M   S   E   E   M   S   E   E   M   
S   E   E   M   S   E   E   M   S   E   E   M   S   E   E   M   S   E   E   M   
S   E   E   M   S   E   E   M   S   E   E   M   S   E   E   M   S   E   E   M   
S   E   E   M   S   E   E   M   S   E   E   M   S   E   E   M   S   E   E   M   
S   E   E   M   S   E   E   M   S   E   E   M   S   E   E   M   S   E   E   M   
S   E   E   M   S   E   E   M   S   E   E   M   S   E   E   M   S   E   E   M   
S   E   E   M   S   E   E   M   S   E   E   M   S   E   E   M   S   E   E   M   
S   E   E   M   S   E   E   M   S   E   E   M   S   E   E   M   S   E   E   M   
S   E   E   M   S   E   E   M   S   E   E   M   S   E   E   M   S   E   E   M   
S   E   E   M   S   E   E   M   S   E   E   M   S   E   E   M   S   E   E   M   
S   E   E   M   S   E   E   M   S   E   E   M   S   E   E   M   S   E   E   M   
S   E   E   M   S   E   E   M   S   E   E   M   S   E   E   M   S   E   E   M   
S   E   E   M   S   E   E   M   S   E   E   M   S   E   E   M   S   E   E   M   
S   E   E   M   S   E   E   M   S   E   E   M   S   E   E   M   S   E   E   M   
S   E   E   M   S   E   E   M   S   E   E   M   S   E   E   M   S   E   E   M   
S   E   E   M   S   E   E   M   S   E   E   M   S   E   E   M   S   E   E   M   
S   E   E   M   S   E   E   M   S   E   E   M   S   E   E   M   S   E   E   M   
S   E   E   M   S   E   E   M   S   E   E   M   S   E   E   M   S   E   E   M   
S   E   E   M   S   E   E   M   S   E   E   M   S   E   E   M   S   E   E   M   
S   E   E   M   S   E   E   M   S   E   E   M   S   E   E   M   S   E   E   M   
S   E   E   M   S   E   E   M   S   E   E   M   S   E   E   M   S   E   E   M   
S   E   E   M   S   E   E   M   S   E   E   M   S   E   E   M   S   E   E   M   
S   E   E   M   S   E   E   M   S   E   E   M   S   E   E   M   S   E   E   M   
S   E   E   M   S   E   E   M   S   E   E   M   S   E   E   M   S   E   E   M   
S   E   E   M   S   E   E   M   S   E   E   M   S   E   E   M   S   E   E   M   
S   E   E   M   S   E   E   M   S   E   E   M   S   E   E   M   S   E   E   M   
S   E   E   M   S   E   E   M   S   E   E   M   S   E   E   M   S   E   E   M   
S   E   E   M   S   E   E   M   S   E   E   M   S   E   E   M   S   E   E   M   
S   E   E   M   S   E   E   M   S   E   E   M   S   E   E   M   S   E   E   M   
S   E   E   M   S   E   E   M   S   E   E   M   S   E   E   M   S   E   E   M   
S   E   E   M   S   E   E   M   S   E   E   M   S   E   E   M   S   E   E   M   
S   E   E   M   S   E   E   M   S   E   E   M   S   E   E   M   S   E   E   M   
S   E   E   M   S   E   E   M   S   E   E   M   S   E   E   M   S   E   E   M   
S   E   E   M   S   E   E   M   S   E   E   M   S   E   E   M   S   E   E   M   
S   E   E   M   S   E   E   M   S   E   E   M   S   E   E   M   S   E   E   M   
S   E   E   M   S   E   E   M   S   E   E   M   S   E   E   M   S   E   E   M   
S   E   E   M   S   E   E   M   S   E   E   M   S   E   E   M   S   E   E   M   
S   E   E   M   S   E   E   M   S   E   E   M   S   E   E   M   S   E   E   M   
S   E   E   M   S   E   E   M   S   E   E   M   S   E   E   M   S   E   E   M   
S   E   E   M   S   E   E   M   S   E   E   M   S   E   E   M   S   E   E   M   
S   E   E   M   S   E   E   M   S   E   E   M   S   E   E   M   S   E   E   M   
S   E   E   M   S   E   E   M   S   E   E   M   S   E   E   M   S   E   E   M   
S   E   E   M   S   E   E   M   S   E   E   M   S   E   E   M   S   E   E   M   
S   E   E   M   S   E   E   M   S   E   E   M   S   E   E   M   S   E   E   M   
S   E   E   M   S   E   E   M   S   E   E   M   S   E   E   M   S   E   E   M   
S   E   E   M   S   E   E   M   S   E   E   M   S   E   E   M   S   E   E   M   
S   E   E   M   S   E   E   M   S   E   E   M   S   E   E   M   S   E   E   M   
S   E   E   M   S   E   E   M   S   E   E   M   S   E   E   M   S   E   E   M   
S   E   E   M   S   E   E   M   S   E   E   M   S   E   E   M   S   E   E   M   
S   E   E   M   S   E   E   M   S   E   E   M   S   E   E   M   S   E   E   M   
S   E   E   M   S   E   E   M   S   E   E   M   S   E   E   M   S   E   E   M   
S   E   E   M   S   E   E   M   S   E   E   M   S   E   E   M   S   E   E   M   
S   E   E   M   S   E   E   M   S   E   E   M   S   E   E   M   S   E   E   M   
S   E   E   M   S   E   E   M   S   E   E   M   S   E   E   M   S   E   E   M   
S   E   E   M   S   E   E   M   S   E   E   M   S   E   E   M   S   E   E   M   
S   E   E   M   S   E   E   M   S   E   E   M   S   E   E   M   S   E   E   M   
S   E   E   M   S   E   E   M   S   E   E   M   S   E   E   M   S   E   E   M   
S   E   E   M   S   E   E   M   S   E   E   M   S   E   E   M   S   E   E   M   
S   E   E   M   S   E   E   M   S   E   E   M   S   E   E   M   S   E   E   M   
S   E   E   M   S   E   E   M   S   E   E   M   S   E   E   M   S   E   E   M   
S   E   E   M   S   E   E   M   S   E   E   M   S   E   E   M   S   E   E   M   
S   E   E   M   S   E   E   M   S   E   E   M   S   E   E   M   S   E   E   M   
S   E   E   M   S   E   E   M   S   E   E   M   S   E   E   M   S   E   E   M   
S   E   E   M   S   E   E   M   S   E   E   M   S   E   E   M   S   E   E   M   
S   E   E   M   S   E   E   M   S   E   E   M   S   E   E   M   S   E   E   M   
S   E   E   M   S   E   E   M   S   E   E   M   S   E   E   M   S   E   E   M   
S   E   E   M   S   E   E   M   S   E   E   M   S   E   E   M   S   E   E   M   
S   E   E   M   S   E   E   M   S   E   E   M   S   E   E   M   S   E   E   M   
S   E   E   M   S   E   E   M   S   E   E   M   S   E   E   M   S   E   E   M   
S   E   E   M   S   E   E   M   S   E   E   M   S   E   E   M   S   E   E   M   
S   E   E   M   S   E   E   M   S   E   E   M   S   E   E   M   S   E   E   M   
S   E   E   M   S   E   E   M   S   E   E   M   S   E   E   M   S   E   E   M   
S   E   E   M   S   E   E   M   S   E   E   M   S   E   E   M   S   E   E   M   
S   E   E   M   S   E   E   M   S   E   E   M   S   E   E   M   S   E   E   M   
S   E   E   M   S   E   E   M   S   E   E   M   S   E   E   M   S   E   E   M   
S   E   E   M   S   E   E   M   S   E   E   M   S   E   E   M   S   E   E   M   
S   E   E   M   S   E   E   M   S   E   E   M   S   E   E   M   S   E   E   M   
S   E   E   M   S   E   E   M   S   E   E   M   S   E   E   M   S   E   E   M   
S   E   E   M   S   E   E   M   S   E   E   M   S   E   E   M   S   E   E   M   
S   E   E   M   S   E   E   M   S   E   E   M   S   E   E   M   S   E   E   M   
S   E   E   M   S   E   E   M   S   E   E   M   S   E   E   M   S   E   E   M   
S   E   E   M   S   E   E   M   S   E   E   M   S   E   E   M   S   E   E   M   
S   E   E   M   S   E   E   M   S   E   E   M   S   E   E   M   S   E   E   M   
S   E   E   M   S   E   E   M   S   E   E   M   S   E   E   M   S   E   E   M   
S   E   E   M   S   E   E   M   S   E   E   M   S   E   E   M   S   E   E   M   
S   E   E   M   S   E   E   M   S   E   E   M   S   E   E   M   S   E   E   M   
S   E   E   M   S   E   E   M   S   E   E   M   S   E   E   M   S   E   E   M   
S   E   E   M   S   E   E   M   S   E   E   M   S   E   E   M   S   E   E   M   
S   E   E   M   S   E   E   M   S   E   E   M   S   E   E   M   S   E   E   M   
S   E   E   M   S   E   E   M   S   E   E   M   S   E   E   M   S   E   E   M   
S   E   E   M   S   E   E   M   S   E   E   M   S   E   E   M   S   E   E   M   
S   E   E   M   S   E   E   M   S   E   E   M   S   E   E   M   S   E   E   M   
S   E   E   M   S   E   E   M   S   E   E   M   S   E   E   M   S   E   E   M   
S   E   E   M   S   E   E   M   S   E   E   M   S   E   E   M   S   E   E   M   
S   E   E   M   S   E   E   M   S   E   E   M   S   E   E   M   S   E   E   M   
S   E   E   M   S   E   E   M   S   E   E   M   S   E   E   M   S   E   E   M   
S   E   E   M   S   E   E   M   S   E   E   M   S   E   E   M   S   E   E   M   
S   E   E   M   S   E   E   M   S   E   E   M   S   E   E   M   S   E   E   M   
S   E   E   M   S   E   E   M   S   E   E   M   S   E   E   M   S   E   E   M   
S   E   E   M   S   E   E   M   S   E   E   M   S   E   E   M   S   E   E   M   
S   E   E   M   S   E   E   M   S   E   E   M   S   E   E   M   S   E   E   M   
S   E   E   M   S   E   E   M   S   E   E   M   S   E   E   M   S   E   E   M   
S   E   E   M   S   E   E   M   S   E   E   M   S   E   E   M   S   E   E   M   
S   E   E   M   S   E   E   M   S   E   E   M   S   E   E   M   S   E   E   M   
S   E   E   M   S   E   E   M   S   E   E   M   S   E   E   M   S   E   E   M   
S   E   E   M   S   E   E   M   S   E   E   M   S   E   E   M   S   E   E   M   
S   E   E   M   S   E   E   M   S   E   E   M   S   E   E   M   S   E   E   M   
S   E   E   M   S   E   E   M   S   E   E   M   S   E   E   M   S   E   E   M   
S   E   E   M   S   E   E   M   S   E   E   M   S   E   E   M   S   E   E   M   
S   E   E   M   S   E   E   M   S   E   E   M   S   E   E   M   S   E   E   M   
S   E   E   M   S   E   E   M   S   E   E   M   S   E   E   M   S   E   E   M   
S   E   E   M   S   E   E   M   S   E   E   M   S   E   E   M   S   E   E   M   
S   E   E   M   S   E   E   M   S   E   E   M   S   E   E   M   S   E   E   M   
S   E   E   M   S   E   E   M   S   E   E   M   S   E   E   M   S   E   E   M   
S   E   E   M   S   E   E   M   S   E   E   M   S   E   E   M   S   E   E   M   
S   E   E   M   S   E   E   M   S   E   E   M   S   E   E   M   S   E   E   M   
S   E   E   M   S   E   E   M   S   E   E   M   S   E   E   M   S   E   E   M   
S   E   E   M   S   E   E   M   S   E   E   M   S   E   E   M   S   E   E   M   
S   E   E   M   S   E   E   M   S   E   E   M   S   E   E   M   S   E   E   M   
S   E   E   M   S   E   E   M   S   E   E   M   S   E   E   M   S   E   E   M   
S   E   E   M   S   E   E   M   S   E   E   M   S   E   E   M   S   E   E   M   
S   E   E   M   S   E   E   M   S   E   E   M   S   E   E   M   S   E   E   M   
S   E   E   M   S   E   E   M   S   E   E   M   S   E   E   M   S   E   E   M   
S   E   E   M   S   E   E   M   S   E   E   M   S   E   E   M   S   E   E   M   
S   E   E   M   S   E   E   M   S   E   E   M   S   E   E   M   S   E   E   M   
S   E   E   M   S   E   E   M   S   E   E   M   S   E   E   M   S   E   E   M   
S   E   E   M   S   E   E   M   S   E   E   M   S   E   E   M   S   E   E   M   
S   E   E   M   S   E   E   M   S   E   E   M   S   E   E   M   S   E   E   M   
S   E   E   M   S   E   E   M   S   E   E   M   S   E   E   M   S   E   E   M   
S   E   E   M   S   E   E   M   S   E   E   M   S   E   E   M   S   E   E   M   
S   E   E   M   S   E   E   M   S   E   E   M   S   E   E   M   S   E   E   M   
S   E   E   M   S   E   E   M   S   E   E   M   S   E   E   M   S   E   E   M   
S   E   E   M   S   E   E   M   S   E   E   M   S   E   E   M   S   E   E   M   
S   E   E   M   S   E   E   M   S   E   E   M   S   E   E   M   S   E   E   M   
S   E   E   M   S   E   E   M   S   E   E   M   S   E   E   M   S   E   E   M   
S   E   E   M   S   E   E   M   S   E   E   M   S   E   E   M   S   E   E   M   
S   E   E   M   S   E   E   M   S   E   E   M   S   E   E   M   S   E   E   M   
S   E   E   M   S   E   E   M   S   E   E   M   S   E   E   M   S   E   E   M   
S   E   E   M   S   E   E   M   S   E   E   M   S   E   E   M   S   E   E   M   
S   E   E   M   S   E   E   M   S   E   E   M   S   E   E   M   S   E   E   M   
S   E   E   M   S   E   E   M   S   E   E   M   S   E   E   M   S   E   E   M   
S   E   E   M   S   E   E   M   S   E   E   M   S   E   E   M   S   E   E   M   
S   E   E   M   S   E   E   M   S   E   E   M   S   E   E   M   S   E   E   M   
S   E   E   M   S   E   E   M   S   E   E   M   S   E   E   M   S   E   E   M   
S   E   E   M   S   E   E   M   S   E   E   M   S   E   E   M   S   E   E   M   
S   E   E   M   S   E   E   M   S   E   E   M   S   E   E   M   S   E   E   M   
S   E   E   M   S   E   E   M   S   E   E   M   S   E   E   M   S   E   E   M   
S   E   E   M   S   E   E   M   S   E   E   M   S   E   E   M   S   E   E   M   
S   E   E   M   S   E   E   M   S   E   E   M   S   E   E   M   S   E   E   M   
S   E   E   M   S   E   E   M   S   E   E   M   S   E   E   M   S   E   E   M   
S   E   E   M   S   E   E   M   S   E   E   M   S   E   E   M   S   E   E   M   
S   E   E   M   S   E   E   M   S   E   E   M   S   E   E   M   S   E   E   M   
S   E   E   M   S   E   E   M   S   E   E   M   S   E   E   M   S   E   E   M   
S   E   E   M   S   E   E   M   S   E   E   M   S   E   E   M   S   E   E   M   
S   E   E   M   S   E   E   M   S   E   E   M   S   E   E   M   S   E   E   M   
S   E   E   M   S   E   E   M   S   E   E   M   S   E   E   M   S   E   E   M   
S   E   E   M   S   E   E   M   S   E   E   M   S   E   E   M   S   E   E   M   
S   E   E   M   S   E   E   M   S   E   E   M   S   E   E   M   S   E   E   M   
S   E   E   M   S   E   E   M   S   E   E   M   S   E   E   M   S   E   E   M   
S   E   E   M   S   E   E   M   S   E   E   M   S   E   E   M   S   E   E   M   
S   E   E   M   S   E   E   M   S   E   E   M   S   E   E   M   S   E   E   M   
S   E   E   M   S   E   E   M   S   E   E   M   S   E   E   M   S   E   E   M   
S   E   E   M   S   E   E   M   S   E   E   M   S   E   E   M   S   E   E   M   
S   E   E   M   S   E   E   M   S   E   E   M   S   E   E   M   S   E   E   M   
S   E   E   M   S   E   E   M   S   E   E   M   S   E   E   M   S   E   E   M   
S   E   E   M   S   E   E   M   S   E   E   M   S   E   E   M   S   E   E   M   
S   E   E   M   S   E   E   M   S   E   E   M   S   E   E   M   S   E   E   M   
S   E   E   M   S   E   E   M   S   E   E   M   S   E   E   M   S   E   E   M   
S   E   E   M   S   E   E   M   S   E   E   M   S   E   E   M   S   E   E   M   
S   E   E   M   S   E   E   M   S   E   E   M   S   E   E   M   S   E   E   M   
S   E   E   M   S   E   E   M   S   E   E   M   S   E   E   M   S   E   E   M   
S   E   E   M   S   E   E   M   S   E   E   M   S   E   E   M   S   E   E   M   
S   E   E   M   S   E   E   M   S   E   E   M   S   E   E   M   S   E   E   M   
S   E   E   M   S   E   E   M   S   E   E   M   S   E   E   M   S   E   E   M   
S   E   E   M   S   E   E   M   S   E   E   M   S   E   E   M   S   E   E   M   
S   E   E   M   S   E   E   M   S   E   E   M   S   E   E   M   S   E   E   M   
S   E   E   M   S   E   E   M   S   E   E   M   S   E   E   M   S   E   E   M   
S   E   E   M   S   E   E   M   S   E   E   M   S   E   E   M   S   E   E   M   
S   E   E   M   S   E   E   M   S   E   E   M   S   E   E   M   S   E   E   M   
S   E   E   M   S   E   E   M   S   E   E   M   S   E   E   M   S   E   E   M   
S   E   E   M   S   E   E   M   S   E   E   M   S   E   E   M   S   E   E   M   
S   E   E   M   S   E   E   M   S   E   E   M   S   E   E   M   S   E   E   M   
S   E   E   M   S   E   E   M   S   E   E   M   S   E   E   M   S   E   E   M   
S   E   E   M   S   E   E   M   S   E   E   M   S   E   E   M   S   E   E   M   
S   E   E   M   S   E   E   M   S   E   E   M   S   E   E   M   S   E   E   M   
S   E   E   M   S   E   E   M   S   E   E   M   S   E   E   M   S   E   E   M   
S   E   E   M   S   E   E   M   S   E   E   M   S   E   E   M   S   E   E   M   
S   E   E   M   S   E   E   M   S   E   E   M   S   E   E   M   S   E   E   M   
S   E   E   M   S   E   E   M   S   E   E   M   S   E   E   M   S   E   E   M   
S   E   E   M   S   E   E   M   S   E   E   M   S   E   E   M   S   E   E   M   
S   E   E   M   S   E   E   M   S   E   E   M   S   E   E   M   S   E   E   M   
S   E   E   M   S   E   E   M   S   E   E   M   S   E   E   M   S   E   E   M   
S   E   E   M   S   E   E   M   S   E   E   M   S   E   E   M   S   E   E   M   
S   E   E   M   S   E   E   M   S   E   E   M   S   E   E   M   S   E   E   M   
S   E   E   M   S   E   E   M   S   E   E   M   S   E   E   M   S   E   E   M   
S   E   E   M   S   E   E   M   S   E   E   M   S   E   E   M   S   E   E   M   
S   E   E   M   S   E   E   M   S   E   E   M   S   E   E   M   S   E   E   M   
S   E   E   M   S   E   E   M   S   E   E   M   S   E   E   M   S   E   E   M   
S   E   E   M   S   E   E   M   S   E   E   M   S   E   E   M   S   E   E   M   
S   E   E   M   S   E   E   M   S   E   E   M   S   E   E   M   S   E   E   M   
S   E   E   M   S   E   E   M   S   E   E   M   S   E   E   M   S   E   E   M   
S   E   E   M   S   E   E   M   S   E   E   M   S   E   E   M   S   E   E   M   
S   E   E   M   S   E   E   M   S   E   E   M   S   E   E   M   S   E   E   M   
S   E   E   M   S   E   E   M   S   E   E   M   S   E   E   M   S   E   E   M   
S   E   E   M   S   E   E   M   S   E   E   M   S   E   E   M   S   E   E   M   
S   E   E   M   S   E   E   M   S   E   E   M   S   E   E   M   S   E   E   M   
S   E   E   M   S   E   E   M   S   E   E   M   S   E   E   M   S   E   E   M   
S   E   E   M   S   E   E   M   S   E   E   M   S   E   E   M   S   E   E   M   
S   E   E   M   S   E   E   M   S   E   E   M   S   E   E   M   S   E   E   M   
S   E   E   M   S   E   E   M   S   E   E   M   S   E   E   M   S   E   E   M   
S   E   E   M   S   E   E   M   S   E   E   M   S   E   E   M   S   E   E   M   
S   E   E   M   S   E   E   M   S   E   E   M   S   E   E   M   S   E   E   M   
S   E   E   M   S   E   E   M   S   E   E   M   S   E   E   M   S   E   E   M   
S   E   E   M   S   E   E   M   S   E   E   M   S   E   E   M   S   E   E   M   
S   E   E   M   S   E   E   M   S   E   E   M   S   E   E   M   S   E   E   M   
S   E   E   M   S   E   E   M   S   E   E   M   S   E   E   M   S   E   E   M   
S   E   E   M   S   E   E   M   S   E   E   M   S   E   E   M   S   E   E   M   
S   E   E   M   S   E   E   M   S   E   E   M   S   E   E   M   S   E   E   M   
S   E   E   M   S   E   E   M   S   E   E   M   S   E   E   M   S   E   E   M   
S   E   E   M   S   E   E   M   S   E   E   M   S   E   E   M   S   E   E   M   
S   E   E   M   S   E   E   M   S   E   E   M   S   E   E   M   S   E   E   M   
S   E   E   M   S   E   E   M   S   E   E   M   S   E   E   M   S   E   E   M   
S   E   E   M   S   E   E   M   S   E   E   M   S   E   E   M   S   E   E   M   
S   E   E   M   S   E   E   M   S   E   E   M   S   E   E   M   S   E   E   M   
S   E   E   M   S   E   E   M   S   E   E   M   S   E   E   M   S   E   E   M   
S   E   E   M   S   E   E   M   S   E   E   M   S   E   E   M   S   E   E   M   
S   E   E   M   S   E   E   M   S   E   E   M   S   E   E   M   S   E   E   M   
S   E   E   M   S   E   E   M   S   E   E   M   S   E   E   M   S   E   E   M   
S   E   E   M   S   E   E   M   S   E   E   M   S   E   E   M   S   E   E   M   
S   E   E   M   S   E   E   M   S   E   E   M   S   E   E   M   S   E   E   M   
S   E   E   M   S   E   E   M   S   E   E   M   S   E   E   M   S   E   E   M   
S   E   E   M   S   E   E   M   S   E   E   M   S   E   E   M   S   E   E   M   
S   E   E   M   S   E   E   M   S   E   E   M   S   E   E   M   S   E   E   M   
S   E   E   M   S   E   E   M   S   E   E   M   S   E   E   M   S   E   E   M   
S   E   E   M   S   E   E   M   S   E   E   M   S   E   E   M   S   E   E   M   
S   E   E   M   S   E   E   M   S   E   E   M   S   E   E   M   S   E   E   M   
S   E   E   M   S   E   E   M   S   E   E   M   S   E   E   M   S   E   E   M   
S   E   E   M   S   E   E   M   S   E   E   M   S   E   E   M   S   E   E   M   
S   E   E   M   S   E   E   M   S   E   E   M   S   E   E   M   S   E   E   M   
S   E   E   M   S   E   E   M   S   E   E   M   S   E   E   M   S   E   E   M   
S   E   E   M   S   E   E   M   S   E   E   M   S   E   E   M   S   E   E   M   
S   E   E   M   S   E   E   M   S   E   E   M   S   E   E   M   S   E   E   M   
S   E   E   M   S   E   E   M   S   E   E   M   S   E   E   M   S   E   E   M   
S   E   E   M   S   E   E   M   S   E   E   M   S   E   E   M   S   E   E   M   
S   E   E   M   S   E   E   M   S   E   E   M   S   E   E   M   S   E   E   M   
S   E   E   M   S   E   E   M   S   E   E   M   S   E   E   M   S   E   E   M   
S   E   E   M   S   E   E   M   S   E   E   M   S   E   E   M   S   E   E   M   
S   E   E   M   S   E   E   M   S   E   E   M   S   E   E   M   S   E   E   M   
S   E   E   M   S   E   E   M   S   E   E   M   S   E   E   M   S   E   E   M   
S   E   E   M   S   E   E   M   S   E   E   M   S   E   E   M   S   E   E   M   
S   E   E   M   S   E   E   M   S   E   E   M   S   E   E   M   S   E   E   M   
S   E   E   M   S   E   E   M   S   E   E   M   S   E   E   M   S   E   E   M   
S   E   E   M   S   E   E   M   S   E   E   M   S   E   E   M   S   E   E   M   
S   E   E   M   S   E   E   M   S   E   E   M   S   E   E   M   S   E   E   M   
S   E   E   M   S   E   E   M   S   E   E   M   S   E   E   M   S   E   E   M   
S   E   E   M   S   E   E   M   S   E   E   M   S   E   E   M   S   E   E   M   
S   E   E   M   S   E   E   M   S   E   E   M   S   E   E   M   S   E   E   M   
S   E   E   M   S   E   E   M   S   E   E   M   S   E   E   M   S   E   E   M   
S   E   E   M   S   E   E   M   S   E   E   M   S   E   E   M   S   E   E   M   
S   E   E   M   S   E   E   M   S   E   E   M   S   E   E   M   S   E   E   M   
S   E   E   M   S   E   E   M   S   E   E   M   S   E   E   M   S   E   E   M   
S   E   E   M   S   E   E   M   S   E   E   M   S   E   E   M   S   E   E   M   
S   E   E   M   S   E   E   M   S   E   E   M   S   E   E   M   S   E   E   M   
S   E   E   M   S   E   E   M   S   E   E   M   S   E   E   M   S   E   E   M   
S   E   E   M   S   E   E   M   S   E   E   M   S   E   E   M   S   E   E   M   
S   E   E   M   S   E   E   M   S   E   E   M   S   E   E   M   S   E   E   M   
S   E   E   M   S   E   E   M   S   E   E   M   S   E   E   M   S   E   E   M   
S   E   E   M   S   E   E   M   S   E   E   M   S   E   E   M   S   E   E   M   
S   E   E   M   S   E   E   M   S   E   E   M   S   E   E   M   S   E   E   M   
S   E   E   M   S   E   E   M   S   E   E   M   S   E   E   M   S   E   E   M   
S   E   E   M   S   E   E   M   S   E   E   M   S   E   E   M   S   E   E   M   
S   E   E   M   S   E   E   M   S   E   E   M   S   E   E   M   S   E   E   M   
S   E   E   M   S   E   E   M   S   E   E   M   S   E   E   M   S   E   E   M   
S   E   E   M   S   E   E   M   S   E   E   M   S   E   E   M   S   E   E   M   
S   E   E   M   S   E   E   M   S   E   E   M   S   E   E   M   S   E   E   M   
S   E   E   M   S   E   E   M   S   E   E   M   S   E   E   M   S   E   E   M   
S   E   E   M   S   E   E   M   S   E   E   M   S   E   E   M   S   E   E   M   
S   E   E   M   S   E   E   M   S   E   E   M   S   E   E   M   S   E   E   M   
S   E   E   M   S   E   E   M   S   E   E   M   S   E   E   M   S   E   E   M   
S   E   E   M   S   E   E   M   S   E   E   M   S   E   E   M   S   E   E   M   
S   E   E   M   S   E   E   M   S   E   E   M   S   E   E   M   S   E   E   M   
S   E   E   M   S   E   E   M   S   E   E   M   S   E   E   M   S   E   E   M   
S   E   E   M   S   E   E   M   S   E   E   M   S   E   E   M   S   E   E   M   
S   E   E   M   S   E   E   M   S   E   E   M   S   E   E   M   S   E   E   M   
S   E   E   M   S   E   E   M   S   E   E   M   S   E   E   M   S   E   E   M   
S   E   E   M   S   E   E   M   S   E   E   M   S   E   E   M   S   E   E   M   
S   E   E   M   S   E   E   M   S   E   E   M   S   E   E   M   S   E   E   M   
S   E   E   M   S   E   E   M   S   E   E   M   S   E   E   M   S   E   E   M   
S   E   E   M   S   E   E   M   S   E   E   M   S   E   E   M   S   E   E   M   
S   E   E   M   S   E   E   M   S   E   E   M   S   E   E   M   S   E   E   M   
S   E   E   M   S   E   E   M   S   E   E   M   S   E   E   M   S   E   E   M   
S   E   E   M   S   E   E   M   S   E   E   M   S   E   E   M   S   E   E   M   
S   E   E   M   S   E   E   M   S   E   E   M   S   E   E   M   S   E   E   M   
S   E   E   M   S   E   E   M   S   E   E   M   S   E   E   M   S   E   E   M   
S   E   E   M   S   E   E   M   S   E   E   M   S   E   E   M   S   E   E   M   
S   E   E   M   S   E   E   M   S   E   E   M   S   E   E   M   S   E   E   M   
S   E   E   M   S   E   E   M   S   E   E   M   S   E   E   M   S   E   E   M   
S   E   E   M   S   E   E   M   S   E   E   M   S   E   E   M   S   E   E   M   
S   E   E   M   S   E   E   M   S   E   E   M   S   E   E   M   S   E   E   M   
S   E   E   M   S   E   E   M   S   E   E   M   S   E   E   M   S   E   E   M   
S   E   E   M   S   E   E   M   S   E   E   M   S   E   E   M   S   E   E   M   
S   E   E   M   S   E   E   M   S   E   E   M   S   E   E   M   S   E   E   M   
S   E   E   M   S   E   E   M   S   E   E   M   S   E   E   M   S   E   E   M   
S   E   E   M   S   E   E   M   S   E   E   M   S   E   E   M   S   E   E   M   
S   E   E   M   S   E   E   M   S   E   E   M   S   E   E   M   S   E   E   M   
S   E   E   M   S   E   E   M   S   E   E   M   S   E   E   M   S   E   E   M   
S   E   E   M   S   E   E   M   S   E   E   M   S   E   E   M   S   E   E   M   
S   E   E   M   S   E   E   M   S   E   E   M   S   E   E   M   S   E   E   M   
S   E   E   M   S   E   E   M   S   E   E   M   S   E   E   M   S   E   E   M   
S   E   E   M   S   E   E   M   S   E   E   M   S   E   E   M   S   E   E   M   
S   E   E   M   S   E   E   M   S   E   E   M   S   E   E   M   S   E   E   M   
S   E   E   M   S   E   E   M   S   E   E   M   S   E   E   M   S   E   E   M   
S   E   E   M   S   E   E   M   S   E   E   M   S   E   E   M   S   E   E   M   
S   E   E   M   S   E   E   M   S   E   E   M   S   E   E   M   S   E   E   M   
S   E   E   M   S   E   E   M   S   E   E   M   S   E   E   M   S   E   E   M   
S   E   E   M   S   E   E   M   S   E   E   M   S   E   E   M   S   E   E   M   
S   E   E   M   S   E   E   M   S   E   E   M   S   E   E   M   S   E   E   M   
S   E   E   M   S   E   E   M   S   E   E   M   S   E   E   M   S   E   E   M   
S   E   E   M   S   E   E   M   S   E   E   M   S   E   E   M   S   E   E   M   
S   E   E   M   S   E   E   M   S   E   E   M   S   E   E   M   S   E   E   M   
S   E   E   M   S   E   E   M   S   E   E   M   S   E   E   M   S   E   E   M   
S   E   E   M   S   E   E   M   S   E   E   M   S   E   E   M   S   E   E   M   
S   E   E   M   S   E   E   M   S   E   E   M   S   E   E   M   S   E   E   M   
S   E   E   M   S   E   E   M   S   E   E   M   S   E   E   M   S   E   E   M   
S   E   E   M   S   E   E   M   S   E   E   M   S   E   E   M   S   E   E   M   
S   E   E   M   S   E   E   M   S   E   E   M   S   E   E   M   S   E   E   M   
S   E   E   M   S   E   E   M   S   E   E   M   S   E   E   M   S   E   E   M   
S   E   E   M   S   E   E   M   S   E   E   M   S   E   E   M   S   E   E   M   
S   E   E   M   S   E   E   M   S   E   E   M   S   E   E   M   S   E   E   M   
S   E   E   M   S   E   E   M   S   E   E   M   S   E   E   M   S   E   E   M   
S   E   E   M   S   E   E   M   S   E   E   M   S   E   E   M   S   E   E   M   
S   E   E   M   S   E   E   M   S   E   E   M   S   E   E   M   S   E   E   M   
S   E   E   M   S   E   E   M   S   E   E   M   S   E   E   M   S   E   E   M   
S   E   E   M   S   E   E   M   S   E   E   M   S   E   E   M   S   E   E   M   
S   E   E   M   S   E   E   M   S   E   E   M   S   E   E   M   S   E   E   M   
S   E   E   M   S   E   E   M   S   E   E   M   S   E   E   M   S   E   E   M   
S   E   E   M   S   E   E   M   S   E   E   M   S   E   E   M   S   E   E   M   
S   E   E   M   S   E   E   M   S   E   E   M   S   E   E   M   S   E   E   M   
S   E   E   M   S   E   E   M   S   E   E   M   S   E   E   M   S   E   E   M   
S   E   E   M   S   E   E   M   S   E   E   M   S   E   E   M   S   E   E   M   
S   E   E   M   S   E   E   M   S   E   E   M   S   E   E   M   S   E   E   M   
S   E   E   M   S   E   E   M   S   E   E   M   S   E   E   M   S   E   E   M   
S   E   E   M   S   E   E   M   S   E   E   M   S   E   E   M   S   E   E   M   
S   E   E   M   S   E   E   M   S   E   E   M   S   E   E   M   S   E   E   M   
S   E   E   M   S   E   E   M   S   E   E   M   S   E   E   M   S   E   E   M   
S   E   E   M   S   E   E   M   S   E   E   M   S   E   E   M   S   E   E   M   
S   E   E   M   S   E   E   M   S   E   E   M   S   E   E   M   S   E   E   M   
S   E   E   M   S   E   E   M   S   E   E   M   S   E   E   M   S   E   E   M   
S   E   E   M   S   E   E   M   S   E   E   M   S   E   E   M   S   E   E   M   
S   E   E   M   S   E   E   M   S   E   E   M   S   E   E   M   S   E   E   M   
S   E   E   M   S   E   E   M   S   E   E   M   S   E   E   M   S   E   E   M   
S   E   E   M   S   E   E   M   S   E   E   M   S   E   E   M   S   E   E   M   
S   E   E   M   S   E   E   M   S   E   E   M   S   E   E   M   S   E   E   M   
S   E   E   M   S   E   E   M   S   E   E   M   S   E   E   M   S   E   E   M   
S   E   E   M   S   E   E   M   S   E   E   M   S   E   E   M   S   E   E   M   
S   E   E   M   S   E   E   M   S   E   E   M   S   E   E   M   S   E   E   M   
S   E   E   M   S   E   E   M   S   E   E   M   S   E   E   M   S   E   E   M   
S   E   E   M   S   E   E   M   S   E   E   M   S   E   E   M   S   E   E   M   
S   E   E   M   S   E   E   M   S   E   E   M   S   E   E   M   S   E   E   M   
S   E   E   M   S   E   E   M   S   E   E   M   S   E   E   M   S   E   E   M   
S   E   E   M   S   E   E   M   S   E   E   M   S   E   E   M   S   E   E   M   
S   E   E   M   S   E   E   M   S   E   E   M   S   E   E   M   S   E   E   M   
S   E   E   M   S   E   E   M   S   E   E   M   S   E   E   M   S   E   E   M   
S   E   E   M   S   E   E   M   S   E   E   M   S   E   E   M   S   E   E   M   
S   E   E   M   S   E   E   M   S   E   E   M   S   E   E   M   S   E   E   M   
S   E   E   M   S   E   E   M   S   E   E   M   S   E   E   M   S   E   E   M   
S   E   E   M   S   E   E   M   S   E   E   M   S   E   E   M   S   E   E   M   
S   E   E   M   S   E   E   M   S   E   E   M   S   E   E   M   S   E   E   M   
S   E   E   M   S   E   E   M   S   E   E   M   S   E   E   M   S   E   E   M   
S   E   E   M   S   E   E   M   S   E   E   M   S   E   E   M   S   E   E   M   
S   E   E   M   S   E   E   M   S   E   E   M   S   E   E   M   S   E   E   M   
S   E   E   M   S   E   E   M   S   E   E   M   S   E   E   M   S   E   E   M   
S   E   E   M   S   E   E   M   S   E   E   M   S   E   E   M   S   E   E   M   
S   E   E   M   S   E   E   M   S   E   E   M   S   E   E   M   S   E   E   M   
S   E   E   M   S   E   E   M   S   E   E   M   S   E   E   M   S   E   E   M   
S   E   E   M   S   E   E   M   S   E   E   M   S   E   E   M   S   E   E   M   
S   E   E   M   S   E   E   M   S   E   E   M   S   E   E   M   S   E   E   M   
S   E   E   M   S   E   E   M   S   E   E   M   S   E   E   M   S   E   E   M   
S   E   E   M   S   E   E   M   S   E   E   M   S   E   E   M   S   E   E   M   
S   E   E   M   S   E   E   M   S   E   E   M   S   E   E   M   S   E   E   M   
S   E   E   M   S   E   E   M   S   E   E   M   S   E   E   M   S   E   E   M   
S   E   E   M   S   E   E   M   S   E   E   M   S   E   E   M   S   E   E   M   
S   E   E   M   S   E   E   M   S   E   E   M   S   E   E   M   S   E   E   M   
S   E   E   M   S   E   E   M   S   E   E   M   S   E   E   M   S   E   E   M   
S   E   E   M   S   E   E   M   S   E   E   M   S   E   E   M   S   E   E   M   
S   E   E   M   S   E   E   M   S   E   E   M   S   E   E   M   S   E   E   M   
S   E   E   M   S   E   E   M   S   E   E   M   S   E   E   M   S   E   E   M   
S   E   E   M   S   E   E   M   S   E   E   M   S   E   E   M   S   E   E   M   
S   E   E   M   S   E   E   M   S   E   E   M   S   E   E   M   S   E   E   M   
S   E   E   M   S   E   E   M   S   E   E   M   S   E   E   M   S   E   E   M   
S   E   E   M   S   E   E   M   S   E   E   M   S   E   E   M   S   E   E   M   
S   E   E   M   S   E   E   M   S   E   E   M   S   E   E   M   S   E   E   M   
S   E   E   M   S   E   E   M   S   E   E   M   S   E   E   M   S   E   E   M   
S   E   E   M   S   E   E   M   S   E   E   M   S   E   E   M   S   E   E   M   
S   E   E   M   S   E   E   M   S   E   E   M   S   E   E   M   S   E   E   M   
S   E   E   M   S   E   E   M   S   E   E   M   S   E   E   M   S   E   E   M   
S   E   E   M   S   E   E   M   S   E   E   M   S   E   E   M   S   E   E   M   
S   E   E   M   S   E   E   M   S   E   E   M   S   E   E   M   S   E   E   M   
S   E   E   M   S   E   E   M   S   E   E   M   S   E   E   M   S   E   E   M   
S   E   E   M   S   E   E   M   S   E   E   M   S   E   E   M   S   E   E   M   
S   E   E   M   S   E   E   M   S   E   E   M   S   E   E   M   S   E   E   M   
S   E   E   M   S   E   E   M   S   E   E   M   S   E   E   M   S   E   E   M   
S   E   E   M   S   E   E   M   S   E   E   M   S   E   E   M   S   E   E   M   
S   E   E   M   S   E   E   M   S   E   E   M   S   E   E   M   S   E   E   M   
S   E   E   M   S   E   E   M   S   E   E   M   S   E   E   M   S   E   E   M   
S   E   E   M   S   E   E   M   S   E   E   M   S   E   E   M   S   E   E   M   
S   E   E   M   S   E   E   M   S   E   E   M   S   E   E   M   S   E   E   M   
S   E   E   M   S   E   E   M   S   E   E   M   S   E   E   M   S   E   E   M   
S   E   E   M   S   E   E   M   S   E   E   M   S   E   E   M   S   E   E   M   
S   E   E   M   S   E   E   M   S   E   E   M   S   E   E   M   S   E   E   M   
S   E   E   M   S   E   E   M   S   E   E   M   S   E   E   M   S   E   E   M   
S   E   E   M   S   E   E   M   S   E   E   M   S   E   E   M   S   E   E   M   
S   E   E   M   S   E   E   M   S   E   E   M   S   E   E   M   S   E   E   M   
S   E   E   M   S   E   E   M   S   E   E   M   S   E   E   M   S   E   E   M   
S   E   E   M   S   E   E   M   S   E   E   M   S   E   E   M   S   E   E   M   
S   E   E   M   S   E   E   M   S   E   E   M   S   E   E   M   S   E   E   M   
S   E   E   M   S   E   E   M   S   E   E   M   S   E   E   M   S   E   E   M   
S   E   E   M   S   E   E   M   S   E   E   M   S   E   E   M   S   E   E   M   
S   E   E   M   S   E   E   M   S   E   E   M   S   E   E   M   S   E   E   M   
S   E   E   M   S   E   E   M   S   E   E   M   S   E   E   M   S   E   E   M   
S   E   E   M   S   E   E   M   S   E   E   M   S   E   E   M   S   E   E   M   
S   E   E   M   S   E   E   M   S   E   E   M   S   E   E   M   S   E   E   M   
S   E   E   M   S   E   E   M   S   E   E   M   S   E   E   M   S   E   E   M   
S   E   E   M   S   E   E   M   S   E   E   M   S   E   E   M   S   E   E   M   
S   E   E   M   S   E   E   M   S   E   E   M   S   E   E   M   S   E   E   M   
S   E   E   M   S   E   E   M   S   E   E   M   S   E   E   M   S   E   E   M   
S   E   E   M   S   E   E   M   S   E   E   M   S   E   E   M   S   E   E   M   
S   E   E   M   S   E   E   M   S   E   E   M   S   E   E   M   S   E   E   M   
S   E   E   M   S   E   E   M   S   E   E   M   S   E   E   M   S   E   E   M   
S   E   E   M   S   E   E   M   S   E   E   M   S   E   E   M   S   E   E   M   
S   E   E   M   S   E   E   M   S   E   E   M   S   E   E   M   S   E   E   M   
S   E   E   M   S   E   E   M   S   E   E   M   S   E   E   M   S   E   E   M   
S   E   E   M   S   E   E   M   S   E   E   M   S   E   E   M   S   E   E   M   
S   E   E   M   S   E   E   M   S   E   E   M   S   E   E   M   S   E   E   M   
S   E   E   M   S   E   E   M   S   E   E   M   S   E   E   M   S   E   E   M   
S   E   E   M   S   E   E   M   S   E   E   M   S   E   E   M   S   E   E   M   
S   E   E   M   S   E   E   M   S   E   E   M   S   E   E   M   S   E   E   M   
S   E   E   M   S   E   E   M   S   E   E   M   S   E   E   M   S   E   E   M   
S   E   E   M   S   E   E   M   S   E   E   M   S   E   E   M   S   E   E   M   
S   E   E   M   S   E   E   M   S   E   E   M   S   E   E   M   S   E   E   M   
S   E   E   M   S   E   E   M   S   E   E   M   S   E   E   M   S   E   E   M   
S   E   E   M   S   E   E   M   S   E   E   M   S   E   E   M   S   E   E   M   
S   E   E   M   S   E   E   M   S   E   E   M   S   E   E   M   S   E   E   M   
S   E   E   M   S   E   E   M   S   E   E   M   S   E   E   M   S   E   E   M   
S   E   E   M   S   E   E   M   S   E   E   M   S   E   E   M   S   E   E   M   
S   E   E   M   S   E   E   M   S   E   E   M   S   E   E   M   S   E   E   M   
S   E   E   M   S   E   E   M   S   E   E   M   S   E   E   M   S   E   E   M   
S   E   E   M   S   E   E   M   S   E   E   M   S   E   E   M   S   E   E   M   
S   E   E   M   S   E   E   M   S   E   E   M   S   E   E   M   S   E   E   M   
S   E   E   M   S   E   E   M   S   E   E   M   S   E   E   M   S   E   E   M   
S   E   E   M   S   E   E   M   S   E   E   M   S   E   E   M   S   E   E   M   
S   E   E   M   S   E   E   M   S   E   E   M   S   E   E   M   S   E   E   M   
S   E   E   M   S   E   E   M   S   E   E   M   S   E   E   M   S   E   E   M   
S   E   E   M   S   E   E   M   S   E   E   M   S   E   E   M   S   E   E   M   
S   E   E   M   S   E   E   M   S   E   E   M   S   E   E   M   S   E   E   M   
S   E   E   M   S   E   E   M   S   E   E   M   S   E   E   M   S   E   E   M   
S   E   E   M   S   E   E   M   S   E   E   M   S   E   E   M   S   E   E   M   
S   E   E   M   S   E   E   M   S   E   E   M   S   E   E   M   S   E   E   M   
S   E   E   M   S   E   E   M   S   E   E   M   S   E   E   M   S   E   E   M   
S   E   E   M   S   E   E   M   S   E   E   M   S   E   E   M   S   E   E   M   
S   E   E   M   S   E   E   M   S   E   E   M   S   E   E   M   S   E   E   M   
S   E   E   M   S   E   E   M   S   E   E   M   S   E   E   M   S   E   E   M   
S   E   E   M   S   E   E   M   S   E   E   M   S   E   E   M   S   E   E   M   
S   E   E   M   S   E   E   M   S   E   E   M   S   E   E   M   S   E   E   M   
S   E   E   M   S   E   E   M   S   E   E   M   S   E   E   M   S   E   E   M   
S   E   E   M   S   E   E   M   S   E   E   M   S   E   E   M   S   E   E   M   
S   E   E   M   S   E   E   M   S   E   E   M   S   E   E   M   S   E   E   M   
S   E   E   M   S   E   E   M   S   E   E   M   S   E   E   M   S   E   E   M   
S   E   E   M   S   E   E   M   S   E   E   M   S   E   E   M   S   E   E   M   
S   E   E   M   S   E   E   M   S   E   E   M   S   E   E   M   S   E   E   M   
S   E   E   M   S   E   E   M   S   E   E   M   S   E   E   M   S   E   E   M   
S   E   E   M   S   E   E   M   S   E   E   M   S   E   E   M   S   E   E   M   
S   E   E   M   S   E   E   M   S   E   E   M   S   E   E   M   S   E   E   M   
S   E   E   M   S   E   E   M   S   E   E   M   S   E   E   M   S   E   E   M   
S   E   E   M   S   E   E   M   S   E   E   M   S   E   E   M   S   E   E   M   
S   E   E   M   S   E   E   M   S   E   E   M   S   E   E   M   S   E   E   M   
S   E   E   M   S   E   E   M   S   E   E   M   S   E   E   M   S   E   E   M   
S   E   E   M   S   E   E   M   S   E   E   M   S   E   E   M   S   E   E   M   
S   E   E   M   S   E   E   M   S   E   E   M   S   E   E   M   S   E   E   M   
S   E   E   M   S   E   E   M   S   E   E   M   S   E   E   M   S   E   E   M   
S   E   E   M   S   E   E   M   S   E   E   M   S   E   E   M   S   E   E   M   
S   E   E   M   S   E   E   M   S   E   E   M   S   E   E   M   S   E   E   M   
S   E   E   M   S   E   E   M   S   E   E   M   S   E   E   M   S   E   E   M   
S   E   E   M   S   E   E   M   S   E   E   M   S   E   E   M   S   E   E   M   
S   E   E   M   S   E   E   M   S   E   E   M   S   E   E   M   S   E   E   M   
S   E   E   M   S   E   E   M   S   E   E   M   S   E   E   M   S   E   E   M   
S   E   E   M   S   E   E   M   S   E   E   M   S   E   E   M   S   E   E   M   
S   E   E   M   S   E   E   M   S   E   E   M   S   E   E   M   S   E   E   M   
S   E   E   M   S   E   E   M   S   E   E   M   S   E   E   M   S   E   E   M   
S   E   E   M   S   E   E   M   S   E   E   M   S   E   E   M   S   E   E   M   
S   E   E   M   S   E   E   M   S   E   E   M   S   E   E   M   S   E   E   M   
S   E   E   M   S   E   E   M   S   E   E   M   S   E   E   M   S   E   E   M   
S   E   E   M   S   E   E   M   S   E   E   M   S   E   E   M   S   E   E   M   
S   E   E   M   S   E   E   M   S   E   E   M   S   E   E   M   S   E   E   M   
S   E   E   M   S   E   E   M   S   E   E   M   S   E   E   M   S   E   E   M   
S   E   E   M   S   E   E   M   S   E   E   M   S   E   E   M   S   E   E   M   
S   E   E   M   S   E   E   M   S   E   E   M   S   E   E   M   S   E   E   M   
S   E   E   M   S   E   E   M   S   E   E   M   S   E   E   M   S   E   E   M   
S   E   E   M   S   E   E   M   S   E   E   M   S   E   E   M   S   E   E   M   
S   E   E   M   S   E   E   M   S   E   E   M   S   E   E   M   S   E   E   M   
S   E   E   M   S   E   E   M   S   E   E   M   S   E   E   M   S   E   E   M   
S   E   E   M   S   E   E   M   S   E   E   M   S   E   E   M   S   E   E   M   
S   E   E   M   S   E   E   M   S   E   E   M   S   E   E   M   S   E   E   M   
S   E   E   M   S   E   E   M   S   E   E   M   S   E   E   M   S   E   E   M   
S   E   E   M   S   E   E   M   S   E   E   M   S   E   E   M   S   E   E   M   
S   E   E   M   S   E   E   M   S   E   E   M   S   E   E   M   S   E   E   M   
S   E   E   M   S   E   E   M   S   E   E   M   S   E   E   M   S   E   E   M   
S   E   E   M   S   E   E   M   S   E   E   M   S   E   E   M   S   E   E   M   
S   E   E   M   S   E   E   M   S   E   E   M   S   E   E   M   S   E   E   M   
S   E   E   M   S   E   E   M   S   E   E   M   S   E   E   M   S   E   E   M   
S   E   E   M   S   E   E   M   S   E   E   M   S   E   E   M   S   E   E   M   
S   E   E   M   S   E   E   M   S   E   E   M   S   E   E   M   S   E   E   M   
S   E   E   M   S   E   E   M   S   E   E   M   S   E   E   M   S   E   E   M   
S   E   E   M   S   E   E   M   S   E   E   M   S   E   E   M   S   E   E   M   
S   E   E   M   S   E   E   M   S   E   E   M   S   E   E   M   S   E   E   M   
S   E   E   M   S   E   E   M   S   E   E   M   S   E   E   M   S   E   E   M   
S   E   E   M   S   E   E   M   S   E   E   M   S   E   E   M   S   E   E   M   
S   E   E   M   S   E   E   M   S   E   E   M   S   E   E   M   S   E   E   M   
S   E   E   M   S   E   E   M   S   E   E   M   S   E   E   M   S   E   E   M   
S   E   E   M   S   E   E   M   S   E   E   M   S   E   E   M   S   E   E   M   
S   E   E   M   S   E   E   M   S   E   E   M   S   E   E   M   S   E   E   M   
S   E   E   M   S   E   E   M   S   E   E   M   S   E   E   M   S   E   E   M   
S   E   E   M   S   E   E   M   S   E   E   M   S   E   E   M   S   E   E   M   
S   E   E   M   S   E   E   M   S   E   E   M   S   E   E   M   S   E   E   M   
S   E   E   M   S   E   E   M   S   E   E   M   S   E   E   M   S   E   E   M   
S   E   E   M   S   E   E   M   S   E   E   M   S   E   E   M   S   E   E   M   
S   E   E   M   S   E   E   M   S   E   E   M   S   E   E   M   S   E   E   M   
S   E   E   M   S   E   E   M   S   E   E   M   S   E   E   M   S   E   E   M   
S   E   E   M   S   E   E   M   S   E   E   M   S   E   E   M   S   E   E   M   
S   E   E   M   S   E   E   M   S   E   E   M   S   E   E   M   S   E   E   M   
S   E   E   M   S   E   E   M   S   E   E   M   S   E   E   M   S   E   E   M   
S   E   E   M   S   E   E   M   S   E   E   M   S   E   E   M   S   E   E   M   
S   E   E   M   S   E   E   M   S   E   E   M   S   E   E   M   S   E   E   M   
S   E   E   M   S   E   E   M   S   E   E   M   S   E   E   M   S   E   E   M   
S   E   E   M   S   E   E   M   S   E   E   M   S   E   E   M   S   E   E   M   
S   E   E   M   S   E   E   M   S   E   E   M   S   E   E   M   S   E   E   M   
S   E   E   M   S   E   E   M   S   E   E   M   S   E   E   M   S   E   E   M   
S   E   E   M   S   E   E   M   S   E   E   M   S   E   E   M   S   E   E   M   
S   E   E   M   S   E   E   M   S   E   E   M   S   E   E   M   S   E   E   M   
S   E   E   M   S   E   E   M   S   E   E   M   S   E   E   M   S   E   E   M   
S   E   E   M   S   E   E   M   S   E   E   M   S   E   E   M   S   E   E   M   
S   E   E   M   S   E   E   M   S   E   E   M   S   E   E   M   S   E   E   M   
S   E   E   M   S   E   E   M   S   E   E   M   S   E   E   M   S   E   E   M   
S   E   E   M   S   E   E   M   S   E   E   M   S   E   E   M   S   E   E   M   
S   E   E   M   S   E   E   M   S   E   E   M   S   E   E   M   S   E   E   M   
S   E   E   M   S   E   E   M   S   E   E   M   S   E   E   M   S   E   E   M   
S   E   E   M   S   E   E   M   S   E   E   M   S   E   E   M   S   E   E   M   
S   E   E   M   S   E   E   M   S   E   E   M   S   E   E   M   S   E   E   M   
S   E   E   M   S   E   E   M   S   E   E   M   S   E   E   M   S   E   E   M   
S   E   E   M   S   E   E   M   S   E   E   M   S   E   E   M   S   E   E   M   
S   E   E   M   S   E   E   M   S   E   E   M   S   E   E   M   S   E   E   M   
S   E   E   M   S   E   E   M   S   E   E   M   S   E   E   M   S   E   E   M   
S   E   E   M   S   E   E   M   S   E   E   M   S   E   E   M   S   E   E   M   
S   E   E   M   S   E   E   M   S   E   E   M   S   E   E   M   S   E   E   M   
S   E   E   M   S   E   E   M   S   E   E   M   S   E   E   M   S   E   E   M   
S   E   E   M   S   E   E   M   S   E   E   M   S   E   E   M   S   E   E   M   
S   E   E   M   S   E   E   M   S   E   E   M   S   E   E   M   S   E   E   M   
S   E   E   M   S   E   E   M   S   E   E   M   S   E   E   M   S   E   E   M   
S   E   E   M   S   E   E   M   S   E   E   M   S   E   E   M   S   E   E   M   
S   E   E   M   S   E   E   M   S   E   E   M   S   E   E   M   S   E   E   M   
S   E   E   M   S   E   E   M   S   E   E   M   S   E   E   M   S   E   E   M   
S   E   E   M   S   E   E   M   S   E   E   M   S   E   E   M   S   E   E   M   
S   E   E   M   S   E   E   M   S   E   E   M   S   E   E   M   S   E   E   M   
S   E   E   M   S   E   E   M   S   E   E   M   S   E   E   M   S   E   E   M   
S   E   E   M   S   E   E   M   S   E   E   M   S   E   E   M   S   E   E   M   
S   E   E   M   S   E   E   M   S   E   E   M   S   E   E   M   S   E   E   M   
S   E   E   M   S   E   E   M   S   E   E   M   S   E   E   M   S   E   E   M   
S   E   E   M   S   E   E   M   S   E   E   M   S   E   E   M   S   E   E   M   
S   E   E   M   S   E   E   M   S   E   E   M   S   E   E   M   S   E   E   M   
S   E   E   M   S   E   E   M   S   E   E   M   S   E   E   M   S   E   E   M   
S   E   E   M   S   E   E   M   S   E   E   M   S   E   E   M   S   E   E   M   
S   E   E   M   S   E   E   M   S   E   E   M   S   E   E   M   S   E   E   M   
S   E   E   M   S   E   E   M   S   E   E   M   S   E   E   M   S   E   E   M   
S   E   E   M   S   E   E   M   S   E   E   M   S   E   E   M   S   E   E   M   
S   E   E   M   S   E   E   M   S   E   E   M   S   E   E   M   S   E   E   M   
S   E   E   M   S   E   E   M   S   E   E   M   S   E   E   M   S   E   E   M   
S   E   E   M   S   E   E   M   S   E   E   M   S   E   E   M   S   E   E   M   
S   E   E   M   S   E   E   M   S   E   E   M   S   E   E   M   S   E   E   M   
S   E   E   M   S   E   E   M   S   E   E   M   S   E   E   M   S   E   E   M   
S   E   E   M   S   E   E   M   S   E   E   M   S   E   E   M   S   E   E   M   
S   E   E   M   S   E   E   M   S   E   E   M   S   E   E   M   S   E   E   M   
S   E   E   M   S   E   E   M   S   E   E   M   S   E   E   M   S   E   E   M   
S   E   E   M   S   E   E   M   S   E   E   M   S   E   E   M   S   E   E   M   
S   E   E   M   S   E   E   M   S   E   E   M   S   E   E   M   S   E   E   M   
S   E   E   M   S   E   E   M   S   E   E   M   S   E   E   M   S   E   E   M   
S   E   E   M   S   E   E   M   S   E   E   M   S   E   E   M   S   E   E   M   
S   E   E   M   S   E   E   M   S   E   E   M   S   E   E   M   S   E   E   M   
S   E   E   M   S   E   E   M   S   E   E   M   S   E   E   M   S   E   E   M   
S   E   E   M   S   E   E   M   S   E   E   M   S   E   E   M   S   E   E   M   
S   E   E   M   S   E   E   M   S   E   E   M   S   E   E   M   S   E   E   M   
S   E   E   M   S   E   E   M   S   E   E   M   S   E   E   M   S   E   E   M   
S   E   E   M   S   E   E   M   S   E   E   M   S   E   E   M   S   E   E   M   
S   E   E   M   S   E   E   M   S   E   E   M   S   E   E   M   S   E   E   M   
S   E   E   M   S   E   E   M   S   E   E   M   S   E   E   M   S   E   E   M   
S   E   E   M   S   E   E   M   S   E   E   M   S   E   E   M   S   E   E   M   
S   E   E   M   S   E   E   M   S   E   E   M   S   E   E   M   S   E   E   M   
S   E   E   M   S   E   E   M   S   E   E   M   S   E   E   M   S   E   E   M   
S   E   E   M   S   E   E   M   S   E   E   M   S   E   E   M   S   E   E   M   
S   E   E   M   S   E   E   M   S   E   E   M   S   E   E   M   S   E   E   M   
S   E   E   M   S   E   E   M   S   E   E   M   S   E   E   M   S   E   E   M   
S   E   E   M   S   E   E   M   S   E   E   M   S   E   E   M   S   E   E   M   
S   E   E   M   S   E   E   M   S   E   E   M   S   E   E   M   S   E   E   M   
S   E   E   M   S   E   E   M   S   E   E   M   S   E   E   M   S   E   E   M   
S   E   E   M   S   E   E   M   S   E   E   M   S   E   E   M   S   E   E   M   
S   E   E   M   S   E   E   M   S   E   E   M   S   E   E   M   S   E   E   M   
S   E   E   M   S   E   E   M   S   E   E   M   S   E   E   M   S   E   E   M   
S   E   E   M   S   E   E   M   S   E   E   M   S   E   E   M   S   E   E   M   
S   E   E   M   S   E   E   M   S   E   E   M   S   E   E   M   S   E   E   M   
S   E   E   M   S   E   E   M   S   E   E   M   S   E   E   M   S   E   E   M   
S   E   E   M   S   E   E   M   S   E   E   M   S   E   E   M   S   E   E   M   
S   E   E   M   S   E   E   M   S   E   E   M   S   E   E   M   S   E   E   M   
S   E   E   M   S   E   E   M   S   E   E   M   S   E   E   M   S   E   E   M   
S   E   E   M   S   E   E   M   S   E   E   M   S   E   E   M   S   E   E   M   
S   E   E   M   S   E   E   M   S   E   E   M   S   E   E   M   S   E   E   M   
S   E   E   M   S   E   E   M   S   E   E   M   S   E   E   M   S   E   E   M   
S   E   E   M   S   E   E   M   S   E   E   M   S   E   E   M   S   E   E   M   
S   E   E   M   S   E   E   M   S   E   E   M   S   E   E   M   S   E   E   M   
S   E   E   M   S   E   E   M   S   E   E   M   S   E   E   M   S   E   E   M   
S   E   E   M   S   E   E   M   S   E   E   M   S   E   E   M   S   E   E   M   
S   E   E   M   S   E   E   M   S   E   E   M   S   E   E   M   S   E   E   M   
S   E   E   M   S   E   E   M   S   E   E   M   S   E   E   M   S   E   E   M   
S   E   E   M   S   E   E   M   S   E   E   M   S   E   E   M   S   E   E   M   
S   E   E   M   S   E   E   M   S   E   E   M   S   E   E   M   S   E   E   M   
S   E   E   M   S   E   E   M   S   E   E   M   S   E   E   M   S   E   E   M   
S   E   E   M   S   E   E   M   S   E   E   M   S   E   E   M   S   E   E   M   
S   E   E   M   S   E   E   M   S   E   E   M   S   E   E   M   S   E   E   M   
S   E   E   M   S   E   E   M   S   E   E   M   S   E   E   M   S   E   E   M   
S   E   E   M   S   E   E   M   S   E   E   M   S   E   E   M   S   E   E   M   
S   E   E   M   S   E   E   M   S   E   E   M   S   E   E   M   S   E   E   M   
S   E   E   M   S   E   E   M   S   E   E   M   S   E   E   M   S   E   E   M   
S   E   E   M   S   E   E   M   S   E   E   M   S   E   E   M   S   E   E   M   
S   E   E   M   S   E   E   M   S   E   E   M   S   E   E   M   S   E   E   M   
S   E   E   M   S   E   E   M   S   E   E   M   S   E   E   M   S   E   E   M   
S   E   E   M   S   E   E   M   S   E   E   M   S   E   E   M   S   E   E   M   
S   E   E   M   S   E   E   M   S   E   E   M   S   E   E   M   S   E   E   M   
S   E   E   M   S   E   E   M   S   E   E   M   S   E   E   M   S   E   E   M   
S   E   E   M   S   E   E   M   S   E   E   M   S   E   E   M   S   E   E   M   
S   E   E   M   S   E   E   M   S   E   E   M   S   E   E   M   S   E   E   M   
S   E   E   M   S   E   E   M   S   E   E   M   S   E   E   M   S   E   E   M   
S   E   E   M   S   E   E   M   S   E   E   M   S   E   E   M   S   E   E   M   
S   E   E   M   S   E   E   M   S   E   E   M   S   E   E   M   S   E   E   M   
S   E   E   M   S   E   E   M   S   E   E   M   S   E   E   M   S   E   E   M   
S   E   E   M   S   E   E   M   S   E   E   M   S   E   E   M   S   E   E   M   
S   E   E   M   S   E   E   M   S   E   E   M   S   E   E   M   S   E   E   M   
S   E   E   M   S   E   E   M   S   E   E   M   S   E   E   M   S   E   E   M   
S   E   E   M   S   E   E   M   S   E   E   M   S   E   E   M   S   E   E   M   
S   E   E   M   S   E   E   M   S   E   E   M   S   E   E   M   S   E   E   M   
S   E   E   M   S   E   E   M   S   E   E   M   S   E   E   M   S   E   E   M   
S   E   E   M   S   E   E   M   S   E   E   M   S   E   E   M   S   E   E   M   
S   E   E   M   S   E   E   M   S   E   E   M   S   E   E   M   S   E   E   M   
S   E   E   M   S   E   E   M   S   E   E   M   S   E   E   M   S   E   E   M   
S   E   E   M   S   E   E   M   S   E   E   M   S   E   E   M   S   E   E   M   
S   E   E   M   S   E   E   M   S   E   E   M   S   E   E   M   S   E   E   M   
S   E   E   M   S   E   E   M   S   E   E   M   S   E   E   M   S   E   E   M   
S   E   E   M   S   E   E   M   S   E   E   M   S   E   E   M   S   E   E   M   
S   E   E   M   S   E   E   M   S   E   E   M   S   E   E   M   S   E   E   M   
S   E   E   M   S   E   E   M   S   E   E   M   S   E   E   M   S   E   E   M   
S   E   E   M   S   E   E   M   S   E   E   M   S   E   E   M   S   E   E   M   
S   E   E   M   S   E   E   M   S   E   E   M   S   E   E   M   S   E   E   M   
S   E   E   M   S   E   E   M   S   E   E   M   S   E   E   M   S   E   E   M   
S   E   E   M   S   E   E   M   S   E   E   M   S   E   E   M   S   E   E   M   
S   E   E   M   S   E   E   M   S   E   E   M   S   E   E   M   S   E   E   M   
S   E   E   M   S   E   E   M   S   E   E   M   S   E   E   M   S   E   E   M   
S   E   E   M   S   E   E   M   S   E   E   M   S   E   E   M   S   E   E   M   
S   E   E   M   S   E   E   M   S   E   E   M   S   E   E   M   S   E   E   M   
S   E   E   M   S   E   E   M   S   E   E   M   S   E   E   M   S   E   E   M   
S   E   E   M   S   E   E   M   S   E   E   M   S   E   E   M   S   E   E   M   
S   E   E   M   S   E   E   M   S   E   E   M   S   E   E   M   S   E   E   M   
S   E   E   M   S   E   E   M   S   E   E   M   S   E   E   M   S   E   E   M   
S   E   E   M   S   E   E   M   S   E   E   M   S   E   E   M   S   E   E   M   
S   E   E   M   S   E   E   M   S   E   E   M   S   E   E   M   S   E   E   M   
S   E   E   M   S   E   E   M   S   E   E   M   S   E   E   M   S   E   E   M   
S   E   E   M   S   E   E   M   S   E   E   M   S   E   E   M   S   E   E   M   
S   E   E   M   S   E   E   M   S   E   E   M   S   E   E   M   S   E   E   M   
S   E   E   M   S   E   E   M   S   E   E   M   S   E   E   M   S   E   E   M   
S   E   E   M   S   E   E   M   S   E   E   M   S   E   E   M   S   E   E   M   
S   E   E   M   S   E   E   M   S   E   E   M   S   E   E   M   S   E   E   M   
S   E   E   M   S   E   E   M   S   E   E   M   S   E   E   M   S   E   E   M   
S   E   E   M   S   E   E   M   S   E   E   M   S   E   E   M   S   E   E   M   
S   E   E   M   S   E   E   M   S   E   E   M   S   E   E   M   S   E   E   M   
S   E   E   M   S   E   E   M   S   E   E   M   S   E   E   M   S   E   E   M   
S   E   E   M   S   E   E   M   S   E   E   M   S   E   E   M   S   E   E   M   
S   E   E   M   S   E   E   M   S   E   E   M   S   E   E   M   S   E   E   M   
S   E   E   M   S   E   E   M   S   E   E   M   S   E   E   M   S   E   E   M   
S   E   E   M   S   E   E   M   S   E   E   M   S   E   E   M   S   E   E   M   
S   E   E   M   S   E   E   M   S   E   E   M   S   E   E   M   S   E   E   M   
S   E   E   M   S   E   E   M   S   E   E   M   S   E   E   M   S   E   E   M   
S   E   E   M   S   E   E   M   S   E   E   M   S   E   E   M   S   E   E   M   
S   E   E   M   S   E   E   M   S   E   E   M   S   E   E   M   S   E   E   M   
S   E   E   M   S   E   E   M   S   E   E   M   S   E   E   M   S   E   E   M   
S   E   E   M   S   E   E   M   S   E   E   M   S   E   E   M   S   E   E   M   
S   E   E   M   S   E   E   M   S   E   E   M   S   E   E   M   S   E   E   M   
S   E   E   M   S   E   E   M   S   E   E   M   S   E   E   M   S   E   E   M   
S   E   E   M   S   E   E   M   S   E   E   M   S   E   E   M   S   E   E   M   
S   E   E   M   S   E   E   M   S   E   E   M   S   E   E   M   S   E   E   M   
S   E   E   M   S   E   E   M   S   E   E   M   S   E   E   M   S   E   E   M   
S   E   E   M   S   E   E   M   S   E   E   M   S   E   E   M   S   E   E   M   
S   E   E   M   S   E   E   M   S   E   E   M   S   E   E   M   S   E   E   M   
S   E   E   M   S   E   E   M   S   E   E   M   S   E   E   M   S   E   E   M   
S   E   E   M   S   E   E   M   S   E   E   M   S   E   E   M   S   E   E   M   
S   E   E   M   S   E   E   M   S   E   E   M   S   E   E   M   S   E   E   M   
S   E   E   M   S   E   E   M   S   E   E   M   S   E   E   M   S   E   E   M   
S   E   E   M   S   E   E   M   S   E   E   M   S   E   E   M   S   E   E   M   
S   E   E   M   S   E   E   M   S   E   E   M   S   E   E   M   S   E   E   M   
S   E   E   M   S   E   E   M   S   E   E   M   S   E   E   M   S   E   E   M   
S   E   E   M   S   E   E   M   S   E   E   M   S   E   E   M   S   E   E   M   
S   E   E   M   S   E   E   M   S   E   E   M   S   E   E   M   S   E   E   M   
S   E   E   M   S   E   E   M   S   E   E   M   S   E   E   M   S   E   E   M   
S   E   E   M   S   E   E   M   S   E   E   M   S   E   E   M   S   E   E   M   
S   E   E   M   S   E   E   M   S   E   E   M   S   E   E   M   S   E   E   M   
S   E   E   M   S   E   E   M   S   E   E   M   S   E   E   M   S   E   E   M   
S   E   E   M   S   E   E   M   S   E   E   M   S   E   E   M   S   E   E   M   
S   E   E   M   S   E   E   M   S   E   E   M   S   E   E   M   S   E   E   M   
S   E   E   M   S   E   E   M   S   E   E   M   S   E   E   M   S   E   E   M   
S   E   E   M   S   E   E   M   S   E   E   M   S   E   E   M   S   E   E   M   
S   E   E   M   S   E   E   M   S   E   E   M   S   E   E   M   S   E   E   M   
S   E   E   M   S   E   E   M   S   E   E   M   S   E   E   M   S   E   E   M   
S   E   E   M   S   E   E   M   S   E   E   M   S   E   E   M   S   E   E   M   
S   E   E   M   S   E   E   M   S   E   E   M   S   E   E   M   S   E   E   M   
S   E   E   M   S   E   E   M   S   E   E   M   S   E   E   M   S   E   E   M   
S   E   E   M   S   E   E   M   S   E   E   M   S   E   E   M   S   E   E   M   
S   E   E   M   S   E   E   M   S   E   E   M   S   E   E   M   S   E   E   M   
S   E   E   M   S   E   E   M   S   E   E   M   S   E   E   M   S   E   E   M   
S   E   E   M   S   E   E   M   S   E   E   M   S   E   E   M   S   E   E   M   
S   E   E   M   S   E   E   M   S   E   E   M   S   E   E   M   S   E   E   M   
S   E   E   M   S   E   E   M   S   E   E   M   S   E   E   M   S   E   E   M   
S   E   E   M   S   E   E   M   S   E   E   M   S   E   E   M   S   E   E   M   
S   E   E   M   S   E   E   M   S   E   E   M   S   E   E   M   S   E   E   M   
S   E   E   M   S   E   E   M   S   E   E   M   S   E   E   M   S   E   E   M   
S   E   E   M   S   E   E   M   S   E   E   M   S   E   E   M   S   E   E   M   
S   E   E   M   S   E   E   M   S   E   E   M   S   E   E   M   S   E   E   M   
S   E   E   M   S   E   E   M   S   E   E   M   S   E   E   M   S   E   E   M   
S   E   E   M   S   E   E   M   S   E   E   M   S   E   E   M   S   E   E   M   
S   E   E   M   S   E   E   M   S   E   E   M   S   E   E   M   S   E   E   M   
S   E   E   M   S   E   E   M   S   E   E   M   S   E   E   M   S   E   E   M   
S   E   E   M   S   E   E   M   S   E   E   M   S   E   E   M   S   E   E   M   
S   E   E   M   S   E   E   M   S   E   E   M   S   E   E   M   S   E   E   M   
S   E   E   M   S   E   E   M   S   E   E   M   S   E   E   M   S   E   E   M   
S   E   E   M   S   E   E   M   S   E   E   M   S   E   E   M   S   E   E   M   
S   E   E   M   S   E   E   M   S   E   E   M   S   E   E   M   S   E   E   M   
S   E   E   M   S   E   E   M   S   E   E   M   S   E   E   M   S   E   E   M   
S   E   E   M   S   E   E   M   S   E   E   M   S   E   E   M   S   E   E   M   
S   E   E   M   S   E   E   M   S   E   E   M   S   E   E   M   S   E   E   M   
S   E   E   M   S   E   E   M   S   E   E   M   S   E   E   M   S   E   E   M   
S   E   E   M   S   E   E   M   S   E   E   M   S   E   E   M   S   E   E   M   
S   E   E   M   S   E   E   M   S   E   E   M   S   E   E   M   S   E   E   M   
S   E   E   M   S   E   E   M   S   E   E   M   S   E   E   M   S   E   E   M   
S   E   E   M   S   E   E   M   S   E   E   M   S   E   E   M   S   E   E   M   
S   E   E   M   S   E   E   M   S   E   E   M   S   E   E   M   S   E   E   M   
S   E   E   M   S   E   E   M   S   E   E   M   S   E   E   M   S   E   E   M   
S   E   E   M   S   E   E   M   S   E   E   M   S   E   E   M   S   E   E   M   
S   E   E   M   S   E   E   M   S   E   E   M   S   E   E   M   S   E   E   M   
S   E   E   M   S   E   E   M   S   E   E   M   S   E   E   M   S   E   E   M   
S   E   E   M   S   E   E   M   S   E   E   M   S   E   E   M   S   E   E   M   
S   E   E   M   S   E   E   M   S   E   E   M   S   E   E   M   S   E   E   M   
S   E   E   M   S   E   E   M   S   E   E   M   S   E   E   M   S   E   E   M   
S   E   E   M   S   E   E   M   S   E   E   M   S   E   E   M   S   E   E   M   
S   E   E   M   S   E   E   M   S   E   E   M   S   E   E   M   S   E   E   M   
S   E   E   M   S   E   E   M   S   E   E   M   S   E   E   M   S   E   E   M   
S   E   E   M   S   E   E   M   S   E   E   M   S   E   E   M   S   E   E   M   
S   E   E   M   S   E   E   M   S   E   E   M   S   E   E   M   S   E   E   M   
S   E   E   M   S   E   E   M   S   E   E   M   S   E   E   M   S   E   E   M   
S   E   E   M   S   E   E   M   S   E   E   M   S   E   E   M   S   E   E   M   
S   E   E   M   S   E   E   M   S   E   E   M   S   E   E   M   S   E   E   M   
S   E   E   M   S   E   E   M   S   E   E   M   S   E   E   M   S   E   E   M   
S   E   E   M   S   E   E   M   S   E   E   M   S   E   E   M   S   E   E   M   
S   E   E   M   S   E   E   M   S   E   E   M   S   E   E   M   S   E   E   M   
S   E   E   M   S   E   E   M   S   E   E   M   S   E   E   M   S   E   E   M   
S   E   E   M   S   E   E   M   S   E   E   M   S   E   E   M   S   E   E   M   
S   E   E   M   S   E   E   M   S   E   E   M   S   E   E   M   S   E   E   M   
S   E   E   M   S   E   E   M   S   E   E   M   S   E   E   M   S   E   E   M   
S   E   E   M   S   E   E   M   S   E   E   M   S   E   E   M   S   E   E   M   
S   E   E   M   S   E   E   M   S   E   E   M   S   E   E   M   S   E   E   M   
S   E   E   M   S   E   E   M   S   E   E   M   S   E   E   M   S   E   E   M   
S   E   E   M   S   E   E   M   S   E   E   M   S   E   E   M   S   E   E   M   
S   E   E   M   S   E   E   M   S   E   E   M   S   E   E   M   S   E   E   M   
S   E   E   M   S   E   E   M   S   E   E   M   S   E   E   M   S   E   E   M   
S   E   E   M   S   E   E   M   S   E   E   M   S   E   E   M   S   E   E   M   
S   E   E   M   S   E   E   M   S   E   E   M   S   E   E   M   S   E   E   M   
S   E   E   M   S   E   E   M   S   E   E   M   S   E   E   M   S   E   E   M   
S   E   E   M   S   E   E   M   S   E   E   M   S   E   E   M   S   E   E   M   
S   E   E   M   S   E   E   M   S   E   E   M   S   E   E   M   S   E   E   M   
S   E   E   M   S   E   E   M   S   E   E   M   S   E   E   M   S   E   E   M   
S   E   E   M   S   E   E   M   S   E   E   M   S   E   E   M   S   E   E   M   
S   E   E   M   S   E   E   M   S   E   E   M   S   E   E   M   S   E   E   M   
S   E   E   M   S   E   E   M   S   E   E   M   S   E   E   M   S   E   E   M   
S   E   E   M   S   E   E   M   S   E   E   M   S   E   E   M   S   E   E   M   
S   E   E   M   S   E   E   M   S   E   E   M   S   E   E   M   S   E   E   M   
S   E   E   M   S   E   E   M   S   E   E   M   S   E   E   M   S   E   E   M   
S   E   E   M   S   E   E   M   S   E   E   M   S   E   E   M   S   E   E   M   
S   E   E   M   S   E   E   M   S   E   E   M   S   E   E   M   S   E   E   M   
S   E   E   M   S   E   E   M   S   E   E   M   S   E   E   M   S   E   E   M   
S   E   E   M   S   E   E   M   S   E   E   M   S   E   E   M   S   E   E   M   
S   E   E   M   S   E   E   M   S   E   E   M   S   E   E   M   S   E   E   M   
S   E   E   M   S   E   E   M   S   E   E   M   S   E   E   M   S   E   E   M   
S   E   E   M   S   E   E   M   S   E   E   M   S   E   E   M   S   E   E   M   
S   E   E   M   S   E   E   M   S   E   E   M   S   E   E   M   S   E   E   M   
S   E   E   M   S   E   E   M   S   E   E   M   S   E   E   M   S   E   E   M   
S   E   E   M   S   E   E   M   S   E   E   M   S   E   E   M   S   E   E   M   
S   E   E   M   S   E   E   M   S   E   E   M   S   E   E   M   S   E   E   M   
S   E   E   M   S   E   E   M   S   E   E   M   S   E   E   M   S   E   E   M   
S   E   E   M   S   E   E   M   S   E   E   M   S   E   E   M   S   E   E   M   
S   E   E   M   S   E   E   M   S   E   E   M   S   E   E   M   S   E   E   M   
S   E   E   M   S   E   E   M   S   E   E   M   S   E   E   M   S   E   E   M   
S   E   E   M   S   E   E   M   S   E   E   M   S   E   E   M   S   E   E   M   
S   E   E   M   S   E   E   M   S   E   E   M   S   E   E   M   S   E   E   M   
S   E   E   M   S   E   E   M   S   E   E   M   S   E   E   M   S   E   E   M   
S   E   E   M   S   E   E   M   S   E   E   M   S   E   E   M   S   E   E   M   
S   E   E   M   S   E   E   M   S   E   E   M   S   E   E   M   S   E   E   M   
S   E   E   M   S   E   E   M   S   E   E   M   S   E   E   M   S   E   E   M   
S   E   E   M   S   E   E   M   S   E   E   M   S   E   E   M   S   E   E   M   
S   E   E   M   S   E   E   M   S   E   E   M   S   E   E   M   S   E   E   M   
S   E   E   M   S   E   E   M   S   E   E   M   S   E   E   M   S   E   E   M   
S   E   E   M   S   E   E   M   S   E   E   M   S   E   E   M   S   E   E   M   
S   E   E   M   S   E   E   M   S   E   E   M   S   E   E   M   S   E   E   M   
S   E   E   M   S   E   E   M   S   E   E   M   S   E   E   M   S   E   E   M   
S   E   E   M   S   E   E   M   S   E   E   M   S   E   E   M   S   E   E   M   
S   E   E   M   S   E   E   M   S   E   E   M   S   E   E   M   S   E   E   M   
S   E   E   M   S   E   E   M   S   E   E   M   S   E   E   M   S   E   E   M   
S   E   E   M   S   E   E   M   S   E   E   M   S   E   E   M   S   E   E   M   
S   E   E   M   S   E   E   M   S   E   E   M   S   E   E   M   S   E   E   M   
S   E   E   M   S   E   E   M   S   E   E   M   S   E   E   M   S   E   E   M   
S   E   E   M   S   E   E   M   S   E   E   M   S   E   E   M   S   E   E   M   
S   E   E   M   S   E   E   M   S   E   E   M   S   E   E   M   S   E   E   M   
S   E   E   M   S   E   E   M   S   E   E   M   S   E   E   M   S   E   E   M   
S   E   E   M   S   E   E   M   S   E   E   M   S   E   E   M   S   E   E   M   
S   E   E   M   S   E   E   M   S   E   E   M   S   E   E   M   S   E   E   M   
S   E   E   M   S   E   E   M   S   E   E   M   S   E   E   M   S   E   E   M   
S   E   E   M   S   E   E   M   S   E   E   M   S   E   E   M   S   E   E   M   
S   E   E   M   S   E   E   M   S   E   E   M   S   E   E   M   S   E   E   M   
S   E   E   M   S   E   E   M   S   E   E   M   S   E   E   M   S   E   E   M   
S   E   E   M   S   E   E   M   S   E   E   M   S   E   E   M   S   E   E   M   
S   E   E   M   S   E   E   M   S   E   E   M   S   E   E   M   S   E   E   M   
S   E   E   M   S   E   E   M   S   E   E   M   S   E   E   M   S   E   E   M   
S   E   E   M   S   E   E   M   S   E   E   M   S   E   E   M   S   E   E   M   
S   E   E   M   S   E   E   M   S   E   E   M   S   E   E   M   S   E   E   M   
S   E   E   M   S   E   E   M   S   E   E   M   S   E   E   M   S   E   E   M   
S   E   E   M   S   E   E   M   S   E   E   M   S   E   E   M   S   E   E   M   
S   E   E   M   S   E   E   M   S   E   E   M   S   E   E   M   S   E   E   M   
S   E   E   M   S   E   E   M   S   E   E   M   S   E   E   M   S   E   E   M   
S   E   E   M   S   E   E   M   S   E   E   M   S   E   E   M   S   E   E   M   
S   E   E   M   S   E   E   M   S   E   E   M   S   E   E   M   S   E   E   M   
S   E   E   M   S   E   E   M   S   E   E   M   S   E   E   M   S   E   E   M   
S   E   E   M   S   E   E   M   S   E   E   M   S   E   E   M   S   E   E   M   
S   E   E   M   S   E   E   M   S   E   E   M   S   E   E   M   S   E   E   M   
S   E   E   M   S   E   E   M   S   E   E   M   S   E   E   M   S   E   E   M   
S   E   E   M   S   E   E   M   S   E   E   M   S   E   E   M   S   E   E   M   
S   E   E   M   S   E   E   M   S   E   E   M   S   E   E   M   S   E   E   M   
S   E   E   M   S   E   E   M   S   E   E   M   S   E   E   M   S   E   E   M   
S   E   E   M   S   E   E   M   S   E   E   M   S   E   E   M   S   E   E   M   
S   E   E   M   S   E   E   M   S   E   E   M   S   E   E   M   S   E   E   M   
S   E   E   M   S   E   E   M   S   E   E   M   S   E   E   M   S   E   E   M   
S   E   E   M   S   E   E   M   S   E   E   M   S   E   E   M   S   E   E   M   
S   E   E   M   S   E   E   M   S   E   E   M   S   E   E   M   S   E   E   M   
S   E   E   M   S   E   E   M   S   E   E   M   S   E   E   M   S   E   E   M   
S   E   E   M   S   E   E   M   S   E   E   M   S   E   E   M   S   E   E   M   
S   E   E   M   S   E   E   M   S   E   E   M   S   E   E   M   S   E   E   M   
S   E   E   M   S   E   E   M   S   E   E   M   S   E   E   M   S   E   E   M   
S   E   E   M   S   E   E   M   S   E   E   M   S   E   E   M   S   E   E   M   
S   E   E   M   S   E   E   M   S   E   E   M   S   E   E   M   S   E   E   M   
S   E   E   M   S   E   E   M   S   E   E   M   S   E   E   M   S   E   E   M   
S   E   E   M   S   E   E   M   S   E   E   M   S   E   E   M   S   E   E   M   
S   E   E   M   S   E   E   M   S   E   E   M   S   E   E   M   S   E   E   M   
S   E   E   M   S   E   E   M   S   E   E   M   S   E   E   M   S   E   E   M   
S   E   E   M   S   E   E   M   S   E   E   M   S   E   E   M   S   E   E   M   
S   E   E   M   S   E   E   M   S   E   E   M   S   E   E   M   S   E   E   M   
S   E   E   M   S   E   E   M   S   E   E   M   S   E   E   M   S   E   E   M   
S   E   E   M   S   E   E   M   S   E   E   M   S   E   E   M   S   E   E   M   
S   E   E   M   S   E   E   M   S   E   E   M   S   E   E   M   S   E   E   M   
S   E   E   M   S   E   E   M   S   E   E   M   S   E   E   M   S   E   E   M   
S   E   E   M   S   E   E   M   S   E   E   M   S   E   E   M   S   E   E   M   
S   E   E   M   S   E   E   M   S   E   E   M   S   E   E   M   S   E   E   M   
S   E   E   M   S   E   E   M   S   E   E   M   S   E   E   M   S   E   E   M   
S   E   E   M   S   E   E   M   S   E   E   M   S   E   E   M   S   E   E   M   
S   E   E   M   S   E   E   M   S   E   E   M   S   E   E   M   S   E   E   M   
S   E   E   M   S   E   E   M   S   E   E   M   S   E   E   M   S   E   E   M   
S   E   E   M   S   E   E   M   S   E   E   M   S   E   E   M   S   E   E   M   
S   E   E   M   S   E   E   M   S   E   E   M   S   E   E   M   S   E   E   M   
S   E   E   M   S   E   E   M   S   E   E   M   S   E   E   M   S   E   E   M   
S   E   E   M   S   E   E   M   S   E   E   M   S   E   E   M   S   E   E   M   
S   E   E   M   S   E   E   M   S   E   E   M   S   E   E   M   S   E   E   M   
S   E   E   M   S   E   E   M   S   E   E   M   S   E   E   M   S   E   E   M   
S   E   E   M   S   E   E   M   S   E   E   M   S   E   E   M   S   E   E   M   
S   E   E   M   S   E   E   M   S   E   E   M   S   E   E   M   S   E   E   M   
S   E   E   M   S   E   E   M   S   E   E   M   S   E   E   M   S   E   E   M   
S   E   E   M   S   E   E   M   S   E   E   M   S   E   E   M   S   E   E   M   
S   E   E   M   S   E   E   M   S   E   E   M   S   E   E   M   S   E   E   M   
S   E   E   M   S   E   E   M   S   E   E   M   S   E   E   M   S   E   E   M   
S   E   E   M   S   E   E   M   S   E   E   M   S   E   E   M   S   E   E   M   
S   E   E   M   S   E   E   M   S   E   E   M   S   E   E   M   S   E   E   M   
S   E   E   M   S   E   E   M   S   E   E   M   S   E   E   M   S   E   E   M   
S   E   E   M   S   E   E   M   S   E   E   M   S   E   E   M   S   E   E   M   
S   E   E   M   S   E   E   M   S   E   E   M   S   E   E   M   S   E   E   M   
S   E   E   M   S   E   E   M   S   E   E   M   S   E   E   M   S   E   E   M   
S   E   E   M   S   E   E   M   S   E   E   M   S   E   E   M   S   E   E   M   
S   E   E   M   S   E   E   M   S   E   E   M   S   E   E   M   S   E   E   M   
S   E   E   M   S   E   E   M   S   E   E   M   S   E   E   M   S   E   E   M   
S   E   E   M   S   E   E   M   S   E   E   M   S   E   E   M   S   E   E   M   
S   E   E   M   S   E   E   M   S   E   E   M   S   E   E   M   S   E   E   M   
S   E   E   M   S   E   E   M   S   E   E   M   S   E   E   M   S   E   E   M   
S   E   E   M   S   E   E   M   S   E   E   M   S   E   E   M   S   E   E   M   
S   E   E   M   S   E   E   M   S   E   E   M   S   E   E   M   S   E   E   M   
S   E   E   M   S   E   E   M   S   E   E   M   S   E   E   M   S   E   E   M   
S   E   E   M   S   E   E   M   S   E   E   M   S   E   E   M   S   E   E   M   
S   E   E   M   S   E   E   M   S   E   E   M   S   E   E   M   S   E   E   M   
S   E   E   M   S   E   E   M   S   E   E   M   S   E   E   M   S   E   E   M   
S   E   E   M   S   E   E   M   S   E   E   M   S   E   E   M   S   E   E   M   
S   E   E   M   S   E   E   M   S   E   E   M   S   E   E   M   S   E   E   M   
S   E   E   M   S   E   E   M   S   E   E   M   S   E   E   M   S   E   E   M   
S   E   E   M   S   E   E   M   S   E   E   M   S   E   E   M   S   E   E   M   
S   E   E   M   S   E   E   M   S   E   E   M   S   E   E   M   S   E   E   M   
S   E   E   M   S   E   E   M   S   E   E   M   S   E   E   M   S   E   E   M   
S   E   E   M   S   E   E   M   S   E   E   M   S   E   E   M   S   E   E   M   
S   E   E   M   S   E   E   M   S   E   E   M   S   E   E   M   S   E   E   M   
S   E   E   M   S   E   E   M   S   E   E   M   S   E   E   M   S   E   E   M   
S   E   E   M   S   E   E   M   S   E   E   M   S   E   E   M   S   E   E   M   
S   E   E   M   S   E   E   M   S   E   E   M   S   E   E   M   S   E   E   M   
S   E   E   M   S   E   E   M   S   E   E   M   S   E   E   M   S   E   E   M   
S   E   E   M   S   E   E   M   S   E   E   M   S   E   E   M   S   E   E   M   
S   E   E   M   S   E   E   M   S   E   E   M   S   E   E   M   S   E   E   M   
S   E   E   M   S   E   E   M   S   E   E   M   S   E   E   M   S   E   E   M   
S   E   E   M   S   E   E   M   S   E   E   M   S   E   E   M   S   E   E   M   
S   E   E   M   S   E   E   M   S   E   E   M   S   E   E   M   S   E   E   M   
S   E   E   M   S   E   E   M   S   E   E   M   S   E   E   M   S   E   E   M   
S   E   E   M   S   E   E   M   S   E   E   M   S   E   E   M   S   E   E   M   
S   E   E   M   S   E   E   M   S   E   E   M   S   E   E   M   S   E   E   M   
S   E   E   M   S   E   E   M   S   E   E   M   S   E   E   M   S   E   E   M   
S   E   E   M   S   E   E   M   S   E   E   M   S   E   E   M   S   E   E   M   
S   E   E   M   S   E   E   M   S   E   E   M   S   E   E   M   S   E   E   M   
S   E   E   M   S   E   E   M   S   E   E   M   S   E   E   M   S   E   E   M   
S   E   E   M   S   E   E   M   S   E   E   M   S   E   E   M   S   E   E   M   
S   E   E   M   S   E   E   M   S   E   E   M   S   E   E   M   S   E   E   M   
S   E   E   M   S   E   E   M   S   E   E   M   S   E   E   M   S   E   E   M   
S   E   E   M   S   E   E   M   S   E   E   M   S   E   E   M   S   E   E   M   
S   E   E   M   S   E   E   M   S   E   E   M   S   E   E   M   S   E   E   M   
S   E   E   M   S   E   E   M   S   E   E   M   S   E   E   M   S   E   E   M   
S   E   E   M   S   E   E   M   S   E   E   M   S   E   E   M   S   E   E   M   
S   E   E   M   S   E   E   M   S   E   E   M   S   E   E   M   S   E   E   M   
S   E   E   M   S   E   E   M   S   E   E   M   S   E   E   M   S   E   E   M   
S   E   E   M   S   E   E   M   S   E   E   M   S   E   E   M   S   E   E   M   
S   E   E   M   S   E   E   M   S   E   E   M   S   E   E   M   S   E   E   M   
S   E   E   M   S   E   E   M   S   E   E   M   S   E   E   M   S   E   E   M   
S   E   E   M   S   E   E   M   S   E   E   M   S   E   E   M   S   E   E   M   
S   E   E   M   S   E   E   M   S   E   E   M   S   E   E   M   S   E   E   M   
S   E   E   M   S   E   E   M   S   E   E   M   S   E   E   M   S   E   E   M   
S   E   E   M   S   E   E   M   S   E   E   M   S   E   E   M   S   E   E   M   
S   E   E   M   S   E   E   M   S   E   E   M   S   E   E   M   S   E   E   M   
S   E   E   M   S   E   E   M   S   E   E   M   S   E   E   M   S   E   E   M   
S   E   E   M   S   E   E   M   S   E   E   M   S   E   E   M   S   E   E   M   
S   E   E   M   S   E   E   M   S   E   E   M   S   E   E   M   S   E   E   M   
S   E   E   M   S   E   E   M   S   E   E   M   S   E   E   M   S   E   E   M   
S   E   E   M   S   E   E   M   S   E   E   M   S   E   E   M   S   E   E   M   
S   E   E   M   S   E   E   M   S   E   E   M   S   E   E   M   S   E   E   M   
S   E   E   M   S   E   E   M   S   E   E   M   S   E   E   M   S   E   E   M   
S   E   E   M   S   E   E   M   S   E   E   M   S   E   E   M   S   E   E   M   
S   E   E   M   S   E   E   M   S   E   E   M   S   E   E   M   S   E   E   M   
S   E   E   M   S   E   E   M   S   E   E   M   S   E   E   M   S   E   E   M   
S   E   E   M   S   E   E   M   S   E   E   M   S   E   E   M   S   E   E   M   
S   E   E   M   S   E   E   M   S   E   E   M   S   E   E   M   S   E   E   M   
S   E   E   M   S   E   E   M   S   E   E   M   S   E   E   M   S   E   E   M   
S   E   E   M   S   E   E   M   S   E   E   M   S   E   E   M   S   E   E   M   
S   E   E   M   S   E   E   M   S   E   E   M   S   E   E   M   S   E   E   M   
S   E   E   M   S   E   E   M   S   E   E   M   S   E   E   M   S   E   E   M   
S   E   E   M   S   E   E   M   S   E   E   M   S   E   E   M   S   E   E   M   
S   E   E   M   S   E   E   M   S   E   E   M   S   E   E   M   S   E   E   M   
S   E   E   M   S   E   E   M   S   E   E   M   S   E   E   M   S   E   E   M   
S   E   E   M   S   E   E   M   S   E   E   M   S   E   E   M   S   E   E   M   
S   E   E   M   S   E   E   M   S   E   E   M   S   E   E   M   S   E   E   M   
S   E   E   M   S   E   E   M   S   E   E   M   S   E   E   M   S   E   E   M   
S   E   E   M   S   E   E   M   S   E   E   M   S   E   E   M   S   E   E   M   
S   E   E   M   S   E   E   M   S   E   E   M   S   E   E   M   S   E   E   M   
S   E   E   M   S   E   E   M   S   E   E   M   S   E   E   M   S   E   E   M   
S   E   E   M   S   E   E   M   S   E   E   M   S   E   E   M   S   E   E   M   
S   E   E   M   S   E   E   M   S   E   E   M   S   E   E   M   S   E   E   M   
S   E   E   M   S   E   E   M   S   E   E   M   S   E   E   M   S   E   E   M   
S   E   E   M   S   E   E   M   S   E   E   M   S   E   E   M   S   E   E   M   
S   E   E   M   S   E   E   M   S   E   E   M   S   E   E   M   S   E   E   M   
S   E   E   M   S   E   E   M   S   E   E   M   S   E   E   M   S   E   E   M   
S   E   E   M   S   E   E   M   S   E   E   M   S   E   E   M   S   E   E   M   
S   E   E   M   S   E   E   M   S   E   E   M   S   E   E   M   S   E   E   M   
S   E   E   M   S   E   E   M   S   E   E   M   S   E   E   M   S   E   E   M   
S   E   E   M   S   E   E   M   S   E   E   M   S   E   E   M   S   E   E   M   
S   E   E   M   S   E   E   M   S   E   E   M   S   E   E   M   S   E   E   M   
S   E   E   M   S   E   E   M   S   E   E   M   S   E   E   M   S   E   E   M   
S   E   E   M   S   E   E   M   S   E   E   M   S   E   E   M   S   E   E   M   
S   E   E   M   S   E   E   M   S   E   E   M   S   E   E   M   S   E   E   M   
S   E   E   M   S   E   E   M   S   E   E   M   S   E   E   M   S   E   E   M   
S   E   E   M   S   E   E   M   S   E   E   M   S   E   E   M   S   E   E   M   
S   E   E   M   S   E   E   M   S   E   E   M   S   E   E   M   S   E   E   M   
S   E   E   M   S   E   E   M   S   E   E   M   S   E   E   M   S   E   E   M   
S   E   E   M   S   E   E   M   S   E   E   M   S   E   E   M   S   E   E   M   
S   E   E   M   S   E   E   M   S   E   E   M   S   E   E   M   S   E   E   M   
S   E   E   M   S   E   E   M   S   E   E   M   S   E   E   M   S   E   E   M   
S   E   E   M   S   E   E   M   S   E   E   M   S   E   E   M   S   E   E   M   
S   E   E   M   S   E   E   M   S   E   E   M   S   E   E   M   S   E   E   M   
S   E   E   M   S   E   E   M   S   E   E   M   S   E   E   M   S   E   E   M   
S   E   E   M   S   E   E   M   S   E   E   M   S   E   E   M   S   E   E   M   
S   E   E   M   S   E   E   M   S   E   E   M   S   E   E   M   S   E   E   M   
S   E   E   M   S   E   E   M   S   E   E   M   S   E   E   M   S   E   E   M   
S   E   E   M   S   E   E   M   S   E   E   M   S   E   E   M   S   E   E   M   
S   E   E   M   S   E   E   M   S   E   E   M   S   E   E   M   S   E   E   M   
S   E   E   M   S   E   E   M   S   E   E   M   S   E   E   M   S   E   E   M   
S   E   E   M   S   E   E   M   S   E   E   M   S   E   E   M   S   E   E   M   
S   E   E   M   S   E   E   M   S   E   E   M   S   E   E   M   S   E   E   M   
S   E   E   M   S   E   E   M   S   E   E   M   S   E   E   M   S   E   E   M   
S   E   E   M   S   E   E   M   S   E   E   M   S   E   E   M   S   E   E   M   
S   E   E   M   S   E   E   M   S   E   E   M   S   E   E   M   S   E   E   M   
S   E   E   M   S   E   E   M   S   E   E   M   S   E   E   M   S   E   E   M   
S   E   E   M   S   E   E   M   S   E   E   M   S   E   E   M   S   E   E   M   
S   E   E   M   S   E   E   M   S   E   E   M   S   E   E   M   S   E   E   M   
S   E   E   M   S   E   E   M   S   E   E   M   S   E   E   M   S   E   E   M   
S   E   E   M   S   E   E   M   S   E   E   M   S   E   E   M   S   E   E   M   
S   E   E   M   S   E   E   M   S   E   E   M   S   E   E   M   S   E   E   M   
S   E   E   M   S   E   E   M   S   E   E   M   S   E   E   M   S   E   E   M   
S   E   E   M   S   E   E   M   S   E   E   M   S   E   E   M   S   E   E   M   
S   E   E   M   S   E   E   M   S   E   E   M   S   E   E   M   S   E   E   M   
S   E   E   M   S   E   E   M   S   E   E   M   S   E   E   M   S   E   E   M   
S   E   E   M   S   E   E   M   S   E   E   M   S   E   E   M   S   E   E   M   
S   E   E   M   S   E   E   M   S   E   E   M   S   E   E   M   S   E   E   M   
S   E   E   M   S   E   E   M   S   E   E   M   S   E   E   M   S   E   E   M   
S   E   E   M   S   E   E   M   S   E   E   M   S   E   E   M   S   E   E   M   
S   E   E   M   S   E   E   M   S   E   E   M   S   E   E   M   S   E   E   M   
S   E   E   M   S   E   E   M   S   E   E   M   S   E   E   M   S   E   E   M   
S   E   E   M   S   E   E   M   S   E   E   M   S   E   E   M   S   E   E   M   
S   E   E   M   S   E   E   M   S   E   E   M   S   E   E   M   S   E   E   M   
S   E   E   M   S   E   E   M   S   E   E   M   S   E   E   M   S   E   E   M   
S   E   E   M   S   E   E   M   S   E   E   M   S   E   E   M   S   E   E   M   
S   E   E   M   S   E   E   M   S   E   E   M   S   E   E   M   S   E   E   M   
S   E   E   M   S   E   E   M   S   E   E   M   S   E   E   M   S   E   E   M   
S   E   E   M   S   E   E   M   S   E   E   M   S   E   E   M   S   E   E   M   
S   E   E   M   S   E   E   M   S   E   E   M   S   E   E   M   S   E   E   M   
S   E   E   M   S   E   E   M   S   E   E   M   S   E   E   M   S   E   E   M   
S   E   E   M   S   E   E   M   S   E   E   M   S   E   E   M   S   E   E   M   
S   E   E   M   S   E   E   M   S   E   E   M   S   E   E   M   S   E   E   M   
S   E   E   M   S   E   E   M   S   E   E   M   S   E   E   M   S   E   E   M   
S   E   E   M   S   E   E   M   S   E   E   M   S   E   E   M   S   E   E   M   
S   E   E   M   S   E   E   M   S   E   E   M   S   E   E   M   S   E   E   M   
S   E   E   M   S   E   E   M   S   E   E   M   S   E   E   M   S   E   E   M   
S   E   E   M   S   E   E   M   S   E   E   M   S   E   E   M   S   E   E   M   
S   E   E   M   S   E   E   M   S   E   E   M   S   E   E   M   S   E   E   M   
S   E   E   M   S   E   E   M   S   E   E   M   S   E   E   M   S   E   E   M   
S   E   E   M   S   E   E   M   S   E   E   M   S   E   E   M   S   E   E   M   
S   E   E   M   S   E   E   M   S   E   E   M   S   E   E   M   S   E   E   M   
S   E   E   M   S   E   E   M   S   E   E   M   S   E   E   M   S   E   E   M   
S   E   E   M   S   E   E   M   S   E   E   M   S   E   E   M   S   E   E   M   
S   E   E   M   S   E   E   M   S   E   E   M   S   E   E   M   S   E   E   M   
S   E   E   M   S   E   E   M   S   E   E   M   S   E   E   M   S   E   E   M   
S   E   E   M   S   E   E   M   S   E   E   M   S   E   E   M   S   E   E   M   
S   E   E   M   S   E   E   M   S   E   E   M   S   E   E   M   S   E   E   M   
S   E   E   M   S   E   E   M   S   E   E   M   S   E   E   M   S   E   E   M   
S   E   E   M   S   E   E   M   S   E   E   M   S   E   E   M   S   E   E   M   
S   E   E   M   S   E   E   M   S   E   E   M   S   E   E   M   S   E   E   M   
S   E   E   M   S   E   E   M   S   E   E   M   S   E   E   M   S   E   E   M   
S   E   E   M   S   E   E   M   S   E   E   M   S   E   E   M   S   E   E   M   
S   E   E   M   S   E   E   M   S   E   E   M   S   E   E   M   S   E   E   M   
S   E   E   M   S   E   E   M   S   E   E   M   S   E   E   M   S   E   E   M   
S   E   E   M   S   E   E   M   S   E   E   M   S   E   E   M   S   E   E   M   
S   E   E   M   S   E   E   M   S   E   E   M   S   E   E   M   S   E   E   M   
S   E   E   M   S   E   E   M   S   E   E   M   S   E   E   M   S   E   E   M   
S   E   E   M   S   E   E   M   S   E   E   M   S   E   E   M   S   E   E   M   
S   E   E   M   S   E   E   M   S   E   E   M   S   E   E   M   S   E   E   M   
S   E   E   M   S   E   E   M   S   E   E   M   S   E   E   M   S   E   E   M   
S   E   E   M   S   E   E   M   S   E   E   M   S   E   E   M   S   E   E   M   
S   E   E   M   S   E   E   M   S   E   E   M   S   E   E   M   S   E   E   M   
S   E   E   M   S   E   E   M   S   E   E   M   S   E   E   M   S   E   E   M   
S   E   E   M   S   E   E   M   S   E   E   M   S   E   E   M   S   E   E   M   
S   E   E   M   S   E   E   M   S   E   E   M   S   E   E   M   S   E   E   M   
S   E   E   M   S   E   E   M   S   E   E   M   S   E   E   M   S   E   E   M   
S   E   E   M   S   E   E   M   S   E   E   M   S   E   E   M   S   E   E   M   
S   E   E   M   S   E   E   M   S   E   E   M   S   E   E   M   S   E   E   M   
S   E   E   M   S   E   E   M   S   E   E   M   S   E   E   M   S   E   E   M   
S   E   E   M   S   E   E   M   S   E   E   M   S   E   E   M   S   E   E   M   
S   E   E   M   S   E   E   M   S   E   E   M   S   E   E   M   S   E   E   M   
S   E   E   M   S   E   E   M   S   E   E   M   S   E   E   M   S   E   E   M   
S   E   E   M   S   E   E   M   S   E   E   M   S   E   E   M   S   E   E   M   
S   E   E   M   S   E   E   M   S   E   E   M   S   E   E   M   S   E   E   M   
S   E   E   M   S   E   E   M   S   E   E   M   S   E   E   M   S   E   E   M   
S   E   E   M   S   E   E   M   S   E   E   M   S   E   E   M   S   E   E   M   
S   E   E   M   S   E   E   M   S   E   E   M   S   E   E   M   S   E   E   M   
S   E   E   M   S   E   E   M   S   E   E   M   S   E   E   M   S   E   E   M   
S   E   E   M   S   E   E   M   S   E   E   M   S   E   E   M   S   E   E   M   
S   E   E   M   S   E   E   M   S   E   E   M   S   E   E   M   S   E   E   M   
S   E   E   M   S   E   E   M   S   E   E   M   S   E   E   M   S   E   E   M   
S   E   E   M   S   E   E   M   S   E   E   M   S   E   E   M   S   E   E   M   
S   E   E   M   S   E   E   M   S   E   E   M   S   E   E   M   S   E   E   M   
S   E   E   M   S   E   E   M   S   E   E   M   S   E   E   M   S   E   E   M   
S   E   E   M   S   E   E   M   S   E   E   M   S   E   E   M   S   E   E   M   
S   E   E   M   S   E   E   M   S   E   E   M   S   E   E   M   S   E   E   M   
S   E   E   M   S   E   E   M   S   E   E   M   S   E   E   M   S   E   E   M   
S   E   E   M   S   E   E   M   S   E   E   M   S   E   E   M   S   E   E   M   
S   E   E   M   S   E   E   M   S   E   E   M   S   E   E   M   S   E   E   M   
S   E   E   M   S   E   E   M   S   E   E   M   S   E   E   M   S   E   E   M   
S   E   E   M   S   E   E   M   S   E   E   M   S   E   E   M   S   E   E   M   
S   E   E   M   S   E   E   M   S   E   E   M   S   E   E   M   S   E   E   M   
S   E   E   M   S   E   E   M   S   E   E   M   S   E   E   M   S   E   E   M   
S   E   E   M   S   E   E   M   S   E   E   M   S   E   E   M   S   E   E   M   
S   E   E   M   S   E   E   M   S   E   E   M   S   E   E   M   S   E   E   M   
S   E   E   M   S   E   E   M   S   E   E   M   S   E   E   M   S   E   E   M   
S   E   E   M   S   E   E   M   S   E   E   M   S   E   E   M   S   E   E   M   
S   E   E   M   S   E   E   M   S   E   E   M   S   E   E   M   S   E   E   M   
S   E   E   M   S   E   E   M   S   E   E   M   S   E   E   M   S   E   E   M   
S   E   E   M   S   E   E   M   S   E   E   M   S   E   E   M   S   E   E   M   
S   E   E   M   S   E   E   M   S   E   E   M   S   E   E   M   S   E   E   M   
S   E   E   M   S   E   E   M   S   E   E   M   S   E   E   M   S   E   E   M   
S   E   E   M   S   E   E   M   S   E   E   M   S   E   E   M   S   E   E   M   
S   E   E   M   S   E   E   M   S   E   E   M   S   E   E   M   S   E   E   M   
S   E   E   M   S   E   E   M   S   E   E   M   S   E   E   M   S   E   E   M   
S   E   E   M   S   E   E   M   S   E   E   M   S   E   E   M   S   E   E   M   
S   E   E   M   S   E   E   M   S   E   E   M   S   E   E   M   S   E   E   M   
S   E   E   M   S   E   E   M   S   E   E   M   S   E   E   M   S   E   E   M   
S   E   E   M   S   E   E   M   S   E   E   M   S   E   E   M   S   E   E   M   
S   E   E   M   S   E   E   M   S   E   E   M   S   E   E   M   S   E   E   M   
S   E   E   M   S   E   E   M   S   E   E   M   S   E   E   M   S   E   E   M   
S   E   E   M   S   E   E   M   S   E   E   M   S   E   E   M   S   E   E   M   
S   E   E   M   S   E   E   M   S   E   E   M   S   E   E   M   S   E   E   M   
S   E   E   M   S   E   E   M   S   E   E   M   S   E   E   M   S   E   E   M   
S   E   E   M   S   E   E   M   S   E   E   M   S   E   E   M   S   E   E   M   
S   E   E   M   S   E   E   M   S   E   E   M   S   E   E   M   S   E   E   M   
S   E   E   M   S   E   E   M   S   E   E   M   S   E   E   M   S   E   E   M   
S   E   E   M   S   E   E   M   S   E   E   M   S   E   E   M   S   E   E   M   
S   E   E   M   S   E   E   M   S   E   E   M   S   E   E   M   S   E   E   M   
S   E   E   M   S   E   E   M   S   E   E   M   S   E   E   M   S   E   E   M   
S   E   E   M   S   E   E   M   S   E   E   M   S   E   E   M   S   E   E   M   
S   E   E   M   S   E   E   M   S   E   E   M   S   E   E   M   S   E   E   M   
S   E   E   M   S   E   E   M   S   E   E   M   S   E   E   M   S   E   E   M   
S   E   E   M   S   E   E   M   S   E   E   M   S   E   E   M   S   E   E   M   
S   E   E   M   S   E   E   M   S   E   E   M   S   E   E   M   S   E   E   M   
S   E   E   M   S   E   E   M   S   E   E   M   S   E   E   M   S   E   E   M   
S   E   E   M   S   E   E   M   S   E   E   M   S   E   E   M   S   E   E   M   
S   E   E   M   S   E   E   M   S   E   E   M   S   E   E   M   S   E   E   M   
S   E   E   M   S   E   E   M   S   E   E   M   S   E   E   M   S   E   E   M   
S   E   E   M   S   E   E   M   S   E   E   M   S   E   E   M   S   E   E   M   
S   E   E   M   S   E   E   M   S   E   E   M   S   E   E   M   S   E   E   M   
S   E   E   M   S   E   E   M   S   E   E   M   S   E   E   M   S   E   E   M   
S   E   E   M   S   E   E   M   S   E   E   M   S   E   E   M   S   E   E   M   
S   E   E   M   S   E   E   M   S   E   E   M   S   E   E   M   S   E   E   M   
S   E   E   M   S   E   E   M   S   E   E   M   S   E   E   M   S   E   E   M   
S   E   E   M   S   E   E   M   S   E   E   M   S   E   E   M   S   E   E   M   
S   E   E   M   S   E   E   M   S   E   E   M   S   E   E   M   S   E   E   M   
S   E   E   M   S   E   E   M   S   E   E   M   S   E   E   M   S   E   E   M   
S   E   E   M   S   E   E   M   S   E   E   M   S   E   E   M   S   E   E   M   
S   E   E   M   S   E   E   M   S   E   E   M   S   E   E   M   S   E   E   M   
S   E   E   M   S   E   E   M   S   E   E   M   S   E   E   M   S   E   E   M   
S   E   E   M   S   E   E   M   S   E   E   M   S   E   E   M   S   E   E   M   
S   E   E   M   S   E   E   M   S   E   E   M   S   E   E   M   S   E   E   M   
S   E   E   M   S   E   E   M   S   E   E   M   S   E   E   M   S   E   E   M   
S   E   E   M   S   E   E   M   S   E   E   M   S   E   E   M   S   E   E   M   
S   E   E   M   S   E   E   M   S   E   E   M   S   E   E   M   S   E   E   M   
S   E   E   M   S   E   E   M   S   E   E   M   S   E   E   M   S   E   E   M   
S   E   E   M   S   E   E   M   S   E   E   M   S   E   E   M   S   E   E   M   
S   E   E   M   S   E   E   M   S   E   E   M   S   E   E   M   S   E   E   M   
S   E   E   M   S   E   E   M   S   E   E   M   S   E   E   M   S   E   E   M   
S   E   E   M   S   E   E   M   S   E   E   M   S   E   E   M   S   E   E   M   
S   E   E   M   S   E   E   M   S   E   E   M   S   E   E   M   S   E   E   M   
S   E   E   M   S   E   E   M   S   E   E   M   S   E   E   M   S   E   E   M   
S   E   E   M   S   E   E   M   S   E   E   M   S   E   E   M   S   E   E   M   
S   E   E   M   S   E   E   M   S   E   E   M   S   E   E   M   S   E   E   M   
S   E   E   M   S   E   E   M   S   E   E   M   S   E   E   M   S   E   E   M   
S   E   E   M   S   E   E   M   S   E   E   M   S   E   E   M   S   E   E   M   
S   E   E   M   S   E   E   M   S   E   E   M   S   E   E   M   S   E   E   M   
S   E   E   M   S   E   E   M   S   E   E   M   S   E   E   M   S   E   E   M   
S   E   E   M   S   E   E   M   S   E   E   M   S   E   E   M   S   E   E   M   
S   E   E   M   S   E   E   M   S   E   E   M   S   E   E   M   S   E   E   M   
S   E   E   M   S   E   E   M   S   E   E   M   S   E   E   M   S   E   E   M   
S   E   E   M   S   E   E   M   S   E   E   M   S   E   E   M   S   E   E   M   
S   E   E   M   S   E   E   M   S   E   E   M   S   E   E   M   S   E   E   M   
S   E   E   M   S   E   E   M   S   E   E   M   S   E   E   M   S   E   E   M   
S   E   E   M   S   E   E   M   S   E   E   M   S   E   E   M   S   E   E   M   
S   E   E   M   S   E   E   M   S   E   E   M   S   E   E   M   S   E   E   M   
S   E   E   M   S   E   E   M   S   E   E   M   S   E   E   M   S   E   E   M   
S   E   E   M   S   E   E   M   S   E   E   M   S   E   E   M   S   E   E   M   
S   E   E   M   S   E   E   M   S   E   E   M   S   E   E   M   S   E   E   M   
S   E   E   M   S   E   E   M   S   E   E   M   S   E   E   M   S   E   E   M   
S   E   E   M   S   E   E   M   S   E   E   M   S   E   E   M   S   E   E   M   
S   E   E   M   S   E   E   M   S   E   E   M   S   E   E   M   S   E   E   M   
S   E   E   M   S   E   E   M   S   E   E   M   S   E   E   M   S   E   E   M   
S   E   E   M   S   E   E   M   S   E   E   M   S   E   E   M   S   E   E   M   
S   E   E   M   S   E   E   M   S   E   E   M   S   E   E   M   S   E   E   M   
S   E   E   M   S   E   E   M   S   E   E   M   S   E   E   M   S   E   E   M   
S   E   E   M   S   E   E   M   S   E   E   M   S   E   E   M   S   E   E   M   
S   E   E   M   S   E   E   M   S   E   E   M   S   E   E   M   S   E   E   M   
S   E   E   M   S   E   E   M   S   E   E   M   S   E   E   M   S   E   E   M   
S   E   E   M   S   E   E   M   S   E   E   M   S   E   E   M   S   E   E   M   
S   E   E   M   S   E   E   M   S   E   E   M   S   E   E   M   S   E   E   M   
S   E   E   M   S   E   E   M   S   E   E   M   S   E   E   M   S   E   E   M   
S   E   E   M   S   E   E   M   S   E   E   M   S   E   E   M   S   E   E   M   
S   E   E   M   S   E   E   M   S   E   E   M   S   E   E   M   S   E   E   M   
S   E   E   M   S   E   E   M   S   E   E   M   S   E   E   M   S   E   E   M   
S   E   E   M   S   E   E   M   S   E   E   M   S   E   E   M   S   E   E   M   
S   E   E   M   S   E   E   M   S   E   E   M   S   E   E   M   S   E   E   M   
S   E   E   M   S   E   E   M   S   E   E   M   S   E   E   M   S   E   E   M   
S   E   E   M   S   E   E   M   S   E   E   M   S   E   E   M   S   E   E   M   
S   E   E   M   S   E   E   M   S   E   E   M   S   E   E   M   S   E   E   M   
S   E   E   M   S   E   E   M   S   E   E   M   S   E   E   M   S   E   E   M   
S   E   E   M   S   E   E   M   S   E   E   M   S   E   E   M   S   E   E   M   
S   E   E   M   S   E   E   M   S   E   E   M   S   E   E   M   S   E   E   M   
S   E   E   M   S   E   E   M   S   E   E   M   S   E   E   M   S   E   E   M   
S   E   E   M   S   E   E   M   S   E   E   M   S   E   E   M   S   E   E   M   
S   E   E   M   S   E   E   M   S   E   E   M   S   E   E   M   S   E   E   M   
S   E   E   M   S   E   E   M   S   E   E   M   S   E   E   M   S   E   E   M   
S   E   E   M   S   E   E   M   S   E   E   M   S   E   E   M   S   E   E   M   
S   E   E   M   S   E   E   M   S   E   E   M   S   E   E   M   S   E   E   M   
S   E   E   M   S   E   E   M   S   E   E   M   S   E   E   M   S   E   E   M   
S   E   E   M   S   E   E   M   S   E   E   M   S   E   E   M   S   E   E   M   
S   E   E   M   S   E   E   M   S   E   E   M   S   E   E   M   S   E   E   M   
S   E   E   M   S   E   E   M   S   E   E   M   S   E   E   M   S   E   E   M   
S   E   E   M   S   E   E   M   S   E   E   M   S   E   E   M   S   E   E   M   
S   E   E   M   S   E   E   M   S   E   E   M   S   E   E   M   S   E   E   M   
S   E   E   M   S   E   E   M   S   E   E   M   S   E   E   M   S   E   E   M   
S   E   E   M   S   E   E   M   S   E   E   M   S   E   E   M   S   E   E   M   
S   E   E   M   S   E   E   M   S   E   E   M   S   E   E   M   S   E   E   M   
S   E   E   M   S   E   E   M   S   E   E   M   S   E   E   M   S   E   E   M   
S   E   E   M   S   E   E   M   S   E   E   M   S   E   E   M   S   E   E   M   
S   E   E   M   S   E   E   M   S   E   E   M   S   E   E   M   S   E   E   M   
S   E   E   M   S   E   E   M   S   E   E   M   S   E   E   M   S   E   E   M   
S   E   E   M   S   E   E   M   S   E   E   M   S   E   E   M   S   E   E   M   
S   E   E   M   S   E   E   M   S   E   E   M   S   E   E   M   S   E   E   M   
S   E   E   M   S   E   E   M   S   E   E   M   S   E   E   M   S   E   E   M   
S   E   E   M   S   E   E   M   S   E   E   M   S   E   E   M   S   E   E   M   
S   E   E   M   S   E   E   M   S   E   E   M   S   E   E   M   S   E   E   M   
S   E   E   M   S   E   E   M   S   E   E   M   S   E   E   M   S   E   E   M   
S   E   E   M   S   E   E   M   S   E   E   M   S   E   E   M   S   E   E   M   
S   E   E   M   S   E   E   M   S   E   E   M   S   E   E   M   S   E   E   M   
S   E   E   M   S   E   E   M   S   E   E   M   S   E   E   M   S   E   E   M   
S   E   E   M   S   E   E   M   S   E   E   M   S   E   E   M   S   E   E   M   
S   E   E   M   S   E   E   M   S   E   E   M   S   E   E   M   S   E   E   M   
S   E   E   M   S   E   E   M   S   E   E   M   S   E   E   M   S   E   E   M   
S   E   E   M   S   E   E   M   S   E   E   M   S   E   E   M   S   E   E   M   
S   E   E   M   S   E   E   M   S   E   E   M   S   E   E   M   S   E   E   M   
S   E   E   M   S   E   E   M   S   E   E   M   S   E   E   M   S   E   E   M   
S   E   E   M   S   E   E   M   S   E   E   M   S   E   E   M   S   E   E   M   
S   E   E   M   S   E   E   M   S   E   E   M   S   E   E   M   S   E   E   M   
S   E   E   M   S   E   E   M   S   E   E   M   S   E   E   M   S   E   E   M   
S   E   E   M   S   E   E   M   S   E   E   M   S   E   E   M   S   E   E   M   
S   E   E   M   S   E   E   M   S   E   E   M   S   E   E   M   S   E   E   M   
S   E   E   M   S   E   E   M   S   E   E   M   S   E   E   M   S   E   E   M   
S   E   E   M   S   E   E   M   S   E   E   M   S   E   E   M   S   E   E   M   
S   E   E   M   S   E   E   M   S   E   E   M   S   E   E   M   S   E   E   M   
S   E   E   M   S   E   E   M   S   E   E   M   S   E   E   M   S   E   E   M   
S   E   E   M   S   E   E   M   S   E   E   M   S   E   E   M   S   E   E   M   
S   E   E   M   S   E   E   M   S   E   E   M   S   E   E   M   S   E   E   M   
S   E   E   M   S   E   E   M   S   E   E   M   S   E   E   M   S   E   E   M   
S   E   E   M   S   E   E   M   S   E   E   M   S   E   E   M   S   E   E   M   
S   E   E   M   S   E   E   M   S   E   E   M   S   E   E   M   S   E   E   M   
S   E   E   M   S   E   E   M   S   E   E   M   S   E   E   M   S   E   E   M   
S   E   E   M   S   E   E   M   S   E   E   M   S   E   E   M   S   E   E   M   
S   E   E   M   S   E   E   M   S   E   E   M   S   E   E   M   S   E   E   M   
S   E   E   M   S   E   E   M   S   E   E   M   S   E   E   M   S   E   E   M   
S   E   E   M   S   E   E   M   S   E   E   M   S   E   E   M   S   E   E   M   
S   E   E   M   S   E   E   M   S   E   E   M   S   E   E   M   S   E   E   M   
S   E   E   M   S   E   E   M   S   E   E   M   S   E   E   M   S   E   E   M   
S   E   E   M   S   E   E   M   S   E   E   M   S   E   E   M   S   E   E   M   
S   E   E   M   S   E   E   M   S   E   E   M   S   E   E   M   S   E   E   M   
S   E   E   M   S   E   E   M   S   E   E   M   S   E   E   M   S   E   E   M   
S   E   E   M   S   E   E   M   S   E   E   M   S   E   E   M   S   E   E   M   
S   E   E   M   S   E   E   M   S   E   E   M   S   E   E   M   S   E   E   M   
S   E   E   M   S   E   E   M   S   E   E   M   S   E   E   M   S   E   E   M   
S   E   E   M   S   E   E   M   S   E   E   M   S   E   E   M   S   E   E   M   
S   E   E   M   S   E   E   M   S   E   E   M   S   E   E   M   S   E   E   M   
S   E   E   M   S   E   E   M   S   E   E   M   S   E   E   M   S   E   E   M   
S   E   E   M   S   E   E   M   S   E   E   M   S   E   E   M   S   E   E   M   
S   E   E   M   S   E   E   M   S   E   E   M   S   E   E   M   S   E   E   M   
S   E   E   M   S   E   E   M   S   E   E   M   S   E   E   M   S   E   E   M   
S   E   E   M   S   E   E   M   S   E   E   M   S   E   E   M   S   E   E   M   
S   E   E   M   S   E   E   M   S   E   E   M   S   E   E   M   S   E   E   M   
S   E   E   M   S   E   E   M   S   E   E   M   S   E   E   M   S   E   E   M   
S   E   E   M   S   E   E   M   S   E   E   M   S   E   E   M   S   E   E   M   
S   E   E   M   S   E   E   M   S   E   E   M   S   E   E   M   S   E   E   M   
S   E   E   M   S   E   E   M   S   E   E   M   S   E   E   M   S   E   E   M   
S   E   E   M   S   E   E   M   S   E   E   M   S   E   E   M   S   E   E   M   
S   E   E   M   S   E   E   M   S   E   E   M   S   E   E   M   S   E   E   M   
S   E   E   M   S   E   E   M   S   E   E   M   S   E   E   M   S   E   E   M   
S   E   E   M   S   E   E   M   S   E   E   M   S   E   E   M   S   E   E   M   
S   E   E   M   S   E   E   M   S   E   E   M   S   E   E   M   S   E   E   M   
S   E   E   M   S   E   E   M   S   E   E   M   S   E   E   M   S   E   E   M   
S   E   E   M   S   E   E   M   S   E   E   M   S   E   E   M   S   E   E   M   
S   E   E   M   S   E   E   M   S   E   E   M   S   E   E   M   S   E   E   M   
S   E   E   M   S   E   E   M   S   E   E   M   S   E   E   M   S   E   E   M   
S   E   E   M   S   E   E   M   S   E   E   M   S   E   E   M   S   E   E   M   
S   E   E   M   S   E   E   M   S   E   E   M   S   E   E   M   S   E   E   M   
S   E   E   M   S   E   E   M   S   E   E   M   S   E   E   M   S   E   E   M   
S   E   E   M   S   E   E   M   S   E   E   M   S   E   E   M   S   E   E   M   
S   E   E   M   S   E   E   M   S   E   E   M   S   E   E   M   S   E   E   M   
S   E   E   M   S   E   E   M   S   E   E   M   S   E   E   M   S   E   E   M   
S   E   E   M   S   E   E   M   S   E   E   M   S   E   E   M   S   E   E   M   
S   E   E   M   S   E   E   M   S   E   E   M   S   E   E   M   S   E   E   M   
S   E   E   M   S   E   E   M   S   E   E   M   S   E   E   M   S   E   E   M   
S   E   E   M   S   E   E   M   S   E   E   M   S   E   E   M   S   E   E   M   
S   E   E   M   S   E   E   M   S   E   E   M   S   E   E   M   S   E   E   M   
S   E   E   M   S   E   E   M   S   E   E   M   S   E   E   M   S   E   E   M   
S   E   E   M   S   E   E   M   S   E   E   M   S   E   E   M   S   E   E   M   
S   E   E   M   S   E   E   M   S   E   E   M   S   E   E   M   S   E   E   M   
S   E   E   M   S   E   E   M   S   E   E   M   S   E   E   M   S   E   E   M   
S   E   E   M   S   E   E   M   S   E   E   M   S   E   E   M   S   E   E   M   
S   E   E   M   S   E   E   M   S   E   E   M   S   E   E   M   S   E   E   M   
S   E   E   M   S   E   E   M   S   E   E   M   S   E   E   M   S   E   E   M   
S   E   E   M   S   E   E   M   S   E   E   M   S   E   E   M   S   E   E   M   
S   E   E   M   S   E   E   M   S   E   E   M   S   E   E   M   S   E   E   M   
S   E   E   M   S   E   E   M   S   E   E   M   S   E   E   M   S   E   E   M   
S   E   E   M   S   E   E   M   S   E   E   M   S   E   E   M   S   E   E   M   
S   E   E   M   S   E   E   M   S   E   E   M   S   E   E   M   S   E   E   M   
S   E   E   M   S   E   E   M   S   E   E   M   S   E   E   M   S   E   E   M   
S   E   E   M   S   E   E   M   S   E   E   M   S   E   E   M   S   E   E   M   
S   E   E   M   S   E   E   M   S   E   E   M   S   E   E   M   S   E   E   M   
S   E   E   M   S   E   E   M   S   E   E   M   S   E   E   M   S   E   E   M   
S   E   E   M   S   E   E   M   S   E   E   M   S   E   E   M   S   E   E   M   
S   E   E   M   S   E   E   M   S   E   E   M   S   E   E   M   S   E   E   M   
S   E   E   M   S   E   E   M   S   E   E   M   S   E   E   M   S   E   E   M   
S   E   E   M   S   E   E   M   S   E   E   M   S   E   E   M   S   E   E   M   
S   E   E   M   S   E   E   M   S   E   E   M   S   E   E   M   S   E   E   M   
S   E   E   M   S   E   E   M   S   E   E   M   S   E   E   M   S   E   E   M   
S   E   E   M   S   E   E   M   S   E   E   M   S   E   E   M   S   E   E   M   
S   E   E   M   S   E   E   M   S   E   E   M   S   E   E   M   S   E   E   M   
S   E   E   M   S   E   E   M   S   E   E   M   S   E   E   M   S   E   E   M   
S   E   E   M   S   E   E   M   S   E   E   M   S   E   E   M   S   E   E   M   
S   E   E   M   S   E   E   M   S   E   E   M   S   E   E   M   S   E   E   M   
S   E   E   M   S   E   E   M   S   E   E   M   S   E   E   M   S   E   E   M   
S   E   E   M   S   E   E   M   S   E   E   M   S   E   E   M   S   E   E   M   
S   E   E   M   S   E   E   M   S   E   E   M   S   E   E   M   S   E   E   M   
S   E   E   M   S   E   E   M   S   E   E   M   S   E   E   M   S   E   E   M   
S   E   E   M   S   E   E   M   S   E   E   M   S   E   E   M   S   E   E   M   
S   E   E   M   S   E   E   M   S   E   E   M   S   E   E   M   S   E   E   M   
S   E   E   M   S   E   E   M   S   E   E   M   S   E   E   M   S   E   E   M   
S   E   E   M   S   E   E   M   S   E   E   M   S   E   E   M   S   E   E   M   
S   E   E   M   S   E   E   M   S   E   E   M   S   E   E   M   S   E   E   M   
S   E   E   M   S   E   E   M   S   E   E   M   S   E   E   M   S   E   E   M   
S   E   E   M   S   E   E   M   S   E   E   M   S   E   E   M   S   E   E   M   
S   E   E   M   S   E   E   M   S   E   E   M   S   E   E   M   S   E   E   M   
S   E   E   M   S   E   E   M   S   E   E   M   S   E   E   M   S   E   E   M   
S   E   E   M   S   E   E   M   S   E   E   M   S   E   E   M   S   E   E   M   
S   E   E   M   S   E   E   M   S   E   E   M   S   E   E   M   S   E   E   M   
S   E   E   M   S   E   E   M   S   E   E   M   S   E   E   M   S   E   E   M   
S   E   E   M   S   E   E   M   S   E   E   M   S   E   E   M   S   E   E   M   
S   E   E   M   S   E   E   M   S   E   E   M   S   E   E   M   S   E   E   M   
S   E   E   M   S   E   E   M   S   E   E   M   S   E   E   M   S   E   E   M   
S   E   E   M   S   E   E   M   S   E   E   M   S   E   E   M   S   E   E   M   
S   E   E   M   S   E   E   M   S   E   E   M   S   E   E   M   S   E   E   M   
S   E   E   M   S   E   E   M   S   E   E   M   S   E   E   M   S   E   E   M   
S   E   E   M   S   E   E   M   S   E   E   M   S   E   E   M   S   E   E   M   
S   E   E   M   S   E   E   M   S   E   E   M   S   E   E   M   S   E   E   M   
S   E   E   M   S   E   E   M   S   E   E   M   S   E   E   M   S   E   E   M   
S   E   E   M   S   E   E   M   S   E   E   M   S   E   E   M   S   E   E   M   
S   E   E   M   S   E   E   M   S   E   E   M   S   E   E   M   S   E   E   M   
S   E   E   M   S   E   E   M   S   E   E   M   S   E   E   M   S   E   E   M   
S   E   E   M   S   E   E   M   S   E   E   M   S   E   E   M   S   E   E   M   
S   E   E   M   S   E   E   M   S   E   E   M   S   E   E   M   S   E   E   M   
S   E   E   M   S   E   E   M   S   E   E   M   S   E   E   M   S   E   E   M   
S   E   E   M   S   E   E   M   S   E   E   M   S   E   E   M   S   E   E   M   
S   E   E   M   S   E   E   M   S   E   E   M   S   E   E   M   S   E   E   M   
S   E   E   M   S   E   E   M   S   E   E   M   S   E   E   M   S   E   E   M   
S   E   E   M   S   E   E   M   S   E   E   M   S   E   E   M   S   E   E   M   
S   E   E   M   S   E   E   M   S   E   E   M   S   E   E   M   S   E   E   M   
S   E   E   M   S   E   E   M   S   E   E   M   S   E   E   M   S   E   E   M   
S   E   E   M   S   E   E   M   S   E   E   M   S   E   E   M   S   E   E   M   
S   E   E   M   S   E   E   M   S   E   E   M   S   E   E   M   S   E   E   M   
S   E   E   M   S   E   E   M   S   E   E   M   S   E   E   M   S   E   E   M   
S   E   E   M   S   E   E   M   S   E   E   M   S   E   E   M   S   E   E   M   
S   E   E   M   S   E   E   M   S   E   E   M   S   E   E   M   S   E   E   M   
S   E   E   M   S   E   E   M   S   E   E   M   S   E   E   M   S   E   E   M   
S   E   E   M   S   E   E   M   S   E   E   M   S   E   E   M   S   E   E   M   
S   E   E   M   S   E   E   M   S   E   E   M   S   E   E   M   S   E   E   M   
S   E   E   M   S   E   E   M   S   E   E   M   S   E   E   M   S   E   E   M   
S   E   E   M   S   E   E   M   S   E   E   M   S   E   E   M   S   E   E   M   
S   E   E   M   S   E   E   M   S   E   E   M   S   E   E   M   S   E   E   M   
S   E   E   M   S   E   E   M   S   E   E   M   S   E   E   M   S   E   E   M   
S   E   E   M   S   E   E   M   S   E   E   M   S   E   E   M   S   E   E   M   
S   E   E   M   S   E   E   M   S   E   E   M   S   E   E   M   S   E   E   M   
S   E   E   M   S   E   E   M   S   E   E   M   S   E   E   M   S   E   E   M   
S   E   E   M   S   E   E   M   S   E   E   M   S   E   E   M   S   E   E   M   
S   E   E   M   S   E   E   M   S   E   E   M   S   E   E   M   S   E   E   M   
S   E   E   M   S   E   E   M   S   E   E   M   S   E   E   M   S   E   E   M   
S   E   E   M   S   E   E   M   S   E   E   M   S   E   E   M   S   E   E   M   
S   E   E   M   S   E   E   M   S   E   E   M   S   E   E   M   S   E   E   M   
S   E   E   M   S   E   E   M   S   E   E   M   S   E   E   M   S   E   E   M   
S   E   E   M   S   E   E   M   S   E   E   M   S   E   E   M   S   E   E   M   
S   E   E   M   S   E   E   M   S   E   E   M   S   E   E   M   S   E   E   M   
S   E   E   M   S   E   E   M   S   E   E   M   S   E   E   M   S   E   E   M   
S   E   E   M   S   E   E   M   S   E   E   M   S   E   E   M   S   E   E   M   
S   E   E   M   S   E   E   M   S   E   E   M   S   E   E   M   S   E   E   M   
S   E   E   M   S   E   E   M   S   E   E   M   S   E   E   M   S   E   E   M   
S   E   E   M   S   E   E   M   S   E   E   M   S   E   E   M   S   E   E   M   
S   E   E   M   S   E   E   M   S   E   E   M   S   E   E   M   S   E   E   M   
S   E   E   M   S   E   E   M   S   E   E   M   S   E   E   M   S   E   E   M   
S   E   E   M   S   E   E   M   S   E   E   M   S   E   E   M   S   E   E   M   
S   E   E   M   S   E   E   M   S   E   E   M   S   E   E   M   S   E   E   M   
S   E   E   M   S   E   E   M   S   E   E   M   S   E   E   M   S   E   E   M   
S   E   E   M   S   E   E   M   S   E   E   M   S   E   E   M   S   E   E   M   
S   E   E   M   S   E   E   M   S   E   E   M   S   E   E   M   S   E   E   M   
S   E   E   M   S   E   E   M   S   E   E   M   S   E   E   M   S   E   E   M   
S   E   E   M   S   E   E   M   S   E   E   M   S   E   E   M   S   E   E   M   
S   E   E   M   S   E   E   M   S   E   E   M   S   E   E   M   S   E   E   M   
S   E   E   M   S   E   E   M   S   E   E   M   S   E   E   M   S   E   E   M   
S   E   E   M   S   E   E   M   S   E   E   M   S   E   E   M   S   E   E   M   
S   E   E   M   S   E   E   M   S   E   E   M   S   E   E   M   S   E   E   M   
S   E   E   M   S   E   E   M   S   E   E   M   S   E   E   M   S   E   E   M   
S   E   E   M   S   E   E   M   S   E   E   M   S   E   E   M   S   E   E   M   
S   E   E   M   S   E   E   M   S   E   E   M   S   E   E   M   S   E   E   M   
S   E   E   M   S   E   E   M   S   E   E   M   S   E   E   M   S   E   E   M   
S   E   E   M   S   E   E   M   S   E   E   M   S   E   E   M   S   E   E   M   
S   E   E   M   S   E   E   M   S   E   E   M   S   E   E   M   S   E   E   M   
S   E   E   M   S   E   E   M   S   E   E   M   S   E   E   M   S   E   E   M   
S   E   E   M   S   E   E   M   S   E   E   M   S   E   E   M   S   E   E   M   
S   E   E   M   S   E   E   M   S   E   E   M   S   E   E   M   S   E   E   M   
S   E   E   M   S   E   E   M   S   E   E   M   S   E   E   M   S   E   E   M   
S   E   E   M   S   E   E   M   S   E   E   M   S   E   E   M   S   E   E   M   
S   E   E   M   S   E   E   M   S   E   E   M   S   E   E   M   S   E   E   M   
S   E   E   M   S   E   E   M   S   E   E   M   S   E   E   M   S   E   E   M   
S   E   E   M   S   E   E   M   S   E   E   M   S   E   E   M   S   E   E   M   
S   E   E   M   S   E   E   M   S   E   E   M   S   E   E   M   S   E   E   M   
S   E   E   M   S   E   E   M   S   E   E   M   S   E   E   M   S   E   E   M   
S   E   E   M   S   E   E   M   S   E   E   M   S   E   E   M   S   E   E   M   
S   E   E   M   S   E   E   M   S   E   E   M   S   E   E   M   S   E   E   M   
S   E   E   M   S   E   E   M   S   E   E   M   S   E   E   M   S   E   E   M   
S   E   E   M   S   E   E   M   S   E   E   M   S   E   E   M   S   E   E   M   
S   E   E   M   S   E   E   M   S   E   E   M   S   E   E   M   S   E   E   M   
S   E   E   M   S   E   E   M   S   E   E   M   S   E   E   M   S   E   E   M   
S   E   E   M   S   E   E   M   S   E   E   M   S   E   E   M   S   E   E   M   
S   E   E   M   S   E   E   M   S   E   E   M   S   E   E   M   S   E   E   M   
S   E   E   M   S   E   E   M   S   E   E   M   S   E   E   M   S   E   E   M   
S   E   E   M   S   E   E   M   S   E   E   M   S   E   E   M   S   E   E   M   
S   E   E   M   S   E   E   M   S   E   E   M   S   E   E   M   S   E   E   M   
S   E   E   M   S   E   E   M   S   E   E   M   S   E   E   M   S   E   E   M   
S   E   E   M   S   E   E   M   S   E   E   M   S   E   E   M   S   E   E   M   
S   E   E   M   S   E   E   M   S   E   E   M   S   E   E   M   S   E   E   M   
S   E   E   M   S   E   E   M   S   E   E   M   S   E   E   M   S   E   E   M   
S   E   E   M   S   E   E   M   S   E   E   M   S   E   E   M   S   E   E   M   
S   E   E   M   S   E   E   M   S   E   E   M   S   E   E   M   S   E   E   M   
S   E   E   M   S   E   E   M   S   E   E   M   S   E   E   M   S   E   E   M   
S   E   E   M   S   E   E   M   S   E   E   M   S   E   E   M   S   E   E   M   
S   E   E   M   S   E   E   M   S   E   E   M   S   E   E   M   S   E   E   M   
S   E   E   M   S   E   E   M   S   E   E   M   S   E   E   M   S   E   E   M   
S   E   E   M   S   E   E   M   S   E   E   M   S   E   E   M   S   E   E   M   
S   E   E   M   S   E   E   M   S   E   E   M   S   E   E   M   S   E   E   M   
S   E   E   M   S   E   E   M   S   E   E   M   S   E   E   M   S   E   E   M   
S   E   E   M   S   E   E   M   S   E   E   M   S   E   E   M   S   E   E   M   
S   E   E   M   S   E   E   M   S   E   E   M   S   E   E   M   S   E   E   M   
S   E   E   M   S   E   E   M   S   E   E   M   S   E   E   M   S   E   E   M   
S   E   E   M   S   E   E   M   S   E   E   M   S   E   E   M   S   E   E   M   
S   E   E   M   S   E   E   M   S   E   E   M   S   E   E   M   S   E   E   M   
S   E   E   M   S   E   E   M   S   E   E   M   S   E   E   M   S   E   E   M   
S   E   E   M   S   E   E   M   S   E   E   M   S   E   E   M   S   E   E   M   
S   E   E   M   S   E   E   M   S   E   E   M   S   E   E   M   S   E   E   M   
S   E   E   M   S   E   E   M   S   E   E   M   S   E   E   M   S   E   E   M   
S   E   E   M   S   E   E   M   S   E   E   M   S   E   E   M   S   E   E   M   
S   E   E   M   S   E   E   M   S   E   E   M   S   E   E   M   S   E   E   M   
S   E   E   M   S   E   E   M   S   E   E   M   S   E   E   M   S   E   E   M   
S   E   E   M   S   E   E   M   S   E   E   M   S   E   E   M   S   E   E   M   
S   E   E   M   S   E   E   M   S   E   E   M   S   E   E   M   S   E   E   M   
S   E   E   M   S   E   E   M   S   E   E   M   S   E   E   M   S   E   E   M   
S   E   E   M   S   E   E   M   S   E   E   M   S   E   E   M   S   E   E   M   
S   E   E   M   S   E   E   M   S   E   E   M   S   E   E   M   S   E   E   M   
S   E   E   M   S   E   E   M   S   E   E   M   S   E   E   M   S   E   E   M   
S   E   E   M   S   E   E   M   S   E   E   M   S   E   E   M   S   E   E   M   
S   E   E   M   S   E   E   M   S   E   E   M   S   E   E   M   S   E   E   M   
S   E   E   M   S   E   E   M   S   E   E   M   S   E   E   M   S   E   E   M   
S   E   E   M   S   E   E   M   S   E   E   M   S   E   E   M   S   E   E   M   
S   E   E   M   S   E   E   M   S   E   E   M   S   E   E   M   S   E   E   M   
S   E   E   M   S   E   E   M   S   E   E   M   S   E   E   M   S   E   E   M   
S   E   E   M   S   E   E   M   S   E   E   M   S   E   E   M   S   E   E   M   
S   E   E   M   S   E   E   M   S   E   E   M   S   E   E   M   S   E   E   M   
S   E   E   M   S   E   E   M   S   E   E   M   S   E   E   M   S   E   E   M   
S   E   E   M   S   E   E   M   S   E   E   M   S   E   E   M   S   E   E   M   
S   E   E   M   S   E   E   M   S   E   E   M   S   E   E   M   S   E   E   M   
S   E   E   M   S   E   E   M   S   E   E   M   S   E   E   M   S   E   E   M   
S   E   E   M   S   E   E   M   S   E   E   M   S   E   E   M   S   E   E   M   
S   E   E   M   S   E   E   M   S   E   E   M   S   E   E   M   S   E   E   M   
S   E   E   M   S   E   E   M   S   E   E   M   S   E   E   M   S   E   E   M   
S   E   E   M   S   E   E   M   S   E   E   M   S   E   E   M   S   E   E   M   
S   E   E   M   S   E   E   M   S   E   E   M   S   E   E   M   S   E   E   M   
S   E   E   M   S   E   E   M   S   E   E   M   S   E   E   M   S   E   E   M   
S   E   E   M   S   E   E   M   S   E   E   M   S   E   E   M   S   E   E   M   
S   E   E   M   S   E   E   M   S   E   E   M   S   E   E   M   S   E   E   M   
S   E   E   M   S   E   E   M   S   E   E   M   S   E   E   M   S   E   E   M   
S   E   E   M   S   E   E   M   S   E   E   M   S   E   E   M   S   E   E   M   
S   E   E   M   S   E   E   M   S   E   E   M   S   E   E   M   S   E   E   M   
S   E   E   M   S   E   E   M   S   E   E   M   S   E   E   M   S   E   E   M   
S   E   E   M   S   E   E   M   S   E   E   M   S   E   E   M   S   E   E   M   
S   E   E   M   S   E   E   M   S   E   E   M   S   E   E   M   S   E   E   M   
S   E   E   M   S   E   E   M   S   E   E   M   S   E   E   M   S   E   E   M   
S   E   E   M   S   E   E   M   S   E   E   M   S   E   E   M   S   E   E   M   
S   E   E   M   S   E   E   M   S   E   E   M   S   E   E   M   S   E   E   M   
S   E   E   M   S   E   E   M   S   E   E   M   S   E   E   M   S   E   E   M   
S   E   E   M   S   E   E   M   S   E   E   M   S   E   E   M   S   E   E   M   
S   E   E   M   S   E   E   M   S   E   E   M   S   E   E   M   S   E   E   M   
S   E   E   M   S   E   E   M   S   E   E   M   S   E   E   M   S   E   E   M   
S   E   E   M   S   E   E   M   S   E   E   M   S   E   E   M   S   E   E   M   
S   E   E   M   S   E   E   M   S   E   E   M   S   E   E   M   S   E   E   M   
S   E   E   M   S   E   E   M   S   E   E   M   S   E   E   M   S   E   E   M   
S   E   E   M   S   E   E   M   S   E   E   M   S   E   E   M   S   E   E   M   
S   E   E   M   S   E   E   M   S   E   E   M   S   E   E   M   S   E   E   M   
S   E   E   M   S   E   E   M   S   E   E   M   S   E   E   M   S   E   E   M   
S   E   E   M   S   E   E   M   S   E   E   M   S   E   E   M   S   E   E   M   
S   E   E   M   S   E   E   M   S   E   E   M   S   E   E   M   S   E   E   M   
S   E   E   M   S   E   E   M   S   E   E   M   S   E   E   M   S   E   E   M   
S   E   E   M   S   E   E   M   S   E   E   M   S   E   E   M   S   E   E   M   
S   E   E   M   S   E   E   M   S   E   E   M   S   E   E   M   S   E   E   M   
S   E   E   M   S   E   E   M   S   E   E   M   S   E   E   M   S   E   E   M   
S   E   E   M   S   E   E   M   S   E   E   M   S   E   E   M   S   E   E   M   
S   E   E   M   S   E   E   M   S   E   E   M   S   E   E   M   S   E   E   M   
S   E   E   M   S   E   E   M   S   E   E   M   S   E   E   M   S   E   E   M   
S   E   E   M   S   E   E   M   S   E   E   M   S   E   E   M   S   E   E   M   
S   E   E   M   S   E   E   M   S   E   E   M   S   E   E   M   S   E   E   M   
S   E   E   M   S   E   E   M   S   E   E   M   S   E   E   M   S   E   E   M   
S   E   E   M   S   E   E   M   S   E   E   M   S   E   E   M   S   E   E   M   
S   E   E   M   S   E   E   M   S   E   E   M   S   E   E   M   S   E   E   M   
S   E   E   M   S   E   E   M   S   E   E   M   S   E   E   M   S   E   E   M   
S   E   E   M   S   E   E   M   S   E   E   M   S   E   E   M   S   E   E   M   
S   E   E   M   S   E   E   M   S   E   E   M   S   E   E   M   S   E   E   M   
S   E   E   M   S   E   E   M   S   E   E   M   S   E   E   M   S   E   E   M   
S   E   E   M   S   E   E   M   S   E   E   M   S   E   E   M   S   E   E   M   
S   E   E   M   S   E   E   M   S   E   E   M   S   E   E   M   S   E   E   M   
S   E   E   M   S   E   E   M   S   E   E   M   S   E   E   M   S   E   E   M   
S   E   E   M   S   E   E   M   S   E   E   M   S   E   E   M   S   E   E   M   
S   E   E   M   S   E   E   M   S   E   E   M   S   E   E   M   S   E   E   M   
S   E   E   M   S   E   E   M   S   E   E   M   S   E   E   M   S   E   E   M   
S   E   E   M   S   E   E   M   S   E   E   M   S   E   E   M   S   E   E   M   
S   E   E   M   S   E   E   M   S   E   E   M   S   E   E   M   S   E   E   M   
S   E   E   M   S   E   E   M   S   E   E   M   S   E   E   M   S   E   E   M   
S   E   E   M   S   E   E   M   S   E   E   M   S   E   E   M   S   E   E   M   
S   E   E   M   S   E   E   M   S   E   E   M   S   E   E   M   S   E   E   M   
S   E   E   M   S   E   E   M   S   E   E   M   S   E   E   M   S   E   E   M   
S   E   E   M   S   E   E   M   S   E   E   M   S   E   E   M   S   E   E   M   
S   E   E   M   S   E   E   M   S   E   E   M   S   E   E   M   S   E   E   M   
S   E   E   M   S   E   E   M   S   E   E   M   S   E   E   M   S   E   E   M   
S   E   E   M   S   E   E   M   S   E   E   M   S   E   E   M   S   E   E   M   
S   E   E   M   S   E   E   M   S   E   E   M   S   E   E   M   S   E   E   M   
S   E   E   M   S   E   E   M   S   E   E   M   S   E   E   M   S   E   E   M   
S   E   E   M   S   E   E   M   S   E   E   M   S   E   E   M   S   E   E   M   
S   E   E   M   S   E   E   M   S   E   E   M   S   E   E   M   S   E   E   M   
S   E   E   M   S   E   E   M   S   E   E   M   S   E   E   M   S   E   E   M   
S   E   E   M   S   E   E   M   S   E   E   M   S   E   E   M   S   E   E   M   
S   E   E   M   S   E   E   M   S   E   E   M   S   E   E   M   S   E   E   M   
S   E   E   M   S   E   E   M   S   E   E   M   S   E   E   M   S   E   E   M   
S   E   E   M   S   E   E   M   S   E   E   M   S   E   E   M   S   E   E   M   
S   E   E   M   S   E   E   M   S   E   E   M   S   E   E   M   S   E   E   M   
S   E   E   M   S   E   E   M   S   E   E   M   S   E   E   M   S   E   E   M   
S   E   E   M   S   E   E   M   S   E   E   M   S   E   E   M   S   E   E   M   
S   E   E   M   S   E   E   M   S   E   E   M   S   E   E   M   S   E   E   M   
S   E   E   M   S   E   E   M   S   E   E   M   S   E   E   M   S   E   E   M   
S   E   E   M   S   E   E   M   S   E   E   M   S   E   E   M   S   E   E   M   
S   E   E   M   S   E   E   M   S   E   E   M   S   E   E   M   S   E   E   M   
S   E   E   M   S   E   E   M   S   E   E   M   S   E   E   M   S   E   E   M   
S   E   E   M   S   E   E   M   S   E   E   M   S   E   E   M   S   E   E   M   
S   E   E   M   S   E   E   M   S   E   E   M   S   E   E   M   S   E   E   M   
S   E   E   M   S   E   E   M   S   E   E   M   S   E   E   M   S   E   E   M   
S   E   E   M   S   E   E   M   S   E   E   M   S   E   E   M   S   E   E   M   
S   E   E   M   S   E   E   M   S   E   E   M   S   E   E   M   S   E   E   M   
S   E   E   M   S   E   E   M   S   E   E   M   S   E   E   M   S   E   E   M   
S   E   E   M   S   E   E   M   S   E   E   M   S   E   E   M   S   E   E   M   
S   E   E   M   S   E   E   M   S   E   E   M   S   E   E   M   S   E   E   M   
S   E   E   M   S   E   E   M   S   E   E   M   S   E   E   M   S   E   E   M   
S   E   E   M   S   E   E   M   S   E   E   M   S   E   E   M   S   E   E   M   
S   E   E   M   S   E   E   M   S   E   E   M   S   E   E   M   S   E   E   M   
S   E   E   M   S   E   E   M   S   E   E   M   S   E   E   M   S   E   E   M   
S   E   E   M   S   E   E   M   S   E   E   M   S   E   E   M   S   E   E   M   
S   E   E   M   S   E   E   M   S   E   E   M   S   E   E   M   S   E   E   M   
S   E   E   M   S   E   E   M   S   E   E   M   S   E   E   M   S   E   E   M   
S   E   E   M   S   E   E   M   S   E   E   M   S   E   E   M   S   E   E   M   
S   E   E   M   S   E   E   M   S   E   E   M   S   E   E   M   S   E   E   M   
S   E   E   M   S   E   E   M   S   E   E   M   S   E   E   M   S   E   E   M   
S   E   E   M   S   E   E   M   S   E   E   M   S   E   E   M   S   E   E   M   
S   E   E   M   S   E   E   M   S   E   E   M   S   E   E   M   S   E   E   M   
S   E   E   M   S   E   E   M   S   E   E   M   S   E   E   M   S   E   E   M   
S   E   E   M   S   E   E   M   S   E   E   M   S   E   E   M   S   E   E   M   
S   E   E   M   S   E   E   M   S   E   E   M   S   E   E   M   S   E   E   M   
S   E   E   M   S   E   E   M   S   E   E   M   S   E   E   M   S   E   E   M   
S   E   E   M   S   E   E   M   S   E   E   M   S   E   E   M   S   E   E   M   
S   E   E   M   S   E   E   M   S   E   E   M   S   E   E   M   S   E   E   M   
S   E   E   M   S   E   E   M   S   E   E   M   S   E   E   M   S   E   E   M   
S   E   E   M   S   E   E   M   S   E   E   M   S   E   E   M   S   E   E   M   
S   E   E   M   S   E   E   M   S   E   E   M   S   E   E   M   S   E   E   M   
S   E   E   M   S   E   E   M   S   E   E   M   S   E   E   M   S   E   E   M   
S   E   E   M   S   E   E   M   S   E   E   M   S   E   E   M   S   E   E   M   
S   E   E   M   S   E   E   M   S   E   E   M   S   E   E   M   S   E   E   M   
S   E   E   M   S   E   E   M   S   E   E   M   S   E   E   M   S   E   E   M   
S   E   E   M   S   E   E   M   S   E   E   M   S   E   E   M   S   E   E   M   
S   E   E   M   S   E   E   M   S   E   E   M   S   E   E   M   S   E   E   M   
S   E   E   M   S   E   E   M   S   E   E   M   S   E   E   M   S   E   E   M   
S   E   E   M   S   E   E   M   S   E   E   M   S   E   E   M   S   E   E   M   
S   E   E   M   S   E   E   M   S   E   E   M   S   E   E   M   S   E   E   M   
S   E   E   M   S   E   E   M   S   E   E   M   S   E   E   M   S   E   E   M   
S   E   E   M   S   E   E   M   S   E   E   M   S   E   E   M   S   E   E   M   
S   E   E   M   S   E   E   M   S   E   E   M   S   E   E   M   S   E   E   M   
S   E   E   M   S   E   E   M   S   E   E   M   S   E   E   M   S   E   E   M   
S   E   E   M   S   E   E   M   S   E   E   M   S   E   E   M   S   E   E   M   
S   E   E   M   S   E   E   M   S   E   E   M   S   E   E   M   S   E   E   M   
S   E   E   M   S   E   E   M   S   E   E   M   S   E   E   M   S   E   E   M   
S   E   E   M   S   E   E   M   S   E   E   M   S   E   E   M   S   E   E   M   
S   E   E   M   S   E   E   M   S   E   E   M   S   E   E   M   S   E   E   M   
S   E   E   M   S   E   E   M   S   E   E   M   S   E   E   M   S   E   E   M   
S   E   E   M   S   E   E   M   S   E   E   M   S   E   E   M   S   E   E   M   
S   E   E   M   S   E   E   M   S   E   E   M   S   E   E   M   S   E   E   M   
S   E   E   M   S   E   E   M   S   E   E   M   S   E   E   M   S   E   E   M   
S   E   E   M   S   E   E   M   S   E   E   M   S   E   E   M   S   E   E   M   
S   E   E   M   S   E   E   M   S   E   E   M   S   E   E   M   S   E   E   M   
S   E   E   M   S   E   E   M   S   E   E   M   S   E   E   M   S   E   E   M   
S   E   E   M   S   E   E   M   S   E   E   M   S   E   E   M   S   E   E   M   
S   E   E   M   S   E   E   M   S   E   E   M   S   E   E   M   S   E   E   M   
S   E   E   M   S   E   E   M   S   E   E   M   S   E   E   M   S   E   E   M   
S   E   E   M   S   E   E   M   S   E   E   M   S   E   E   M   S   E   E   M   
S   E   E   M   S   E   E   M   S   E   E   M   S   E   E   M   S   E   E   M   
S   E   E   M   S   E   E   M   S   E   E   M   S   E   E   M   S   E   E   M   
S   E   E   M   S   E   E   M   S   E   E   M   S   E   E   M   S   E   E   M   
S   E   E   M   S   E   E   M   S   E   E   M   S   E   E   M   S   E   E   M   
S   E   E   M   S   E   E   M   S   E   E   M   S   E   E   M   S   E   E   M   
S   E   E   M   S   E   E   M   S   E   E   M   S   E   E   M   S   E   E   M   
S   E   E   M   S   E   E   M   S   E   E   M   S   E   E   M   S   E   E   M   
S   E   E   M   S   E   E   M   S   E   E   M   S   E   E   M   S   E   E   M   
S   E   E   M   S   E   E   M   S   E   E   M   S   E   E   M   S   E   E   M   
S   E   E   M   S   E   E   M   S   E   E   M   S   E   E   M   S   E   E   M   
S   E   E   M   S   E   E   M   S   E   E   M   S   E   E   M   S   E   E   M   
S   E   E   M   S   E   E   M   S   E   E   M   S   E   E   M   S   E   E   M   
S   E   E   M   S   E   E   M   S   E   E   M   S   E   E   M   S   E   E   M   
S   E   E   M   S   E   E   M   S   E   E   M   S   E   E   M   S   E   E   M   
S   E   E   M   S   E   E   M   S   E   E   M   S   E   E   M   S   E   E   M   
S   E   E   M   S   E   E   M   S   E   E   M   S   E   E   M   S   E   E   M   
S   E   E   M   S   E   E   M   S   E   E   M   S   E   E   M   S   E   E   M   
S   E   E   M   S   E   E   M   S   E   E   
%FLAG JOIN_ARRAY                                                                
%FORMAT(10I8)                                                                   
       0       0       0       0       0       0       0       0       0       0
       0       0       0       0       0       0       0       0       0       0
       0       0       0       0       0       0       0       0       0       0
       0       0       0       0       0       0       0       0       0       0
       0       0       0       0       0       0       0       0       0       0
       0       0       0       0       0       0       0       0       0       0
       0       0       0       0       0       0       0       0       0       0
       0       0       0       0       0       0       0       0       0       0
       0       0       0       0       0       0       0       0       0       0
       0       0       0       0       0       0       0       0       0       0
       0       0       0       0       0       0       0       0       0       0
       0       0       0       0       0       0       0       0       0       0
       0       0       0       0       0       0       0       0       0       0
       0       0       0       0       0       0       0       0       0       0
       0       0       0       0       0       0       0       0       0       0
       0       0       0       0       0       0       0       0       0       0
       0       0       0       0       0       0       0       0       0       0
       0       0       0       0       0       0       0       0       0       0
       0       0       0       0       0       0       0       0       0       0
       0       0       0       0       0       0       0       0       0       0
       0       0       0       0       0       0       0       0       0       0
       0       0       0       0       0       0       0       0       0       0
       0       0       0       0       0       0       0       0       0       0
       0       0       0       0       0       0       0       0       0       0
       0       0       0       0       0       0       0       0       0       0
       0       0       0       0       0       0       0       0       0       0
       0       0       0       0       0       0       0       0       0       0
       0       0       0       0       0       0       0       0       0       0
       0       0       0       0       0       0       0       0       0       0
       0       0       0       0       0       0       0       0       0       0
       0       0       0       0       0       0       0       0       0       0
       0       0       0       0       0       0       0       0       0       0
       0       0       0       0       0       0       0       0       0       0
       0       0       0       0       0       0       0       0       0       0
       0       0       0       0       0       0       0       0       0       0
       0       0       0       0       0       0       0       0       0       0
       0       0       0       0       0       0       0       0       0       0
       0       0       0       0       0       0       0       0       0       0
       0       0       0       0       0       0       0       0       0       0
       0       0       0       0       0       0       0       0       0       0
       0       0       0       0       0       0       0       0       0       0
       0       0       0       0       0       0       0       0       0       0
       0       0       0       0       0       0       0       0       0       0
       0       0       0       0       0       0       0       0       0       0
       0       0       0       0       0       0       0       0       0       0
       0       0       0       0       0       0       0       0       0       0
       0       0       0       0       0       0       0       0       0       0
       0       0       0       0       0       0       0       0       0       0
       0       0       0       0       0       0       0       0       0       0
       0       0       0       0       0       0       0       0       0       0
       0       0       0       0       0       0       0       0       0       0
       0       0       0       0       0       0       0       0       0       0
       0       0       0       0       0       0       0       0       0       0
       0       0       0       0       0       0       0       0       0       0
       0       0       0       0       0       0       0       0       0       0
       0       0       0       0       0       0       0       0       0       0
       0       0       0       0       0       0       0       0       0       0
       0       0       0       0       0       0       0       0       0       0
       0       0       0       0       0       0       0       0       0       0
       0       0       0       0       0       0       0       0       0       0
       0       0       0       0       0       0       0       0       0       0
       0       0       0       0       0       0       0       0       0       0
       0       0       0       0       0       0       0       0       0       0
       0       0       0       0       0       0       0       0       0       0
       0       0       0       0       0       0       0       0       0       0
       0       0       0       0       0       0       0       0       0       0
       0       0       0       0       0       0       0       0       0       0
       0       0       0       0       0       0       0       0       0       0
       0       0       0       0       0       0       0       0       0       0
       0       0       0       0       0       0       0       0       0       0
       0       0       0       0       0       0       0       0       0       0
       0       0       0       0       0       0       0       0       0       0
       0       0       0       0       0       0       0       0       0       0
       0       0       0       0       0       0       0       0       0       0
       0       0       0       0       0       0       0       0       0       0
       0       0       0       0       0       0       0       0       0       0
       0       0       0       0       0       0       0       0       0       0
       0       0       0       0       0       0       0       0       0       0
       0       0       0       0       0       0       0       0       0       0
       0       0       0       0       0       0       0       0       0       0
       0       0       0       0       0       0       0       0       0       0
       0       0       0       0       0       0       0       0       0       0
       0       0       0       0       0       0       0       0       0       0
       0       0       0       0       0       0       0       0       0       0
       0       0       0       0       0       0       0       0       0       0
       0       0       0       0       0       0       0       0       0       0
       0       0       0       0       0       0       0       0       0       0
       0       0       0       0       0       0       0       0       0       0
       0       0       0       0       0       0       0       0       0       0
       0       0       0       0       0       0       0       0       0       0
       0       0       0       0       0       0       0       0       0       0
       0       0       0       0       0       0       0       0       0       0
       0       0       0       0       0       0       0       0       0       0
       0       0       0       0       0       0       0       0       0       0
       0       0       0       0       0       0       0       0       0       0
       0       0       0       0       0       0       0       0       0       0
       0       0       0       0       0       0       0       0       0       0
       0       0       0       0       0       0       0       0       0       0
       0       0       0       0       0       0       0       0       0       0
       0       0       0       0       0       0       0       0       0       0
       0       0       0       0       0       0       0       0       0       0
       0       0       0       0       0       0       0       0       0       0
       0       0       0       0       0       0       0       0       0       0
       0       0       0       0       0       0       0       0       0       0
       0       0       0       0       0       0       0       0       0       0
       0       0       0       0       0       0       0       0       0       0
       0       0       0       0       0       0       0       0       0       0
       0       0       0       0       0       0       0       0       0       0
       0       0       0       0       0       0       0       0       0       0
       0       0       0       0       0       0       0       0       0       0
       0       0       0       0       0       0       0       0       0       0
       0       0       0       0       0       0       0       0       0       0
       0       0       0       0       0       0       0       0       0       0
       0       0       0       0       0       0       0       0       0       0
       0       0       0       0       0       0       0       0       0       0
       0       0       0       0       0       0       0       0       0       0
       0       0       0       0       0       0       0       0       0       0
       0       0       0       0       0       0       0       0       0       0
       0       0       0       0       0       0       0       0       0       0
       0       0       0       0       0       0       0       0       0       0
       0       0       0       0       0       0       0       0       0       0
       0       0       0       0       0       0       0       0       0       0
       0       0       0       0       0       0       0       0       0       0
       0       0       0       0       0       0       0       0       0       0
       0       0       0       0       0       0       0       0       0       0
       0       0       0       0       0       0       0       0       0       0
       0       0       0       0       0       0       0       0       0       0
       0       0       0       0       0       0       0       0       0       0
       0       0       0       0       0       0       0       0       0       0
       0       0       0       0       0       0       0       0       0       0
       0       0       0       0       0       0       0       0       0       0
       0       0       0       0       0       0       0       0       0       0
       0       0       0       0       0       0       0       0       0       0
       0       0       0       0       0       0       0       0       0       0
       0       0       0       0       0       0       0       0       0       0
       0       0       0       0       0       0       0       0       0       0
       0       0       0       0       0       0       0       0       0       0
       0       0       0       0       0       0       0       0       0       0
       0       0       0       0       0       0       0       0       0       0
       0       0       0       0       0       0       0       0       0       0
       0       0       0       0       0       0       0       0       0       0
       0       0       0       0       0       0       0       0       0       0
       0       0       0       0       0       0       0       0       0       0
       0       0       0       0       0       0       0       0       0       0
       0       0       0       0       0       0       0       0       0       0
       0       0       0       0       0       0       0       0       0       0
       0       0       0       0       0       0       0       0       0       0
       0       0       0       0       0       0       0       0       0       0
       0       0       0       0       0       0       0       0       0       0
       0       0       0       0       0       0       0       0       0       0
       0       0       0       0       0       0       0       0       0       0
       0       0       0       0       0       0       0       0       0       0
       0       0       0       0       0       0       0       0       0       0
       0       0       0       0       0       0       0       0       0       0
       0       0       0       0       0       0       0       0       0       0
       0       0       0       0       0       0       0       0       0       0
       0       0       0       0       0       0       0       0       0       0
       0       0       0       0       0       0       0       0       0       0
       0       0       0       0       0       0       0       0       0       0
       0       0       0       0       0       0       0       0       0       0
       0       0       0       0       0       0       0       0       0       0
       0       0       0       0       0       0       0       0       0       0
       0       0       0       0       0       0       0       0       0       0
       0       0       0       0       0       0       0       0       0       0
       0       0       0       0       0       0       0       0       0       0
       0       0       0       0       0       0       0       0       0       0
       0       0       0       0       0       0       0       0       0       0
       0       0       0       0       0       0       0       0       0       0
       0       0       0       0       0       0       0       0       0       0
       0       0       0       0       0       0       0       0       0       0
       0       0       0       0       0       0       0       0       0       0
       0       0       0       0       0       0       0       0       0       0
       0       0       0       0       0       0       0       0       0       0
       0       0       0       0       0       0       0       0       0       0
       0       0       0       0       0       0       0       0       0       0
       0       0       0       0       0       0       0       0       0       0
       0       0       0       0       0       0       0       0       0       0
       0       0       0       0       0       0       0       0       0       0
       0       0       0       0       0       0       0       0       0       0
       0       0       0       0       0       0       0       0       0       0
       0       0       0       0       0       0       0       0       0       0
       0       0       0       0       0       0       0       0       0       0
       0       0       0       0       0       0       0       0       0       0
       0       0       0       0       0       0       0       0       0       0
       0       0       0       0       0       0       0       0       0       0
       0       0       0       0       0       0       0       0       0       0
       0       0       0       0       0       0       0       0       0       0
       0       0       0       0       0       0       0       0       0       0
       0       0       0       0       0       0       0       0       0       0
       0       0       0       0       0       0       0       0       0       0
       0       0       0       0       0       0       0       0       0       0
       0       0       0       0       0       0       0       0       0       0
       0       0       0       0       0       0       0       0       0       0
       0       0       0       0       0       0       0       0       0       0
       0       0       0       0       0       0       0       0       0       0
       0       0       0       0       0       0       0       0       0       0
       0       0       0       0       0       0       0       0       0       0
       0       0       0       0       0       0       0       0       0       0
       0       0       0       0       0       0       0       0       0       0
       0       0       0       0       0       0       0       0       0       0
       0       0       0       0       0       0       0       0       0       0
       0       0       0       0       0       0       0       0       0       0
       0       0       0       0       0       0       0       0       0       0
       0       0       0       0       0       0       0       0       0       0
       0       0       0       0       0       0       0       0       0       0
       0       0       0       0       0       0       0       0       0       0
       0       0       0       0       0       0       0       0       0       0
       0       0       0       0       0       0       0       0       0       0
       0       0       0       0       0       0       0       0       0       0
       0       0       0       0       0       0       0       0       0       0
       0       0       0       0       0       0       0       0       0       0
       0       0       0       0       0       0       0       0       0       0
       0       0       0       0       0       0       0       0       0       0
       0       0       0       0       0       0       0       0       0       0
       0       0       0       0       0       0       0       0       0       0
       0       0       0       0       0       0       0       0       0       0
       0       0       0       0       0       0       0       0       0       0
       0       0       0       0       0       0       0       0       0       0
       0       0       0       0       0       0       0       0       0       0
       0       0       0       0       0       0       0       0       0       0
       0       0       0       0       0       0       0       0       0       0
       0       0       0       0       0       0       0       0       0       0
       0       0       0       0       0       0       0       0       0       0
       0       0       0       0       0       0       0       0       0       0
       0       0       0       0       0       0       0       0       0       0
       0       0       0       0       0       0       0       0       0       0
       0       0       0       0       0       0       0       0       0       0
       0       0       0       0       0       0       0       0       0       0
       0       0       0       0       0       0       0       0       0       0
       0       0       0       0       0       0       0       0       0       0
       0       0       0       0       0       0       0       0       0       0
       0       0       0       0       0       0       0       0       0       0
       0       0       0       0       0       0       0       0       0       0
       0       0       0       0       0       0       0       0       0       0
       0       0       0       0       0       0       0       0       0       0
       0       0       0       0       0       0       0       0       0       0
       0       0       0       0       0       0       0       0       0       0
       0       0       0       0       0       0       0       0       0       0
       0       0       0       0       0       0       0       0       0       0
       0       0       0       0       0       0       0       0       0       0
       0       0       0       0       0       0       0       0       0       0
       0       0       0       0       0       0       0       0       0       0
       0       0       0       0       0       0       0       0       0       0
       0       0       0       0       0       0       0       0       0       0
       0       0       0       0       0       0       0       0       0       0
       0       0       0       0       0       0       0       0       0       0
       0       0       0       0       0       0       0       0       0       0
       0       0       0       0       0       0       0       0       0       0
       0       0       0       0       0       0       0       0       0       0
       0       0       0       0       0       0       0       0       0       0
       0       0       0       0       0       0       0       0       0       0
       0       0       0       0       0       0       0       0       0       0
       0       0       0       0       0       0       0       0       0       0
       0       0       0       0       0       0       0       0       0       0
       0       0       0       0       0       0       0       0       0       0
       0       0       0       0       0       0       0       0       0       0
       0       0       0       0       0       0       0       0       0       0
       0       0       0       0       0       0       0       0       0       0
       0       0       0       0       0       0       0       0       0       0
       0       0       0       0       0       0       0       0       0       0
       0       0       0       0       0       0       0       0       0       0
       0       0       0       0       0       0       0       0       0       0
       0       0       0       0       0       0       0       0       0       0
       0       0       0       0       0       0       0       0       0       0
       0       0       0       0       0       0       0       0       0       0
       0       0       0       0       0       0       0       0       0       0
       0       0       0       0       0       0       0       0       0       0
       0       0       0       0       0       0       0       0       0       0
       0       0       0       0       0       0       0       0       0       0
       0       0       0       0       0       0       0       0       0       0
       0       0       0       0       0       0       0       0       0       0
       0       0       0       0       0       0       0       0       0       0
       0       0       0       0       0       0       0       0       0       0
       0       0       0       0       0       0       0       0       0       0
       0       0       0       0       0       0       0       0       0       0
       0       0       0       0       0       0       0       0       0       0
       0       0       0       0       0       0       0       0       0       0
       0       0       0       0       0       0       0       0       0       0
       0       0       0       0       0       0       0       0       0       0
       0       0       0       0       0       0       0       0       0       0
       0       0       0       0       0       0       0       0       0       0
       0       0       0       0       0       0       0       0       0       0
       0       0       0       0       0       0       0       0       0       0
       0       0       0       0       0       0       0       0       0       0
       0       0       0       0       0       0       0       0       0       0
       0       0       0       0       0       0       0       0       0       0
       0       0       0       0       0       0       0       0       0       0
       0       0       0       0       0       0       0       0       0       0
       0       0       0       0       0       0       0       0       0       0
       0       0       0       0       0       0       0       0       0       0
       0       0       0       0       0       0       0       0       0       0
       0       0       0       0       0       0       0       0       0       0
       0       0       0       0       0       0       0       0       0       0
       0       0       0       0       0       0       0       0       0       0
       0       0       0       0       0       0       0       0       0       0
       0       0       0       0       0       0       0       0       0       0
       0       0       0       0       0       0       0       0       0       0
       0       0       0       0       0       0       0       0       0       0
       0       0       0       0       0       0       0       0       0       0
       0       0       0       0       0       0       0       0       0       0
       0       0       0       0       0       0       0       0       0       0
       0       0       0       0       0       0       0       0       0       0
       0       0       0       0       0       0       0       0       0       0
       0       0       0       0       0       0       0       0       0       0
       0       0       0       0       0       0       0       0       0       0
       0       0       0       0       0       0       0       0       0       0
       0       0       0       0       0       0       0       0       0       0
       0       0       0       0       0       0       0       0       0       0
       0       0       0       0       0       0       0       0       0       0
       0       0       0       0       0       0       0       0       0       0
       0       0       0       0       0       0       0       0       0       0
       0       0       0       0       0       0       0       0       0       0
       0       0       0       0       0       0       0       0       0       0
       0       0       0       0       0       0       0       0       0       0
       0       0       0       0       0       0       0       0       0       0
       0       0       0       0       0       0       0       0       0       0
       0       0       0       0       0       0       0       0       0       0
       0       0       0       0       0       0       0       0       0       0
       0       0       0       0       0       0       0       0       0       0
       0       0       0       0       0       0       0       0       0       0
       0       0       0       0       0       0       0       0       0       0
       0       0       0       0       0       0       0       0       0       0
       0       0       0       0       0       0       0       0       0       0
       0       0       0       0       0       0       0       0       0       0
       0       0       0       0       0       0       0       0       0       0
       0       0       0       0       0       0       0       0       0       0
       0       0       0       0       0       0       0       0       0       0
       0       0       0       0       0       0       0       0       0       0
       0       0       0       0       0       0       0       0       0       0
       0       0       0       0       0       0       0       0       0       0
       0       0       0       0       0       0       0       0       0       0
       0       0       0       0       0       0       0       0       0       0
       0       0       0       0       0       0       0       0       0       0
       0       0       0       0       0       0       0       0       0       0
       0       0       0       0       0       0       0       0       0       0
       0       0       0       0       0       0       0       0       0       0
       0       0       0       0       0       0       0       0       0       0
       0       0       0       0       0       0       0       0       0       0
       0       0       0       0       0       0       0       0       0       0
       0       0       0       0       0       0       0       0       0       0
       0       0       0       0       0       0       0       0       0       0
       0       0       0       0       0       0       0       0       0       0
       0       0       0       0       0       0       0       0       0       0
       0       0       0       0       0       0       0       0       0       0
       0       0       0       0       0       0       0       0       0       0
       0       0       0       0       0       0       0       0       0       0
       0       0       0       0       0       0       0       0       0       0
       0       0       0       0       0       0       0       0       0       0
       0       0       0       0       0       0       0       0       0       0
       0       0       0       0       0       0       0       0       0       0
       0       0       0       0       0       0       0       0       0       0
       0       0       0       0       0       0       0       0       0       0
       0       0       0       0       0       0       0       0       0       0
       0       0       0       0       0       0       0       0       0       0
       0       0       0       0       0       0       0       0       0       0
       0       0       0       0       0       0       0       0       0       0
       0       0       0       0       0       0       0       0       0       0
       0       0       0       0       0       0       0       0       0       0
       0       0       0       0       0       0       0       0       0       0
       0       0       0       0       0       0       0       0       0       0
       0       0       0       0       0       0       0       0       0       0
       0       0       0       0       0       0       0       0       0       0
       0       0       0       0       0       0       0       0       0       0
       0       0       0       0       0       0       0       0       0       0
       0       0       0       0       0       0       0       0       0       0
       0       0       0       0       0       0       0       0       0       0
       0       0       0       0       0       0       0       0       0       0
       0       0       0       0       0       0       0       0       0       0
       0       0       0       0       0       0       0       0       0       0
       0       0       0       0       0       0       0       0       0       0
       0       0       0       0       0       0       0       0       0       0
       0       0       0       0       0       0       0       0       0       0
       0       0       0       0       0       0       0       0       0       0
       0       0       0       0       0       0       0       0       0       0
       0       0       0       0       0       0       0       0       0       0
       0       0       0       0       0       0       0       0       0       0
       0       0       0       0       0       0       0       0       0       0
       0       0       0       0       0       0       0       0       0       0
       0       0       0       0       0       0       0       0       0       0
       0       0       0       0       0       0       0       0       0       0
       0       0       0       0       0       0       0       0       0       0
       0       0       0       0       0       0       0       0       0       0
       0       0       0       0       0       0       0       0       0       0
       0       0       0       0       0       0       0       0       0       0
       0       0       0       0       0       0       0       0       0       0
       0       0       0       0       0       0       0       0       0       0
       0       0       0       0       0       0       0       0       0       0
       0       0       0       0       0       0       0       0       0       0
       0       0       0       0       0       0       0       0       0       0
       0       0       0       0       0       0       0       0       0       0
       0       0       0       0       0       0       0       0       0       0
       0       0       0       0       0       0       0       0       0       0
       0       0       0       0       0       0       0       0       0       0
       0       0       0       0       0       0       0       0       0       0
       0       0       0       0       0       0       0       0       0       0
       0       0       0       0       0       0       0       0       0       0
       0       0       0       0       0       0       0       0       0       0
       0       0       0       0       0       0       0       0       0       0
       0       0       0       0       0       0       0       0       0       0
       0       0       0       0       0       0       0       0       0       0
       0       0       0       0       0       0       0       0       0       0
       0       0       0       0       0       0       0       0       0       0
       0       0       0       0       0       0       0       0       0       0
       0       0       0       0       0       0       0       0       0       0
       0       0       0       0       0       0       0       0       0       0
       0       0       0       0       0       0       0       0       0       0
       0       0       0       0       0       0       0       0       0       0
       0       0       0       0       0       0       0       0       0       0
       0       0       0       0       0       0       0       0       0       0
       0       0       0       0       0       0       0       0       0       0
       0       0       0       0       0       0       0       0       0       0
       0       0       0       0       0       0       0       0       0       0
       0       0       0       0       0       0       0       0       0       0
       0       0       0       0       0       0       0       0       0       0
       0       0       0       0       0       0       0       0       0       0
       0       0       0       0       0       0       0       0       0       0
       0       0       0       0       0       0       0       0       0       0
       0       0       0       0       0       0       0       0       0       0
       0       0       0       0       0       0       0       0       0       0
       0       0       0       0       0       0       0       0       0       0
       0       0       0       0       0       0       0       0       0       0
       0       0       0       0       0       0       0       0       0       0
       0       0       0       0       0       0       0       0       0       0
       0       0       0       0       0       0       0       0       0       0
       0       0       0       0       0       0       0       0       0       0
       0       0       0       0       0       0       0       0       0       0
       0       0       0       0       0       0       0       0       0       0
       0       0       0       0       0       0       0       0       0       0
       0       0       0       0       0       0       0       0       0       0
       0       0       0       0       0       0       0       0       0       0
       0       0       0       0       0       0       0       0       0       0
       0       0       0       0       0       0       0       0       0       0
       0       0       0       0       0       0       0       0       0       0
       0       0       0       0       0       0       0       0       0       0
       0       0       0       0       0       0       0       0       0       0
       0       0       0       0       0       0       0       0       0       0
       0       0       0       0       0       0       0       0       0       0
       0       0       0       0       0       0       0       0       0       0
       0       0       0       0       0       0       0       0       0       0
       0       0       0       0       0       0       0       0       0       0
       0       0       0       0       0       0       0       0       0       0
       0       0       0       0       0       0       0       0       0       0
       0       0       0       0       0       0       0       0       0       0
       0       0       0       0       0       0       0       0       0       0
       0       0       0       0       0       0       0       0       0       0
       0       0       0       0       0       0       0       0       0       0
       0       0       0       0       0       0       0       0       0       0
       0       0       0       0       0       0       0       0       0       0
       0       0       0       0       0       0       0       0       0       0
       0       0       0       0       0       0       0       0       0       0
       0       0       0       0       0       0       0       0       0       0
       0       0       0       0       0       0       0       0       0       0
       0       0       0       0       0       0       0       0       0       0
       0       0       0       0       0       0       0       0       0       0
       0       0       0       0       0       0       0       0       0       0
       0       0       0       0       0       0       0       0       0       0
       0       0       0       0       0       0       0       0       0       0
       0       0       0       0       0       0       0       0       0       0
       0       0       0       0       0       0       0       0       0       0
       0       0       0       0       0       0       0       0       0       0
       0       0       0       0       0       0       0       0       0       0
       0       0       0       0       0       0       0       0       0       0
       0       0       0       0       0       0       0       0       0       0
       0       0       0       0       0       0       0       0       0       0
       0       0       0       0       0       0       0       0       0       0
       0       0       0       0       0       0       0       0       0       0
       0       0       0       0       0       0       0       0       0       0
       0       0       0       0       0       0       0       0       0       0
       0       0       0       0       0       0       0       0       0       0
       0       0       0       0       0       0       0       0       0       0
       0       0       0       0       0       0       0       0       0       0
       0       0       0       0       0       0       0       0       0       0
       0       0       0       0       0       0       0       0       0       0
       0       0       0       0       0       0       0       0       0       0
       0       0       0       0       0       0       0       0       0       0
       0       0       0       0       0       0       0       0       0       0
       0       0       0       0       0       0       0       0       0       0
       0       0       0       0       0       0       0       0       0       0
       0       0       0       0       0       0       0       0       0       0
       0       0       0       0       0       0       0       0       0       0
       0       0       0       0       0       0       0       0       0       0
       0       0       0       0       0       0       0       0       0       0
       0       0       0       0       0       0       0       0       0       0
       0       0       0       0       0       0       0       0       0       0
       0       0       0       0       0       0       0       0       0       0
       0       0       0       0       0       0       0       0       0       0
       0       0       0       0       0       0       0       0       0       0
       0       0       0       0       0       0       0       0       0       0
       0       0       0       0       0       0       0       0       0       0
       0       0       0       0       0       0       0       0       0       0
       0       0       0       0       0       0       0       0       0       0
       0       0       0       0       0       0       0       0       0       0
       0       0       0       0       0       0       0       0       0       0
       0       0       0       0       0       0       0       0       0       0
       0       0       0       0       0       0       0       0       0       0
       0       0       0       0       0       0       0       0       0       0
       0       0       0       0       0       0       0       0       0       0
       0       0       0       0       0       0       0       0       0       0
       0       0       0       0       0       0       0       0       0       0
       0       0       0       0       0       0       0       0       0       0
       0       0       0       0       0       0       0       0       0       0
       0       0       0       0       0       0       0       0       0       0
       0       0       0       0       0       0       0       0       0       0
       0       0       0       0       0       0       0       0       0       0
       0       0       0       0       0       0       0       0       0       0
       0       0       0       0       0       0       0       0       0       0
       0       0       0       0       0       0       0       0       0       0
       0       0       0       0       0       0       0       0       0       0
       0       0       0       0       0       0       0       0       0       0
       0       0       0       0       0       0       0       0       0       0
       0       0       0       0       0       0       0       0       0       0
       0       0       0       0       0       0       0       0       0       0
       0       0       0       0       0       0       0       0       0       0
       0       0       0       0       0       0       0       0       0       0
       0       0       0       0       0       0       0       0       0       0
       0       0       0       0       0       0       0       0       0       0
       0       0       0       0       0       0       0       0       0       0
       0       0       0       0       0       0       0       0       0       0
       0       0       0       0       0       0       0       0       0       0
       0       0       0       0       0       0       0       0       0       0
       0       0       0       0       0       0       0       0       0       0
       0       0       0       0       0       0       0       0       0       0
       0       0       0       0       0       0       0       0       0       0
       0       0       0       0       0       0       0       0       0       0
       0       0       0       0       0       0       0       0       0       0
       0       0       0       0       0       0       0       0       0       0
       0       0       0       0       0       0       0       0       0       0
       0       0       0       0       0       0       0       0       0       0
       0       0       0       0       0       0       0       0       0       0
       0       0       0       0       0       0       0       0       0       0
       0       0       0       0       0       0       0       0       0       0
       0       0       0       0       0       0       0       0       0       0
       0       0       0       0       0       0       0       0       0       0
       0       0       0       0       0       0       0       0       0       0
       0       0       0       0       0       0       0       0       0       0
       0       0       0       0       0       0       0       0       0       0
       0       0       0       0       0       0       0       0       0       0
       0       0       0       0       0       0       0       0       0       0
       0       0       0       0       0       0       0       0       0       0
       0       0       0       0       0       0       0       0       0       0
       0       0       0       0       0       0       0       0       0       0
       0       0       0       0       0       0       0       0       0       0
       0       0       0       0       0       0       0       0       0       0
       0       0       0       0       0       0       0       0       0       0
       0       0       0       0       0       0       0       0       0       0
       0       0       0       0       0       0       0       0       0       0
       0       0       0       0       0       0       0       0       0       0
       0       0       0       0       0       0       0       0       0       0
       0       0       0       0       0       0       0       0       0       0
       0       0       0       0       0       0       0       0       0       0
       0       0       0       0       0       0       0       0       0       0
       0       0       0       0       0       0       0       0       0       0
       0       0       0       0       0       0       0       0       0       0
       0       0       0       0       0       0       0       0       0       0
       0       0       0       0       0       0       0       0       0       0
       0       0       0       0       0       0       0       0       0       0
       0       0       0       0       0       0       0       0       0       0
       0       0       0       0       0       0       0       0       0       0
       0       0       0       0       0       0       0       0       0       0
       0       0       0       0       0       0       0       0       0       0
       0       0       0       0       0       0       0       0       0       0
       0       0       0       0       0       0       0       0       0       0
       0       0       0       0       0       0       0       0       0       0
       0       0       0       0       0       0       0       0       0       0
       0       0       0       0       0       0       0       0       0       0
       0       0       0       0       0       0       0       0       0       0
       0       0       0       0       0       0       0       0       0       0
       0       0       0       0       0       0       0       0       0       0
       0       0       0       0       0       0       0       0       0       0
       0       0       0       0       0       0       0       0       0       0
       0       0       0       0       0       0       0       0       0       0
       0       0       0       0       0       0       0       0       0       0
       0       0       0       0       0       0       0       0       0       0
       0       0       0       0       0       0       0       0       0       0
       0       0       0       0       0       0       0       0       0       0
       0       0       0       0       0       0       0       0       0       0
       0       0       0       0       0       0       0       0       0       0
       0       0       0       0       0       0       0       0       0       0
       0       0       0       0       0       0       0       0       0       0
       0       0       0       0       0       0       0       0       0       0
       0       0       0       0       0       0       0       0       0       0
       0       0       0       0       0       0       0       0       0       0
       0       0       0       0       0       0       0       0       0       0
       0       0       0       0       0       0       0       0       0       0
       0       0       0       0       0       0       0       0       0       0
       0       0       0       0       0       0       0       0       0       0
       0       0       0       0       0       0       0       0       0       0
       0       0       0       0       0       0       0       0       0       0
       0       0       0       0       0       0       0       0       0       0
       0       0       0       0       0       0       0       0       0       0
       0       0       0       0       0       0       0       0       0       0
       0       0       0       0       0       0       0       0       0       0
       0       0       0       0       0       0       0       0       0       0
       0       0       0       0       0       0       0       0       0       0
       0       0       0       0       0       0       0       0       0       0
       0       0       0       0       0       0       0       0       0       0
       0       0       0       0       0       0       0       0       0       0
       0       0       0       0       0       0       0       0       0       0
       0       0       0       0       0       0       0       0       0       0
       0       0       0       0       0       0       0       0       0       0
       0       0       0       0       0       0       0       0       0       0
       0       0       0       0       0       0       0       0       0       0
       0       0       0       0       0       0       0       0       0       0
       0       0       0       0       0       0       0       0       0       0
       0       0       0       0       0       0       0       0       0       0
       0       0       0       0       0       0       0       0       0       0
       0       0       0       0       0       0       0       0       0       0
       0       0       0       0       0       0       0       0       0       0
       0       0       0       0       0       0       0       0       0       0
       0       0       0       0       0       0       0       0       0       0
       0       0       0       0       0       0       0       0       0       0
       0       0       0       0       0       0       0       0       0       0
       0       0       0       0       0       0       0       0       0       0
       0       0       0       0       0       0       0       0       0       0
       0       0       0       0       0       0       0       0       0       0
       0       0       0       0       0       0       0       0       0       0
       0       0       0       0       0       0       0       0       0       0
       0       0       0       0       0       0       0       0       0       0
       0       0       0       0       0       0       0       0       0       0
       0       0       0       0       0       0       0       0       0       0
       0       0       0       0       0       0       0       0       0       0
       0       0       0       0       0       0       0       0       0       0
       0       0       0       0       0       0       0       0       0       0
       0       0       0       0       0       0       0       0       0       0
       0       0       0       0       0       0       0       0       0       0
       0       0       0       0       0       0       0       0       0       0
       0       0       0       0       0       0       0       0       0       0
       0       0       0       0       0       0       0       0       0       0
       0       0       0       0       0       0       0       0       0       0
       0       0       0       0       0       0       0       0       0       0
       0       0       0       0       0       0       0       0       0       0
       0       0       0       0       0       0       0       0       0       0
       0       0       0       0       0       0       0       0       0       0
       0       0       0       0       0       0       0       0       0       0
       0       0       0       0       0       0       0       0       0       0
       0       0       0       0       0       0       0       0       0       0
       0       0       0       0       0       0       0       0       0       0
       0       0       0       0       0       0       0       0       0       0
       0       0       0       0       0       0       0       0       0       0
       0       0       0       0       0       0       0       0       0       0
       0       0       0       0       0       0       0       0       0       0
       0       0       0       0       0       0       0       0       0       0
       0       0       0       0       0       0       0       0       0       0
       0       0       0       0       0       0       0       0       0       0
       0       0       0       0       0       0       0       0       0       0
       0       0       0       0       0       0       0       0       0       0
       0       0       0       0       0       0       0       0       0       0
       0       0       0       0       0       0       0       0       0       0
       0       0       0       0       0       0       0       0       0       0
       0       0       0       0       0       0       0       0       0       0
       0       0       0       0       0       0       0       0       0       0
       0       0       0       0       0       0       0       0       0       0
       0       0       0       0       0       0       0       0       0       0
       0       0       0       0       0       0       0       0       0       0
       0       0       0       0       0       0       0       0       0       0
       0       0       0       0       0       0       0       0       0       0
       0       0       0       0       0       0       0       0       0       0
       0       0       0       0       0       0       0       0       0       0
       0       0       0       0       0       0       0       0       0       0
       0       0       0       0       0       0       0       0       0       0
       0       0       0       0       0       0       0       0       0       0
       0       0       0       0       0       0       0       0       0       0
       0       0       0       0       0       0       0       0       0       0
       0       0       0       0       0       0       0       0       0       0
       0       0       0       0       0       0       0       0       0       0
       0       0       0       0       0       0       0       0       0       0
       0       0       0       0       0       0       0       0       0       0
       0       0       0       0       0       0       0       0       0       0
       0       0       0       0       0       0       0       0       0       0
       0       0       0       0       0       0       0       0       0       0
       0       0       0       0       0       0       0       0       0       0
       0       0       0       0       0       0       0       0       0       0
       0       0       0       0       0       0       0       0       0       0
       0       0       0       0       0       0       0       0       0       0
       0       0       0       0       0       0       0       0       0       0
       0       0       0       0       0       0       0       0       0       0
       0       0       0       0       0       0       0       0       0       0
       0       0       0       0       0       0       0       0       0       0
       0       0       0       0       0       0       0       0       0       0
       0       0       0       0       0       0       0       0       0       0
       0       0       0       0       0       0       0       0       0       0
       0       0       0       0       0       0       0       0       0       0
       0       0       0       0       0       0       0       0       0       0
       0       0       0       0       0       0       0       0       0       0
       0       0       0       0       0       0       0       0       0       0
       0       0       0       0       0       0       0       0       0       0
       0       0       0       0       0       0       0       0       0       0
       0       0       0       0       0       0       0       0       0       0
       0       0       0       0       0       0       0       0       0       0
       0       0       0       0       0       0       0       0       0       0
       0       0       0       0       0       0       0       0       0       0
       0       0       0       0       0       0       0       0       0       0
       0       0       0       0       0       0       0       0       0       0
       0       0       0       0       0       0       0       0       0       0
       0       0       0       0       0       0       0       0       0       0
       0       0       0       0       0       0       0       0       0       0
       0       0       0       0       0       0       0       0       0       0
       0       0       0       0       0       0       0       0       0       0
       0       0       0       0       0       0       0       0       0       0
       0       0       0       0       0       0       0       0       0       0
       0       0       0       0       0       0       0       0       0       0
       0       0       0       0       0       0       0       0       0       0
       0       0       0       0       0       0       0       0       0       0
       0       0       0       0       0       0       0       0       0       0
       0       0       0       0       0       0       0       0       0       0
       0       0       0       0       0       0       0       0       0       0
       0       0       0       0       0       0       0       0       0       0
       0       0       0       0       0       0       0       0       0       0
       0       0       0       0       0       0       0       0       0       0
       0       0       0       0       0       0       0       0       0       0
       0       0       0       0       0       0       0       0       0       0
       0       0       0       0       0       0       0       0       0       0
       0       0       0       0       0       0       0       0       0       0
       0       0       0       0       0       0       0       0       0       0
       0       0       0       0       0       0       0       0       0       0
       0       0       0       0       0       0       0       0       0       0
       0       0       0       0       0       0       0       0       0       0
       0       0       0       0       0       0       0       0       0       0
       0       0       0       0       0       0       0       0       0       0
       0       0       0       0       0       0       0       0       0       0
       0       0       0       0       0       0       0       0       0       0
       0       0       0       0       0       0       0       0       0       0
       0       0       0       0       0       0       0       0       0       0
       0       0       0       0       0       0       0       0       0       0
       0       0       0       0       0       0       0       0       0       0
       0       0       0       0       0       0       0       0       0       0
       0       0       0       0       0       0       0       0       0       0
       0       0       0       0       0       0       0       0       0       0
       0       0       0       0       0       0       0       0       0       0
       0       0       0       0       0       0       0       0       0       0
       0       0       0       0       0       0       0       0       0       0
       0       0       0       0       0       0       0       0       0       0
       0       0       0       0       0       0       0       0       0       0
       0       0       0       0       0       0       0       0       0       0
       0       0       0       0       0       0       0       0       0       0
       0       0       0       0       0       0       0       0       0       0
       0       0       0       0       0       0       0       0       0       0
       0       0       0       0       0       0       0       0       0       0
       0       0       0       0       0       0       0       0       0       0
       0       0       0       0       0       0       0       0       0       0
       0       0       0       0       0       0       0       0       0       0
       0       0       0       0       0       0       0       0       0       0
       0       0       0       0       0       0       0       0       0       0
       0       0       0       0       0       0       0       0       0       0
       0       0       0       0       0       0       0       0       0       0
       0       0       0       0       0       0       0       0       0       0
       0       0       0       0       0       0       0       0       0       0
       0       0       0       0       0       0       0       0       0       0
       0       0       0       0       0       0       0       0       0       0
       0       0       0       0       0       0       0       0       0       0
       0       0       0       0       0       0       0       0       0       0
       0       0       0       0       0       0       0       0       0       0
       0       0       0       0       0       0       0       0       0       0
       0       0       0       0       0       0       0       0       0       0
       0       0       0       0       0       0       0       0       0       0
       0       0       0       0       0       0       0       0       0       0
       0       0       0       0       0       0       0       0       0       0
       0       0       0       0       0       0       0       0       0       0
       0       0       0       0       0       0       0       0       0       0
       0       0       0       0       0       0       0       0       0       0
       0       0       0       0       0       0       0       0       0       0
       0       0       0       0       0       0       0       0       0       0
       0       0       0       0       0       0       0       0       0       0
       0       0       0       0       0       0       0       0       0       0
       0       0       0       0       0       0       0       0       0       0
       0       0       0       0       0       0       0       0       0       0
       0       0       0       0       0       0       0       0       0       0
       0       0       0       0       0       0       0       0       0       0
       0       0       0       0       0       0       0       0       0       0
       0       0       0       0       0       0       0       0       0       0
       0       0       0       0       0       0       0       0       0       0
       0       0       0       0       0       0       0       0       0       0
       0       0       0       0       0       0       0       0       0       0
       0       0       0       0       0       0       0       0       0       0
       0       0       0       0       0       0       0       0       0       0
       0       0       0       0       0       0       0       0       0       0
       0       0       0       0       0       0       0       0       0       0
       0       0       0       0       0       0       0       0       0       0
       0       0       0       0       0       0       0       0       0       0
       0       0       0       0       0       0       0       0       0       0
       0       0       0       0       0       0       0       0       0       0
       0       0       0       0       0       0       0       0       0       0
       0       0       0       0       0       0       0       0       0       0
       0       0       0       0       0       0       0       0       0       0
       0       0       0       0       0       0       0       0       0       0
       0       0       0       0       0       0       0       0       0       0
       0       0       0       0       0       0       0       0       0       0
       0       0       0       0       0       0       0       0       0       0
       0       0       0       0       0       0       0       0       0       0
       0       0       0       0       0       0       0       0       0       0
       0       0       0       0       0       0       0       0       0       0
       0       0       0       0       0       0       0       0       0       0
       0       0       0       0       0       0       0       0       0       0
       0       0       0       0       0       0       0       0       0       0
       0       0       0       0       0       0       0       0       0       0
       0       0       0       0       0       0       0       0       0       0
       0       0       0       0       0       0       0       0       0       0
       0       0       0       0       0       0       0       0       0       0
       0       0       0       0       0       0       0       0       0       0
       0       0       0       0       0       0       0       0       0       0
       0       0       0       0       0       0       0       0       0       0
       0       0       0       0       0       0       0       0       0       0
       0       0       0       0       0       0       0       0       0       0
       0       0       0       0       0       0       0       0       0       0
       0       0       0       0       0       0       0       0       0       0
       0       0       0       0       0       0       0       0       0       0
       0       0       0       0       0       0       0       0       0       0
       0       0       0       0       0       0       0       0       0       0
       0       0       0       0       0       0       0       0       0       0
       0       0       0       0       0       0       0       0       0       0
       0       0       0       0       0       0       0       0       0       0
       0       0       0       0       0       0       0       0       0       0
       0       0       0       0       0       0       0       0       0       0
       0       0       0       0       0       0       0       0       0       0
       0       0       0       0       0       0       0       0       0       0
       0       0       0       0       0       0       0       0       0       0
       0       0       0       0       0       0       0       0       0       0
       0       0       0       0       0       0       0       0       0       0
       0       0       0       0       0       0       0       0       0       0
       0       0       0       0       0       0       0       0       0       0
       0       0       0       0       0       0       0       0       0       0
       0       0       0       0       0       0       0       0       0       0
       0       0       0       0       0       0       0       0       0       0
       0       0       0       0       0       0       0       0       0       0
       0       0       0       0       0       0       0       0       0       0
       0       0       0       0       0       0       0       0       0       0
       0       0       0       0       0       0       0       0       0       0
       0       0       0       0       0       0       0       0       0       0
       0       0       0       0       0       0       0       0       0       0
       0       0       0       0       0       0       0       0       0       0
       0       0       0       0       0       0       0       0       0       0
       0       0       0       0       0       0       0       0       0       0
       0       0       0       0       0       0       0       0       0       0
       0       0       0       0       0       0       0       0       0       0
       0       0       0       0       0       0       0       0       0       0
       0       0       0       0       0       0       0       0       0       0
       0       0       0       0       0       0       0       0       0       0
       0       0       0       0       0       0       0       0       0       0
       0       0       0       0       0       0       0       0       0       0
       0       0       0       0       0       0       0       0       0       0
       0       0       0       0       0       0       0       0       0       0
       0       0       0       0       0       0       0       0       0       0
       0       0       0       0       0       0       0       0       0       0
       0       0       0       0       0       0       0       0       0       0
       0       0       0       0       0       0       0       0       0       0
       0       0       0       0       0       0       0       0       0       0
       0       0       0       0       0       0       0       0       0       0
       0       0       0       0       0       0       0       0       0       0
       0       0       0       0       0       0       0       0       0       0
       0       0       0       0       0       0       0       0       0       0
       0       0       0       0       0       0       0       0       0       0
       0       0       0       0       0       0       0       0       0       0
       0       0       0       0       0       0       0       0       0       0
       0       0       0       0       0       0       0       0       0       0
       0       0       0       0       0       0       0       0       0       0
       0       0       0       0       0       0       0       0       0       0
       0       0       0       0       0       0       0       0       0       0
       0       0       0       0       0       0       0       0       0       0
       0       0       0       0       0       0       0       0       0       0
       0       0       0       0       0       0       0       0       0       0
       0       0       0       0       0       0       0       0       0       0
       0       0       0       0       0       0       0       0       0       0
       0       0       0       0       0       0       0       0       0       0
       0       0       0       0       0       0       0       0       0       0
       0       0       0       0       0       0       0       0       0       0
       0       0       0       0       0       0       0       0       0       0
       0       0       0       0       0       0       0       0       0       0
       0       0       0       0       0       0       0       0       0       0
       0       0       0       0       0       0       0       0       0       0
       0       0       0       0       0       0       0       0       0       0
       0       0       0       0       0       0       0       0       0       0
       0       0       0       0       0       0       0       0       0       0
       0       0       0       0       0       0       0       0       0       0
       0       0       0       0       0       0       0       0       0       0
       0       0       0       0       0       0       0       0       0       0
       0       0       0       0       0       0       0       0       0       0
       0       0       0       0       0       0       0       0       0       0
       0       0       0       0       0       0       0       0       0       0
       0       0       0       0       0       0       0       0       0       0
       0       0       0       0       0       0       0       0       0       0
       0       0       0       0       0       0       0       0       0       0
       0       0       0       0       0       0       0       0       0       0
       0       0       0       0       0       0       0       0       0       0
       0       0       0       0       0       0       0       0       0       0
       0       0       0       0       0       0       0       0       0       0
       0       0       0       0       0       0       0       0       0       0
       0       0       0       0       0       0       0       0       0       0
       0       0       0       0       0       0       0       0       0       0
       0       0       0       0       0       0       0       0       0       0
       0       0       0       0       0       0       0       0       0       0
       0       0       0       0       0       0       0       0       0       0
       0       0       0       0       0       0       0       0       0       0
       0       0       0       0       0       0       0       0       0       0
       0       0       0       0       0       0       0       0       0       0
       0       0       0       0       0       0       0       0       0       0
       0       0       0       0       0       0       0       0       0       0
       0       0       0       0       0       0       0       0       0       0
       0       0       0       0       0       0       0       0       0       0
       0       0       0       0       0       0       0       0       0       0
       0       0       0       0       0       0       0       0       0       0
       0       0       0       0       0       0       0       0       0       0
       0       0       0       0       0       0       0       0       0       0
       0       0       0       0       0       0       0       0       0       0
       0       0       0       0       0       0       0       0       0       0
       0       0       0       0       0       0       0       0       0       0
       0       0       0       0       0       0       0       0       0       0
       0       0       0       0       0       0       0       0       0       0
       0       0       0       0       0       0       0       0       0       0
       0       0       0       0       0       0       0       0       0       0
       0       0       0       0       0       0       0       0       0       0
       0       0       0       0       0       0       0       0       0       0
       0       0       0       0       0       0       0       0       0       0
       0       0       0       0       0       0       0       0       0       0
       0       0       0       0       0       0       0       0       0       0
       0       0       0       0       0       0       0       0       0       0
       0       0       0       0       0       0       0       0       0       0
       0       0       0       0       0       0       0       0       0       0
       0       0       0       0       0       0       0       0       0       0
       0       0       0       0       0       0       0       0       0       0
       0       0       0       0       0       0       0       0       0       0
       0       0       0       0       0       0       0       0       0       0
       0       0       0       0       0       0       0       0       0       0
       0       0       0       0       0       0       0       0       0       0
       0       0       0       0       0       0       0       0       0       0
       0       0       0       0       0       0       0       0       0       0
       0       0       0       0       0       0       0       0       0       0
       0       0       0       0       0       0       0       0       0       0
       0       0       0       0       0       0       0       0       0       0
       0       0       0       0       0       0       0       0       0       0
       0       0       0       0       0       0       0       0       0       0
       0       0       0       0       0       0       0       0       0       0
       0       0       0       0       0       0       0       0       0       0
       0       0       0       0       0       0       0       0       0       0
       0       0       0       0       0       0       0       0       0       0
       0       0       0       0       0       0       0       0       0       0
       0       0       0       0       0       0       0       0       0       0
       0       0       0       0       0       0       0       0       0       0
       0       0       0       0       0       0       0       0       0       0
       0       0       0       0       0       0       0       0       0       0
       0       0       0       0       0       0       0       0       0       0
       0       0       0       0       0       0       0       0       0       0
       0       0       0       0       0       0       0       0       0       0
       0       0       0       0       0       0       0       0       0       0
       0       0       0       0       0       0       0       0       0       0
       0       0       0       0       0       0       0       0       0       0
       0       0       0       0       0       0       0       0       0       0
       0       0       0       0       0       0       0       0       0       0
       0       0       0       0       0       0       0       0       0       0
       0       0       0       0       0       0       0       0       0       0
       0       0       0       0       0       0       0       0       0       0
       0       0       0       0       0       0       0       0       0       0
       0       0       0       0       0       0       0       0       0       0
       0       0       0       0       0       0       0       0       0       0
       0       0       0       0       0       0       0       0       0       0
       0       0       0       0       0       0       0       0       0       0
       0       0       0       0       0       0       0       0       0       0
       0       0       0       0       0       0       0       0       0       0
       0       0       0       0       0       0       0       0       0       0
       0       0       0       0       0       0       0       0       0       0
       0       0       0       0       0       0       0       0       0       0
       0       0       0       0       0       0       0       0       0       0
       0       0       0       0       0       0       0       0       0       0
       0       0       0       0       0       0       0       0       0       0
       0       0       0       0       0       0       0       0       0       0
       0       0       0       0       0       0       0       0       0       0
       0       0       0       0       0       0       0       0       0       0
       0       0       0       0       0       0       0       0       0       0
       0       0       0       0       0       0       0       0       0       0
       0       0       0       0       0       0       0       0       0       0
       0       0       0       0       0       0       0       0       0       0
       0       0       0       0       0       0       0       0       0       0
       0       0       0       0       0       0       0       0       0       0
       0       0       0       0       0       0       0       0       0       0
       0       0       0       0       0       0       0       0       0       0
       0       0       0       0       0       0       0       0       0       0
       0       0       0       0       0       0       0       0       0       0
       0       0       0       0       0       0       0       0       0       0
       0       0       0       0       0       0       0       0       0       0
       0       0       0       0       0       0       0       0       0       0
       0       0       0       0       0       0       0       0       0       0
       0       0       0       0       0       0       0       0       0       0
       0       0       0       0       0       0       0       0       0       0
       0       0       0       0       0       0       0       0       0       0
       0       0       0       0       0       0       0       0       0       0
       0       0       0       0       0       0       0       0       0       0
       0       0       0       0       0       0       0       0       0       0
       0       0       0       0       0       0       0       0       0       0
       0       0       0       0       0       0       0       0       0       0
       0       0       0       0       0       0       0       0       0       0
       0       0       0       0       0       0       0       0       0       0
       0       0       0       0       0       0       0       0       0       0
       0       0       0       0       0       0       0       0       0       0
       0       0       0       0       0       0       0       0       0       0
       0       0       0       0       0       0       0       0       0       0
       0       0       0       0       0       0       0       0       0       0
       0       0       0       0       0       0       0       0       0       0
       0       0       0       0       0       0       0       0       0       0
       0       0       0       0       0       0       0       0       0       0
       0       0       0       0       0       0       0       0       0       0
       0       0       0       0       0       0       0       0       0       0
       0       0       0       0       0       0       0       0       0       0
       0       0       0       0       0       0       0       0       0       0
       0       0       0       0       0       0       0       0       0       0
       0       0       0       0       0       0       0       0       0       0
       0       0       0       0       0       0       0       0       0       0
       0       0       0       0       0       0       0       0       0       0
       0       0       0       0       0       0       0       0       0       0
       0       0       0       0       0       0       0       0       0       0
       0       0       0       0       0       0       0       0       0       0
       0       0       0       0       0       0       0       0       0       0
       0       0       0       0       0       0       0       0       0       0
       0       0       0       0       0       0       0       0       0       0
       0       0       0       0       0       0       0       0       0       0
       0       0       0       0       0       0       0       0       0       0
       0       0       0       0       0       0       0       0       0       0
       0       0       0       0       0       0       0       0       0       0
       0       0       0       0       0       0       0       0       0       0
       0       0       0       0       0       0       0       0       0       0
       0       0       0       0       0       0       0       0       0       0
       0       0       0       0       0       0       0       0       0       0
       0       0       0       0       0       0       0       0       0       0
       0       0       0       0       0       0       0       0       0       0
       0       0       0       0       0       0       0       0       0       0
       0       0       0       0       0       0       0       0       0       0
       0       0       0       0       0       0       0       0       0       0
       0       0       0       0       0       0       0       0       0       0
       0       0       0       0       0       0       0       0       0       0
       0       0       0       0       0       0       0       0       0       0
       0       0       0       0       0       0       0       0       0       0
       0       0       0       0       0       0       0       0       0       0
       0       0       0       0       0       0       0       0       0       0
       0       0       0       0       0       0       0       0       0       0
       0       0       0       0       0       0       0       0       0       0
       0       0       0       0       0       0       0       0       0       0
       0       0       0       0       0       0       0       0       0       0
       0       0       0       0       0       0       0       0       0       0
       0       0       0       0       0       0       0       0       0       0
       0       0       0       0       0       0       0       0       0       0
       0       0       0       0       0       0       0       0       0       0
       0       0       0       0       0       0       0       0       0       0
       0       0       0       0       0       0       0       0       0       0
       0       0       0       0       0       0       0       0       0       0
       0       0       0       0       0       0       0       0       0       0
       0       0       0       0       0       0       0       0       0       0
       0       0       0       0       0       0       0       0       0       0
       0       0       0       0       0       0       0       0       0       0
       0       0       0       0       0       0       0       0       0       0
       0       0       0       0       0       0       0       0       0       0
       0       0       0       0       0       0       0       0       0       0
       0       0       0       0       0       0       0       0       0       0
       0       0       0       0       0       0       0       0       0       0
       0       0       0       0       0       0       0       0       0       0
       0       0       0       0       0       0       0       0       0       0
       0       0       0       0       0       0       0       0       0       0
       0       0       0       0       0       0       0       0       0       0
       0       0       0       0       0       0       0       0       0       0
       0       0       0       0       0       0       0       0       0       0
       0       0       0       0       0       0       0       0       0       0
       0       0       0       0       0       0       0       0       0       0
       0       0       0       0       0       0       0       0       0       0
       0       0       0       0       0       0       0       0       0       0
       0       0       0       0       0       0       0       0       0       0
       0       0       0       0       0       0       0       0       0       0
       0       0       0       0       0       0       0       0       0       0
       0       0       0       0       0       0       0       0       0       0
       0       0       0       0       0       0       0       0       0       0
       0       0       0       0       0       0       0       0       0       0
       0       0       0       0       0       0       0       0       0       0
       0       0       0       0       0       0       0       0       0       0
       0       0       0       0       0       0       0       0       0       0
       0       0       0       0       0       0       0       0       0       0
       0       0       0       0       0       0       0       0       0       0
       0       0       0       0       0       0       0       0       0       0
       0       0       0       0       0       0       0       0       0       0
       0       0       0       0       0       0       0       0       0       0
       0       0       0       0       0       0       0       0       0       0
       0       0       0       0       0       0       0       0       0       0
       0       0       0       0       0       0       0       0       0       0
       0       0       0       0       0       0       0       0       0       0
       0       0       0       0       0       0       0       0       0       0
       0       0       0       0       0       0       0       0       0       0
       0       0       0       0       0       0       0       0       0       0
       0       0       0       0       0       0       0       0       0       0
       0       0       0       0       0       0       0       0       0       0
       0       0       0       0       0       0       0       0       0       0
       0       0       0       0       0       0       0       0       0       0
       0       0       0       0       0       0       0       0       0       0
       0       0       0       0       0       0       0       0       0       0
       0       0       0       0       0       0       0       0       0       0
       0       0       0       0       0       0       0       0       0       0
       0       0       0       0       0       0       0       0       0       0
       0       0       0       0       0       0       0       0       0       0
       0       0       0       0       0       0       0       0       0       0
       0       0       0       0       0       0       0       0       0       0
       0       0       0       0       0       0       0       0       0       0
       0       0       0       0       0       0       0       0       0       0
       0       0       0       0       0       0       0       0       0       0
       0       0       0       0       0       0       0       0       0       0
       0       0       0       0       0       0       0       0       0       0
       0       0       0       0       0       0       0       0       0       0
       0       0       0       0       0       0       0       0       0       0
       0       0       0       0       0       0       0       0       0       0
       0       0       0       0       0       0       0       0       0       0
       0       0       0       0       0       0       0       0       0       0
       0       0       0       0       0       0       0       0       0       0
       0       0       0       0       0       0       0       0       0       0
       0       0       0       0       0       0       0       0       0       0
       0       0       0       0       0       0       0       0       0       0
       0       0       0       0       0       0       0       0       0       0
       0       0       0       0       0       0       0       0       0       0
       0       0       0       0       0       0       0       0       0       0
       0       0       0       0       0       0       0       0       0       0
       0       0       0       0       0       0       0       0       0       0
       0       0       0       0       0       0       0       0       0       0
       0       0       0       0       0       0       0       0       0       0
       0       0       0       0       0       0       0       0       0       0
       0       0       0       0       0       0       0       0       0       0
       0       0       0       0       0       0       0       0       0       0
       0       0       0       0       0       0       0       0       0       0
       0       0       0       0       0       0       0       0       0       0
       0       0       0       0       0       0       0       0       0       0
       0       0       0       0       0       0       0       0       0       0
       0       0       0       0       0       0       0       0       0       0
       0       0       0       0       0       0       0       0       0       0
       0       0       0       0       0       0       0       0       0       0
       0       0       0       0       0       0       0       0       0       0
       0       0       0       0       0       0       0       0       0       0
       0       0       0       0       0       0       0       0       0       0
       0       0       0       0       0       0       0       0       0       0
       0       0       0       0       0       0       0       0       0       0
       0       0       0       0       0       0       0       0       0       0
       0       0       0       0       0       0       0       0       0       0
       0       0       0       0       0       0       0       0       0       0
       0       0       0       0       0       0       0       0       0       0
       0       0       0       0       0       0       0       0       0       0
       0       0       0       0       0       0       0       0       0       0
       0       0       0       0       0       0       0       0       0       0
       0       0       0       0       0       0       0       0       0       0
       0       0       0       0       0       0       0       0       0       0
       0       0       0       0       0       0       0       0       0       0
       0       0       0       0       0       0       0       0       0       0
       0       0       0       0       0       0       0       0       0       0
       0       0       0       0       0       0       0       0       0       0
       0       0       0       0       0       0       0       0       0       0
       0       0       0       0       0       0       0       0       0       0
       0       0       0       0       0       0       0       0       0       0
       0       0       0       0       0       0       0       0       0       0
       0       0       0       0       0       0       0       0       0       0
       0       0       0       0       0       0       0       0       0       0
       0       0       0       0       0       0       0       0       0       0
       0       0       0       0       0       0       0       0       0       0
       0       0       0       0       0       0       0       0       0       0
       0       0       0       0       0       0       0       0       0       0
       0       0       0       0       0       0       0       0       0       0
       0       0       0       0       0       0       0       0       0       0
       0       0       0       0       0       0       0       0       0       0
       0       0       0       0       0       0       0       0       0       0
       0       0       0       0       0       0       0       0       0       0
       0       0       0       0       0       0       0       0       0       0
       0       0       0       0       0       0       0       0       0       0
       0       0       0       0       0       0       0       0       0       0
       0       0       0       0       0       0       0       0       0       0
       0       0       0       0       0       0       0       0       0       0
       0       0       0       0       0       0       0       0       0       0
       0       0       0       0       0       0       0       0       0       0
       0       0       0       0       0       0       0       0       0       0
       0       0       0       0       0       0       0       0       0       0
       0       0       0       0       0       0       0       0       0       0
       0       0       0       0       0       0       0       0       0       0
       0       0       0       0       0       0       0       0       0       0
       0       0       0       0       0       0       0       0       0       0
       0       0       0       0       0       0       0       0       0       0
       0       0       0       0       0       0       0       0       0       0
       0       0       0       0       0       0       0       0       0       0
       0       0       0       0       0       0       0       0       0       0
       0       0       0       0       0       0       0       0       0       0
       0       0       0       0       0       0       0       0       0       0
       0       0       0       0       0       0       0       0       0       0
       0       0       0       0       0       0       0       0       0       0
       0       0       0       0       0       0       0       0       0       0
       0       0       0       0       0       0       0       0       0       0
       0       0       0       0       0       0       0       0       0       0
       0       0       0       0       0       0       0       0       0       0
       0       0       0       0       0       0       0       0       0       0
       0       0       0       0       0       0       0       0       0       0
       0       0       0       0       0       0       0       0       0       0
       0       0       0       0       0       0       0       0       0       0
       0       0       0       0       0       0       0       0       0       0
       0       0       0       0       0       0       0       0       0       0
       0       0       0       0       0       0       0       0       0       0
       0       0       0       0       0       0       0       0       0       0
       0       0       0       0       0       0       0       0       0       0
       0       0       0       0       0       0       0       0       0       0
       0       0       0       0       0       0       0       0       0       0
       0       0       0       0       0       0       0       0       0       0
       0       0       0       0       0       0       0       0       0       0
       0       0       0       0       0       0       0       0       0       0
       0       0       0       0       0       0       0       0       0       0
       0       0       0       0       0       0       0       0       0       0
       0       0       0       0       0       0       0       0       0       0
       0       0       0       0       0       0       0       0       0       0
       0       0       0       0       0       0       0       0       0       0
       0       0       0       0       0       0       0       0       0       0
       0       0       0       0       0       0       0       0       0       0
       0       0       0       0       0       0       0       0       0       0
       0       0       0       0       0       0       0       0       0       0
       0       0       0       0       0       0       0       0       0       0
       0       0       0       0       0       0       0       0       0       0
       0       0       0       0       0       0       0       0       0       0
       0       0       0       0       0       0       0       0       0       0
       0       0       0       0       0       0       0       0       0       0
       0       0       0       0       0       0       0       0       0       0
       0       0       0       0       0       0       0       0       0       0
       0       0       0       0       0       0       0       0       0       0
       0       0       0       0       0       0       0       0       0       0
       0       0       0       0       0       0       0       0       0       0
       0       0       0       0       0       0       0       0       0       0
       0       0       0       0       0       0       0       0       0       0
       0       0       0       0       0       0       0       0       0       0
       0       0       0       0       0       0       0       0       0       0
       0       0       0       0       0       0       0       0       0       0
       0       0       0       0       0       0       0       0       0       0
       0       0       0       0       0       0       0       0       0       0
       0       0       0       0       0       0       0       0       0       0
       0       0       0       0       0       0       0       0       0       0
       0       0       0       0       0       0       0       0       0       0
       0       0       0       0       0       0       0       0       0       0
       0       0       0       0       0       0       0       0       0       0
       0       0       0       0       0       0       0       0       0       0
       0       0       0       0       0       0       0       0       0       0
       0       0       0       0       0       0       0       0       0       0
       0       0       0       0       0       0       0       0       0       0
       0       0       0       0       0       0       0       0       0       0
       0       0       0       0       0       0       0       0       0       0
       0       0       0       0       0       0       0       0       0       0
       0       0       0       0       0       0       0       0       0       0
       0       0       0       0       0       0       0       0       0       0
       0       0       0       0       0       0       0       0       0       0
       0       0       0       0       0       0       0       0       0       0
       0       0       0       0       0       0       0       0       0       0
       0       0       0       0       0       0       0       0       0       0
       0       0       0       0       0       0       0       0       0       0
       0       0       0       0       0       0       0       0       0       0
       0       0       0       0       0       0       0       0       0       0
       0       0       0       0       0       0       0       0       0       0
       0       0       0       0       0       0       0       0       0       0
       0       0       0       0       0       0       0       0       0       0
       0       0       0       0       0       0       0       0       0       0
       0       0       0       0       0       0       0       0       0       0
       0       0       0       0       0       0       0       0       0       0
       0       0       0       0       0       0       0       0       0       0
       0       0       0       0       0       0       0       0       0       0
       0       0       0       0       0       0       0       0       0       0
       0       0       0       0       0       0       0       0       0       0
       0       0       0       0       0       0       0       0       0       0
       0       0       0       0       0       0       0       0       0       0
       0       0       0       0       0       0       0       0       0       0
       0       0       0       0       0       0       0       0       0       0
       0       0       0       0       0       0       0       0       0       0
       0       0       0       0       0       0       0       0       0       0
       0       0       0       0       0       0       0       0       0       0
       0       0       0       0       0       0       0       0       0       0
       0       0       0       0       0       0       0       0       0       0
       0       0       0       0       0       0       0       0       0       0
       0       0       0       0       0       0       0       0       0       0
       0       0       0       0       0       0       0       0       0       0
       0       0       0       0       0       0       0       0       0       0
       0       0       0       0       0       0       0       0       0       0
       0       0       0       0       0       0       0       0       0       0
       0       0       0       0       0       0       0       0       0       0
       0       0       0       0       0       0       0       0       0       0
       0       0       0       0       0       0       0       0       0       0
       0       0       0       0       0       0       0       0       0       0
       0       0       0       0       0       0       0       0       0       0
       0       0       0       0       0       0       0       0       0       0
       0       0       0       0       0       0       0       0       0       0
       0       0       0       0       0       0       0       0       0       0
       0       0       0       0       0       0       0       0       0       0
       0       0       0       0       0       0       0       0       0       0
       0       0       0       0       0       0       0       0       0       0
       0       0       0       0       0       0       0       0       0       0
       0       0       0       0       0       0       0       0       0       0
       0       0       0       0       0       0       0       0       0       0
       0       0       0       0       0       0       0       0       0       0
       0       0       0       0       0       0       0       0       0       0
       0       0       0       0       0       0       0       0       0       0
       0       0       0       0       0       0       0       0       0       0
       0       0       0       0       0       0       0       0       0       0
       0       0       0       0       0       0       0       0       0       0
       0       0       0       0       0       0       0       0       0       0
       0       0       0       0       0       0       0       0       0       0
       0       0       0       0       0       0       0       0       0       0
       0       0       0       0       0       0       0       0       0       0
       0       0       0       0       0       0       0       0       0       0
       0       0       0       0       0       0       0       0       0       0
       0       0       0       0       0       0       0       0       0       0
       0       0       0       0       0       0       0       0       0       0
       0       0       0       0       0       0       0       0       0       0
       0       0       0       0       0       0       0       0       0       0
       0       0       0       0       0       0       0       0       0       0
       0       0       0       0       0       0       0       0       0       0
       0       0       0       0       0       0       0       0       0       0
       0       0       0       0       0       0       0       0       0       0
       0       0       0       0       0       0       0       0       0       0
       0       0       0       0       0       0       0       0       0       0
       0       0       0       0       0       0       0       0       0       0
       0       0       0       0       0       0       0       0       0       0
       0       0       0       0       0       0       0       0       0       0
       0       0       0       0       0       0       0       0       0       0
       0       0       0       0       0       0       0       0       0       0
       0       0       0       0       0       0       0       0       0       0
       0       0       0       0       0       0       0       0       0       0
       0       0       0       0       0       0       0       0       0       0
       0       0       0       0       0       0       0       0       0       0
       0       0       0       0       0       0       0       0       0       0
       0       0       0       0       0       0       0       0       0       0
       0       0       0       0       0       0       0       0       0       0
       0       0       0       0       0       0       0       0       0       0
       0       0       0       0       0       0       0       0       0       0
       0       0       0       0       0       0       0       0       0       0
       0       0       0       0       0       0       0       0       0       0
       0       0       0       0       0       0       0       0       0       0
       0       0       0       0       0       0       0       0       0       0
       0       0       0       0       0       0       0       0       0       0
       0       0       0       0       0       0       0       0       0       0
       0       0       0       0       0       0       0       0       0       0
       0       0       0       0       0       0       0       0       0       0
       0       0       0       0       0       0       0       0       0       0
       0       0       0       0       0       0       0       0       0       0
       0       0       0       0       0       0       0       0       0       0
       0       0       0       0       0       0       0       0       0       0
       0       0       0       0       0       0       0       0       0       0
       0       0       0       0       0       0       0       0       0       0
       0       0       0       0       0       0       0       0       0       0
       0       0       0       0       0       0       0       0       0       0
       0       0       0       0       0       0       0       0       0       0
       0       0       0       0       0       0       0       0       0       0
       0       0       0       0       0       0       0       0       0       0
       0       0       0       0       0       0       0       0       0       0
       0       0       0       0       0       0       0       0       0       0
       0       0       0       0       0       0       0       0       0       0
       0       0       0       0       0       0       0       0       0       0
       0       0       0       0       0       0       0       0       0       0
       0       0       0       0       0       0       0       0       0       0
       0       0       0       0       0       0       0       0       0       0
       0       0       0       0       0       0       0       0       0       0
       0       0       0       0       0       0       0       0       0       0
       0       0       0       0       0       0       0       0       0       0
       0       0       0       0       0       0       0       0       0       0
       0       0       0       0       0       0       0       0       0       0
       0       0       0       0       0       0       0       0       0       0
       0       0       0       0       0       0       0       0       0       0
       0       0       0       0       0       0       0       0       0       0
       0       0       0       0       0       0       0       0       0       0
       0       0       0       0       0       0       0       0       0       0
       0       0       0       0       0       0       0       0       0       0
       0       0       0       0       0       0       0       0       0       0
       0       0       0       0       0       0       0       0       0       0
       0       0       0       0       0       0       0       0       0       0
       0       0       0       0       0       0       0       0       0       0
       0       0       0       0       0       0       0       0       0       0
       0       0       0       0       0       0       0       0       0       0
       0       0       0       0       0       0       0       0       0       0
       0       0       0       0       0       0       0       0       0       0
       0       0       0       0       0       0       0       0       0       0
       0       0       0       0       0       0       0       0       0       0
       0       0       0       0       0       0       0       0       0       0
       0       0       0       0       0       0       0       0       0       0
       0       0       0       0       0       0       0       0       0       0
       0       0       0       0       0       0       0       0       0       0
       0       0       0       0       0       0       0       0       0       0
       0       0       0       0       0       0       0       0       0       0
       0       0       0       0       0       0       0       0       0       0
       0       0       0       0       0       0       0       0       0       0
       0       0       0       0       0       0       0       0       0       0
       0       0       0       0       0       0       0       0       0       0
       0       0       0       0       0       0       0       0       0       0
       0       0       0       0       0       0       0       0       0       0
       0       0       0       0       0       0       0       0       0       0
       0       0       0       0       0       0       0       0       0       0
       0       0       0       0       0       0       0       0       0       0
       0       0       0       0       0       0       0       0       0       0
       0       0       0       0       0       0       0       0       0       0
       0       0       0       0       0       0       0       0       0       0
       0       0       0       0       0       0       0       0       0       0
       0       0       0       0       0       0       0       0       0       0
       0       0       0       0       0       0       0       0       0       0
       0       0       0       0       0       0       0       0       0       0
       0       0       0       0       0       0       0       0       0       0
       0       0       0       0       0       0       0       0       0       0
       0       0       0       0       0       0       0       0       0       0
       0       0       0       0       0       0       0       0       0       0
       0       0       0       0       0       0       0       0       0       0
       0       0       0       0       0       0       0       0       0       0
       0       0       0       0       0       0       0       0       0       0
       0       0       0       0       0       0       0       0       0       0
       0       0       0       0       0       0       0       0       0       0
       0       0       0       0       0       0       0       0       0       0
       0       0       0       0       0       0       0       0       0       0
       0       0       0       0       0       0       0       0       0       0
       0       0       0       0       0       0       0       0       0       0
       0       0       0       0       0       0       0       0       0       0
       0       0       0       0       0       0       0       0       0       0
       0       0       0       0       0       0       0       0       0       0
       0       0       0       0       0       0       0       0       0       0
       0       0       0       0       0       0       0       0       0       0
       0       0       0       0       0       0       0       0       0       0
       0       0       0       0       0       0       0       0       0       0
       0       0       0       0       0       0       0       0       0       0
       0       0       0       0       0       0       0       0       0       0
       0       0       0       0       0       0       0       0       0       0
       0       0       0       0       0       0       0       0       0       0
       0       0       0       0       0       0       0       0       0       0
       0       0       0       0       0       0       0       0       0       0
       0       0       0       0       0       0       0       0       0       0
       0       0       0       0       0       0       0       0       0       0
       0       0       0       0       0       0       0       0       0       0
       0       0       0       0       0       0       0       0       0       0
       0       0       0       0       0       0       0       0       0       0
       0       0       0       0       0       0       0       0       0       0
       0       0       0       0       0       0       0       0       0       0
       0       0       0       0       0       0       0       0       0       0
       0       0       0       0       0       0       0       0       0       0
       0       0       0       0       0       0       0       0       0       0
       0       0       0       0       0       0       0       0       0       0
       0       0       0       0       0       0       0       0       0       0
       0       0       0       0       0       0       0       0       0       0
       0       0       0       0       0       0       0       0       0       0
       0       0       0       0       0       0       0       0       0       0
       0       0       0       0       0       0       0       0       0       0
       0       0       0       0       0       0       0       0       0       0
       0       0       0       0       0       0       0       0       0       0
       0       0       0       0       0       0       0       0       0       0
       0       0       0       0       0       0       0       0       0       0
       0       0       0       0       0       0       0       0       0       0
       0       0       0       0       0       0       0       0       0       0
       0       0       0       0       0       0       0       0       0       0
       0       0       0       0       0       0       0       0       0       0
       0       0       0       0       0       0       0       0       0       0
       0       0       0       0       0       0       0       0       0       0
       0       0       0       0       0       0       0       0       0       0
       0       0       0       0       0       0       0       0       0       0
       0       0       0       0       0       0       0       0       0       0
       0       0       0       0       0       0       0       0       0       0
       0       0       0       0       0       0       0       0       0       0
       0       0       0       0       0       0       0       0       0       0
       0       0       0       0       0       0       0       0       0       0
       0       0       0       0       0       0       0       0       0       0
       0       0       0       0       0       0       0       0       0       0
       0       0       0       0       0       0       0       0       0       0
       0       0       0       0       0       0       0       0       0       0
       0       0       0       0       0       0       0       0       0       0
       0       0       0       0       0       0       0       0       0       0
       0       0       0       0       0       0       0       0       0       0
       0       0       0       0       0       0       0       0       0       0
       0       0       0       0       0       0       0       0       0       0
       0       0       0       0       0       0       0       0       0       0
       0       0       0       0       0       0       0       0       0       0
       0       0       0       0       0       0       0       0       0       0
       0       0       0       0       0       0       0       0       0       0
       0       0       0       0       0       0       0       0       0       0
       0       0       0       0       0       0       0       0       0       0
       0       0       0       0       0       0       0       0       0       0
       0       0       0       0       0       0       0       0       0       0
       0       0       0       0       0       0       0       0       0       0
       0       0       0       0       0       0       0       0       0       0
       0       0       0       0       0       0       0       0       0       0
       0       0       0       0       0       0       0       0       0       0
       0       0       0       0       0       0       0       0       0       0
       0       0       0       0       0       0       0       0       0       0
       0       0       0       0       0       0       0       0       0       0
       0       0       0       0       0       0       0       0       0       0
       0       0       0       0       0       0       0       0       0       0
       0       0       0       0       0       0       0       0       0       0
       0       0       0       0       0       0       0       0       0       0
       0       0       0       0       0       0       0       0       0       0
       0       0       0       0       0       0       0       0       0       0
       0       0       0       0       0       0       0       0       0       0
       0       0       0       0       0       0       0       0       0       0
       0       0       0       0       0       0       0       0       0       0
       0       0       0       0       0       0       0       0       0       0
       0       0       0       0       0       0       0       0       0       0
       0       0       0       0       0       0       0       0       0       0
       0       0       0       0       0       0       0       0       0       0
       0       0       0       0       0       0       0       0       0       0
       0       0       0       0       0       0       0       0       0       0
       0       0       0       0       0       0       0       0       0       0
       0       0       0       0       0       0       0       0       0       0
       0       0       0       0       0       0       0       0       0       0
       0       0       0       0       0       0       0       0       0       0
       0       0       0       0       0       0       0       0       0       0
       0       0       0       0       0       0       0       0       0       0
       0       0       0       0       0       0       0       0       0       0
       0       0       0       0       0       0       0       0       0       0
       0       0       0       0       0       0       0       0       0       0
       0       0       0       0       0       0       0       0       0       0
       0       0       0       0       0       0       0       0       0       0
       0       0       0       0       0       0       0       0       0       0
       0       0       0       0       0       0       0       0       0       0
       0       0       0       0       0       0       0       0       0       0
       0       0       0       0       0       0       0       0       0       0
       0       0       0       0       0       0       0       0       0       0
       0       0       0       0       0       0       0       0       0       0
       0       0       0       0       0       0       0       0       0       0
       0       0       0       0       0       0       0       0       0       0
       0       0       0       0       0       0       0       0       0       0
       0       0       0       0       0       0       0       0       0       0
       0       0       0       0       0       0       0       0       0       0
       0       0       0       0       0       0       0       0       0       0
       0       0       0       0       0       0       0       0       0       0
       0       0       0       0       0       0       0       0       0       0
       0       0       0       0       0       0       0       0       0       0
       0       0       0       0       0       0       0       0       0       0
       0       0       0       0       0       0       0       0       0       0
       0       0       0       0       0       0       0       0       0       0
       0       0       0       0       0       0       0       0       0       0
       0       0       0       0       0       0       0       0       0       0
       0       0       0       0       0       0       0       0       0       0
       0       0       0       0       0       0       0       0       0       0
       0       0       0       0       0       0       0       0       0       0
       0       0       0       0       0       0       0       0       0       0
       0       0       0       0       0       0       0       0       0       0
       0       0       0       0       0       0       0       0       0       0
       0       0       0       0       0       0       0       0       0       0
       0       0       0       0       0       0       0       0       0       0
       0       0       0       0       0       0       0       0       0       0
       0       0       0       0       0       0       0       0       0       0
       0       0       0       0       0       0       0       0       0       0
       0       0       0       0       0       0       0       0       0       0
       0       0       0       0       0       0       0       0       0       0
       0       0       0       0       0       0       0       0       0       0
       0       0       0       0       0       0       0       0       0       0
       0       0       0       0       0       0       0       0       0       0
       0       0       0       0       0       0       0       0       0       0
       0       0       0       0       0       0       0       0       0       0
       0       0       0       0       0       0       0       0       0       0
       0       0       0       0       0       0       0       0       0       0
       0       0       0       0       0       0       0       0       0       0
       0       0       0       0       0       0       0       0       0       0
       0       0       0       0       0       0       0       0       0       0
       0       0       0       0       0       0       0       0       0       0
       0       0       0       0       0       0       0       0       0       0
       0       0       0       0       0       0       0       0       0       0
       0       0       0       0       0       0       0       0       0       0
       0       0       0       0       0       0       0       0       0       0
       0       0       0       0       0       0       0       0       0       0
       0       0       0       0       0       0       0       0       0       0
       0       0       0       0       0       0       0       0       0       0
       0       0       0       0       0       0       0       0       0       0
       0       0       0       0       0       0       0       0       0       0
       0       0       0       0       0       0       0       0       0       0
       0       0       0       0       0       0       0       0       0       0
       0       0       0       0       0       0       0       0       0       0
       0       0       0       0       0       0       0       0       0       0
       0       0       0       0       0       0       0       0       0       0
       0       0       0       0       0       0       0       0       0       0
       0       0       0       0       0       0       0       0       0       0
       0       0       0       0       0       0       0       0       0       0
       0       0       0       0       0       0       0       0       0       0
       0       0       0       0       0       0       0       0       0       0
       0       0       0       0       0       0       0       0       0       0
       0       0       0       0       0       0       0       0       0       0
       0       0       0       0       0       0       0       0       0       0
       0       0       0       0       0       0       0       0       0       0
       0       0       0       0       0       0       0       0       0       0
       0       0       0       0       0       0       0       0       0       0
       0       0       0       0       0       0       0       0       0       0
       0       0       0       0       0       0       0       0       0       0
       0       0       0       0       0       0       0       0       0       0
       0       0       0       0       0       0       0       0       0       0
       0       0       0       0       0       0       0       0       0       0
       0       0       0       0       0       0       0       0       0       0
       0       0       0       0       0       0       0       0       0       0
       0       0       0       0       0       0       0       0       0       0
       0       0       0       0       0       0       0       0       0       0
       0       0       0       0       0       0       0       0       0       0
       0       0       0       0       0       0       0       0       0       0
       0       0       0       0       0       0       0       0       0       0
       0       0       0       0       0       0       0       0       0       0
       0       0       0       0       0       0       0       0       0       0
       0       0       0       0       0       0       0       0       0       0
       0       0       0       0       0       0       0       0       0       0
       0       0       0       0       0       0       0       0       0       0
       0       0       0       0       0       0       0       0       0       0
       0       0       0       0       0       0       0       0       0       0
       0       0       0       0       0       0       0       0       0       0
       0       0       0       0       0       0       0       0       0       0
       0       0       0       0       0       0       0       0       0       0
       0       0       0       0       0       0       0       0       0       0
       0       0       0       0       0       0       0       0       0       0
       0       0       0       0       0       0       0       0       0       0
       0       0       0       0       0       0       0       0       0       0
       0       0       0       0       0       0       0       0       0       0
       0       0       0       0       0       0       0       0       0       0
       0       0       0       0       0       0       0       0       0       0
       0       0       0       0       0       0       0       0       0       0
       0       0       0       0       0       0       0       0       0       0
       0       0       0       0       0       0       0       0       0       0
       0       0       0       0       0       0       0       0       0       0
       0       0       0       0       0       0       0       0       0       0
       0       0       0       0       0       0       0       0       0       0
       0       0       0       0       0       0       0       0       0       0
       0       0       0       0       0       0       0       0       0       0
       0       0       0       0       0       0       0       0       0       0
       0       0       0       0       0       0       0       0       0       0
       0       0       0       0       0       0       0       0       0       0
       0       0       0       0       0       0       0       0       0       0
       0       0       0       0       0       0       0       0       0       0
       0       0       0       0       0       0       0       0       0       0
       0       0       0       0       0       0       0       0       0       0
       0       0       0       0       0       0       0       0       0       0
       0       0       0       0       0       0       0       0       0       0
       0       0       0       0       0       0       0       0       0       0
       0       0       0       0       0       0       0       0       0       0
       0       0       0       0       0       0       0       0       0       0
       0       0       0       0       0       0       0       0       0       0
       0       0       0       0       0       0       0       0       0       0
       0       0       0       0       0       0       0       0       0       0
       0       0       0       0       0       0       0       0       0       0
       0       0       0       0       0       0       0       0       0       0
       0       0       0       0       0       0       0       0       0       0
       0       0       0       0       0       0       0       0       0       0
       0       0       0       0       0       0       0       0       0       0
       0       0       0       0       0       0       0       0       0       0
       0       0       0       0       0       0       0       0       0       0
       0       0       0       0       0       0       0       0       0       0
       0       0       0       0       0       0       0       0       0       0
       0       0       0       0       0       0       0       0       0       0
       0       0       0       0       0       0       0       0       0       0
       0       0       0       0       0       0       0       0       0       0
       0       0       0       0       0       0       0       0       0       0
       0       0       0       0       0       0       0       0       0       0
       0       0       0       0       0       0       0       0       0       0
       0       0       0       0       0       0       0       0       0       0
       0       0       0       0       0       0       0       0       0       0
       0       0       0       0       0       0       0       0       0       0
       0       0       0       0       0       0       0       0       0       0
       0       0       0       0       0       0       0       0       0       0
       0       0       0       0       0       0       0       0       0       0
       0       0       0       0       0       0       0       0       0       0
       0       0       0       0       0       0       0       0       0       0
       0       0       0       0       0       0       0       0       0       0
       0       0       0       0       0       0       0       0       0       0
       0       0       0       0       0       0       0       0       0       0
       0       0       0       0       0       0       0       0       0       0
       0       0       0       0       0       0       0       0       0       0
       0       0       0       0       0       0       0       0       0       0
       0       0       0       0       0       0       0       0       0       0
       0       0       0       0       0       0       0       0       0       0
       0       0       0       0       0       0       0       0       0       0
       0       0       0       0       0       0       0       0       0       0
       0       0       0       0       0       0       0       0       0       0
       0       0       0       0       0       0       0       0       0       0
       0       0       0       0       0       0       0       0       0       0
       0       0       0       0       0       0       0       0       0       0
       0       0       0       0       0       0       0       0       0       0
       0       0       0       0       0       0       0       0       0       0
       0       0       0       0       0       0       0       0       0       0
       0       0       0       0       0       0       0       0       0       0
       0       0       0       0       0       0       0       0       0       0
       0       0       0       0       0       0       0       0       0       0
       0       0       0       0       0       0       0       0       0       0
       0       0       0       0       0       0       0       0       0       0
       0       0       0       0       0       0       0       0       0       0
       0       0       0       0       0       0       0       0       0       0
       0       0       0       0       0       0       0       0       0       0
       0       0       0       0       0       0       0       0       0       0
       0       0       0       0       0       0       0       0       0       0
       0       0       0       0       0       0       0       0       0       0
       0       0       0       0       0       0       0       0       0       0
       0       0       0       0       0       0       0       0       0       0
       0       0       0       0       0       0       0       0       0       0
       0       0       0       0       0       0       0       0       0       0
       0       0       0       0       0       0       0       0       0       0
       0       0       0       0       0       0       0       0       0       0
       0       0       0       0       0       0       0       0       0       0
       0       0       0       0       0       0       0       0       0       0
       0       0       0       0       0       0       0       0       0       0
       0       0       0       0       0       0       0       0       0       0
       0       0       0       0       0       0       0       0       0       0
       0       0       0       0       0       0       0       0       0       0
       0       0       0       0       0       0       0       0       0       0
       0       0       0       0       0       0       0       0       0       0
       0       0       0       0       0       0       0       0       0       0
       0       0       0       0       0       0       0       0       0       0
       0       0       0       0       0       0       0       0       0       0
       0       0       0       0       0       0       0       0       0       0
       0       0       0       0       0       0       0       0       0       0
       0       0       0       0       0       0       0       0       0       0
       0       0       0       0       0       0       0       0       0       0
       0       0       0       0       0       0       0       0       0       0
       0       0       0       0       0       0       0       0       0       0
       0       0       0       0       0       0       0       0       0       0
       0       0       0       0       0       0       0       0       0       0
       0       0       0       0       0       0       0       0       0       0
       0       0       0       0       0       0       0       0       0       0
       0       0       0       0       0       0       0       0       0       0
       0       0       0       0       0       0       0       0       0       0
       0       0       0       0       0       0       0       0       0       0
       0       0       0       0       0       0       0       0       0       0
       0       0       0       0       0       0       0       0       0       0
       0       0       0       0       0       0       0       0       0       0
       0       0       0       0       0       0       0       0       0       0
       0       0       0       0       0       0       0       0       0       0
       0       0       0       0       0       0       0       0       0       0
       0       0       0       0       0       0       0       0       0       0
       0       0       0       0       0       0       0       0       0       0
       0       0       0       0       0       0       0       0       0       0
       0       0       0       0       0       0       0       0       0       0
       0       0       0       0       0       0       0       0       0       0
       0       0       0       0       0       0       0       0       0       0
       0       0       0       0       0       0       0       0       0       0
       0       0       0       0       0       0       0       0       0       0
       0       0       0       0       0       0       0       0       0       0
       0       0       0       0       0       0       0       0       0       0
       0       0       0       0       0       0       0       0       0       0
       0       0       0       0       0       0       0       0       0       0
       0       0       0       0       0       0       0       0       0       0
       0       0       0       0       0       0       0       0       0       0
       0       0       0       0       0       0       0       0       0       0
       0       0       0       0       0       0       0       0       0       0
       0       0       0       0       0       0       0       0       0       0
       0       0       0       0       0       0       0       0       0       0
       0       0       0       0       0       0       0       0       0       0
       0       0       0       0       0       0       0       0       0       0
       0       0       0       0       0       0       0       0       0       0
       0       0       0       0       0       0       0       0       0       0
       0       0       0       0       0       0       0       0       0       0
       0       0       0       0       0       0       0       0       0       0
       0       0       0       0       0       0       0       0       0       0
       0       0       0       0       0       0       0       0       0       0
       0       0       0       0       0       0       0       0       0       0
       0       0       0       0       0       0       0       0       0       0
       0       0       0       0       0       0       0       0       0       0
       0       0       0       0       0       0       0       0       0       0
       0       0       0       0       0       0       0       0       0       0
       0       0       0       0       0       0       0       0       0       0
       0       0       0       0       0       0       0       0       0       0
       0       0       0       0       0       0       0       0       0       0
       0       0       0       0       0       0       0       0       0       0
       0       0       0       0       0       0       0       0       0       0
       0       0       0       0       0       0       0       0       0       0
       0       0       0       0       0       0       0       0       0       0
       0       0       0       0       0       0       0       0       0       0
       0       0       0       0       0       0       0       0       0       0
       0       0       0       0       0       0       0       0       0       0
       0       0       0       0       0       0       0       0       0       0
       0       0       0       0       0       0       0       0       0       0
       0       0       0       0       0       0       0       0       0       0
       0       0       0       0       0       0       0       0       0       0
       0       0       0       0       0       0       0       0       0       0
       0       0       0       0       0       0       0       0       0       0
       0       0       0       0       0       0       0       0       0       0
       0       0       0       0       0       0       0       0       0       0
       0       0       0       0       0       0       0       0       0       0
       0       0       0       0       0       0       0       0       0       0
       0       0       0       0       0       0       0       0       0       0
       0       0       0       0       0       0       0       0       0       0
       0       0       0       0       0       0       0       0       0       0
       0       0       0       0       0       0       0       0       0       0
       0       0       0       0       0       0       0       0       0       0
       0       0       0       0       0       0       0       0       0       0
       0       0       0       0       0       0       0       0       0       0
       0       0       0       0       0       0       0       0       0       0
       0       0       0       0       0       0       0       0       0       0
       0       0       0       0       0       0       0       0       0       0
       0       0       0       0       0       0       0       0       0       0
       0       0       0       0       0       0       0       0       0       0
       0       0       0       0       0       0       0       0       0       0
       0       0       0       0       0       0       0       0       0       0
       0       0       0       0       0       0       0       0       0       0
       0       0       0       0       0       0       0       0       0       0
       0       0       0       0       0       0       0       0       0       0
       0       0       0       0       0       0       0       0       0       0
       0       0       0       0       0       0       0       0       0       0
       0       0       0       0       0       0       0       0       0       0
       0       0       0       0       0       0       0       0       0       0
       0       0       0       0       0       0       0       0       0       0
       0       0       0       0       0       0       0       0       0       0
       0       0       0       0       0       0       0       0       0       0
       0       0       0       0       0       0       0       0       0       0
       0       0       0       0       0       0       0       0       0       0
       0       0       0       0       0       0       0       0       0       0
       0       0       0       0       0       0       0       0       0       0
       0       0       0       0       0       0       0       0       0       0
       0       0       0       0       0       0       0       0       0       0
       0       0       0       0       0       0       0       0       0       0
       0       0       0       0       0       0       0       0       0       0
       0       0       0       0       0       0       0       0       0       0
       0       0       0       0       0       0       0       0       0       0
       0       0       0       0       0       0       0       0       0       0
       0       0       0       0       0       0       0       0       0       0
       0       0       0       0       0       0       0       0       0       0
       0       0       0       0       0       0       0       0       0       0
       0       0       0       0       0       0       0       0       0       0
       0       0       0       0       0       0       0       0       0       0
       0       0       0       0       0       0       0       0       0       0
       0       0       0       0       0       0       0       0       0       0
       0       0       0       0       0       0       0       0       0       0
       0       0       0       0       0       0       0       0       0       0
       0       0       0       0       0       0       0       0       0       0
       0       0       0       0       0       0       0       0       0       0
       0       0       0       0       0       0       0       0       0       0
       0       0       0       0       0       0       0       0       0       0
       0       0       0       0       0       0       0       0       0       0
       0       0       0       0       0       0       0       0       0       0
       0       0       0       0       0       0       0       0       0       0
       0       0       0       0       0       0       0       0       0       0
       0       0       0       0       0       0       0       0       0       0
       0       0       0       0       0       0       0       0       0       0
       0       0       0       0       0       0       0       0       0       0
       0       0       0       0       0       0       0       0       0       0
       0       0       0       0       0       0       0       0       0       0
       0       0       0       0       0       0       0       0       0       0
       0       0       0       0       0       0       0       0       0       0
       0       0       0       0       0       0       0       0       0       0
       0       0       0       0       0       0       0       0       0       0
       0       0       0       0       0       0       0       0       0       0
       0       0       0       0       0       0       0       0       0       0
       0       0       0       0       0       0       0       0       0       0
       0       0       0       0       0       0       0       0       0       0
       0       0       0       0       0       0       0       0       0       0
       0       0       0       0       0       0       0       0       0       0
       0       0       0       0       0       0       0       0       0       0
       0       0       0       0       0       0       0       0       0       0
       0       0       0       0       0       0       0       0       0       0
       0       0       0       0       0       0       0       0       0       0
       0       0       0       0       0       0       0       0       0       0
       0       0       0       0       0       0       0       0       0       0
       0       0       0       0       0       0       0       0       0       0
       0       0       0       0       0       0       0       0       0       0
       0       0       0       0       0       0       0       0       0       0
       0       0       0       0       0       0       0       0       0       0
       0       0       0       0       0       0       0       0       0       0
       0       0       0       0       0       0       0       0       0       0
       0       0       0       0       0       0       0       0       0       0
       0       0       0       0       0       0       0       0       0       0
       0       0       0       0       0       0       0       0       0       0
       0       0       0       0       0       0       0       0       0       0
       0       0       0       0       0       0       0       0       0       0
       0       0       0       0       0       0       0       0       0       0
       0       0       0       0       0       0       0       0       0       0
       0       0       0       0       0       0       0       0       0       0
       0       0       0       0       0       0       0       0       0       0
       0       0       0       0       0       0       0       0       0       0
       0       0       0       0       0       0       0       0       0       0
       0       0       0       0       0       0       0       0       0       0
       0       0       0       0       0       0       0       0       0       0
       0       0       0       0       0       0       0       0       0       0
       0       0       0       0       0       0       0       0       0       0
       0       0       0       0       0       0       0       0       0       0
       0       0       0       0       0       0       0       0       0       0
       0       0       0       0       0       0       0       0       0       0
       0       0       0       0       0       0       0       0       0       0
       0       0       0       0       0       0       0       0       0       0
       0       0       0       0       0       0       0       0       0       0
       0       0       0       0       0       0       0       0       0       0
       0       0       0       0       0       0       0       0       0       0
       0       0       0       0       0       0       0       0       0       0
       0       0       0       0       0       0       0       0       0       0
       0       0       0       0       0       0       0       0       0       0
       0       0       0       0       0       0       0       0       0       0
       0       0       0       0       0       0       0       0       0       0
       0       0       0       0       0       0       0       0       0       0
       0       0       0       0       0       0       0       0       0       0
       0       0       0       0       0       0       0       0       0       0
       0       0       0       0       0       0       0       0       0       0
       0       0       0       0       0       0       0       0       0       0
       0       0       0       0       0       0       0       0       0       0
       0       0       0       0       0       0       0       0       0       0
       0       0       0       0       0       0       0       0       0       0
       0       0       0       0       0       0       0       0       0       0
       0       0       0       0       0       0       0       0       0       0
       0       0       0       0       0       0       0       0       0       0
       0       0       0       0       0       0       0       0       0       0
       0       0       0       0       0       0       0       0       0       0
       0       0       0       0       0       0       0       0       0       0
       0       0       0       0       0       0       0       0       0       0
       0       0       0       0       0       0       0       0       0       0
       0       0       0       0       0       0       0       0       0       0
       0       0       0       0       0       0       0       0       0       0
       0       0       0       0       0       0       0       0       0       0
       0       0       0       0       0       0       0       0       0       0
       0       0       0       0       0       0       0       0       0       0
       0       0       0       0       0       0       0       0       0       0
       0       0       0       0       0       0       0       0       0       0
       0       0       0       0       0       0       0       0       0       0
       0       0       0       0       0       0       0       0       0       0
       0       0       0       0       0       0       0       0       0       0
       0       0       0       0       0       0       0       0       0       0
       0       0       0       0       0       0       0       0       0       0
       0       0       0       0       0       0       0       0       0       0
       0       0       0       0       0       0       0       0       0       0
       0       0       0       0       0       0       0       0       0       0
       0       0       0       0       0       0       0       0       0       0
       0       0       0       0       0       0       0       0       0       0
       0       0       0       0       0       0       0       0       0       0
       0       0       0       0       0       0       0       0       0       0
       0       0       0       0       0       0       0       0       0       0
       0       0       0       0       0       0       0       0       0       0
       0       0       0       0       0       0       0       0       0       0
       0       0       0       0       0       0       0       0       0       0
       0       0       0       0       0       0       0       0       0       0
       0       0       0       0       0       0       0       0       0       0
       0       0       0       0       0       0       0       0       0       0
       0       0       0       0       0       0       0       0       0       0
       0       0       0       0       0       0       0       0       0       0
       0       0       0       0       0       0       0       0       0       0
       0       0       0       0       0       0       0       0       0       0
       0       0       0       0       0       0       0       0       0       0
       0       0       0       0       0       0       0       0       0       0
       0       0       0       0       0       0       0       0       0       0
       0       0       0       0       0       0       0       0       0       0
       0       0       0       0       0       0       0       0       0       0
       0       0       0       0       0       0       0       0       0       0
       0       0       0       0       0       0       0       0       0       0
       0       0       0       0       0       0       0       0       0       0
       0       0       0       0       0       0       0       0       0       0
       0       0       0       0       0       0       0       0       0       0
       0       0       0       0       0       0       0       0       0       0
       0       0       0       0       0       0       0       0       0       0
       0       0       0       0       0       0       0       0       0       0
       0       0       0       0       0       0       0       0       0       0
       0       0       0       0       0       0       0       0       0       0
       0       0       0       0       0       0       0       0       0       0
       0       0       0       0       0       0       0       0       0       0
       0       0       0       0       0       0       0       0       0       0
       0       0       0       0       0       0       0       0       0       0
       0       0       0       0       0       0       0       0       0       0
       0       0       0       0       0       0       0       0       0       0
       0       0       0       0       0       0       0       0       0       0
       0       0       0       0       0       0       0       0       0       0
       0       0       0       0       0       0       0       0       0       0
       0       0       0       0       0       0       0       0       0       0
       0       0       0       0       0       0       0       0       0       0
       0       0       0       0       0       0       0       0       0       0
       0       0       0       0       0       0       0       0       0       0
       0       0       0       0       0       0       0       0       0       0
       0       0       0       0       0       0       0       0       0       0
       0       0       0       0       0       0       0       0       0       0
       0       0       0       0       0       0       0       0       0       0
       0       0       0       0       0       0       0       0       0       0
       0       0       0       0       0       0       0       0       0       0
       0       0       0       0       0       0       0       0       0       0
       0       0       0       0       0       0       0       0       0       0
       0       0       0       0       0       0       0       0       0       0
       0       0       0       0       0       0       0       0       0       0
       0       0       0       0       0       0       0       0       0       0
       0       0       0       0       0       0       0       0       0       0
       0       0       0       0       0       0       0       0       0       0
       0       0       0       0       0       0       0       0       0       0
       0       0       0       0       0       0       0       0       0       0
       0       0       0       0       0       0       0       0       0       0
       0       0       0       0       0       0       0       0       0       0
       0       0       0       0       0       0       0       0       0       0
       0       0       0       0       0       0       0       0       0       0
       0       0       0       0       0       0       0       0       0       0
       0       0       0       0       0       0       0       0       0       0
       0       0       0       0       0       0       0       0       0       0
       0       0       0       0       0       0       0       0       0       0
       0       0       0       0       0       0       0       0       0       0
       0       0       0       0       0       0       0       0       0       0
       0       0       0       0       0       0       0       0       0       0
       0       0       0       0       0       0       0       0       0       0
       0       0       0       0       0       0       0       0       0       0
       0       0       0       0       0       0       0       0       0       0
       0       0       0       0       0       0       0       0       0       0
       0       0       0       0       0       0       0       0       0       0
       0       0       0       0       0       0       0       0       0       0
       0       0       0       0       0       0       0       0       0       0
       0       0       0       0       0       0       0       0       0       0
       0       0       0       0       0       0       0       0       0       0
       0       0       0       0       0       0       0       0       0       0
       0       0       0       0       0       0       0       0       0       0
       0       0       0       0       0       0       0       0       0       0
       0       0       0       0       0       0       0       0       0       0
       0       0       0       0       0       0       0       0       0       0
       0       0       0       0       0       0       0       0       0       0
       0       0       0       0       0       0       0       0       0       0
       0       0       0       0       0       0       0       0       0       0
       0       0       0       0       0       0       0       0       0       0
       0       0       0       0       0       0       0       0       0       0
       0       0       0       0       0       0       0       0       0       0
       0       0       0       0       0       0       0       0       0       0
       0       0       0       0       0       0       0       0       0       0
       0       0       0       0       0       0       0       0       0       0
       0       0       0       0       0       0       0       0       0       0
       0       0       0       0       0       0       0       0       0       0
       0       0       0       0       0       0       0       0       0       0
       0       0       0       0       0       0       0       0       0       0
       0       0       0       0       0       0       0       0       0       0
       0       0       0       0       0       0       0       0       0       0
       0       0       0       0       0       0       0       0       0       0
       0       0       0       0       0       0       0       0       0       0
       0       0       0       0       0       0       0       0       0       0
       0       0       0       0       0       0       0       0       0       0
       0       0       0       0       0       0       0       0       0       0
       0       0       0       0       0       0       0       0       0       0
       0       0       0       0       0       0       0       0       0       0
       0       0       0       0       0       0       0       0       0       0
       0       0       0       0       0       0       0       0       0       0
       0       0       0       0       0       0       0       0       0       0
       0       0       0       0       0       0       0       0       0       0
       0       0       0       0       0       0       0       0       0       0
       0       0       0       0       0       0       0       0       0       0
       0       0       0       0       0       0       0       0       0       0
       0       0       0       0       0       0       0       0       0       0
       0       0       0       0       0       0       0       0       0       0
       0       0       0       0       0       0       0       0       0       0
       0       0       0       0       0       0       0       0       0       0
       0       0       0       0       0       0       0       0       0       0
       0       0       0       0       0       0       0       0       0       0
       0       0       0       0       0       0       0       0       0       0
       0       0       0       0       0       0       0       0       0       0
       0       0       0       0       0       0       0       0       0       0
       0       0       0       0       0       0       0       0       0       0
       0       0       0       0       0       0       0       0       0       0
       0       0       0       0       0       0       0       0       0       0
       0       0       0       0       0       0       0       0       0       0
       0       0       0       0       0       0       0       0       0       0
       0       0       0       0       0       0       0       0       0       0
       0       0       0       0       0       0       0       0       0       0
       0       0       0       0       0       0       0       0       0       0
       0       0       0       0       0       0       0       0       0       0
       0       0       0       0       0       0       0       0       0       0
       0       0       0       0       0       0       0       0       0       0
       0       0       0       0       0       0       0       0       0       0
       0       0       0       0       0       0       0       0       0       0
       0       0       0       0       0       0       0       0       0       0
       0       0       0       0       0       0       0       0       0       0
       0       0       0       0       0       0       0       0       0       0
       0       0       0       0       0       0       0       0       0       0
       0       0       0       0       0       0       0       0       0       0
       0       0       0       0       0       0       0       0       0       0
       0       0       0       0       0       0       0       0       0       0
       0       0       0       0       0       0       0       0       0       0
       0       0       0       0       0       0       0       0       0       0
       0       0       0       0       0       0       0       0       0       0
       0       0       0       0       0       0       0       0       0       0
       0       0       0       0       0       0       0       0       0       0
       0       0       0       0       0       0       0       0       0       0
       0       0       0       0       0       0       0       0       0       0
       0       0       0       0       0       0       0       0       0       0
       0       0       0       0       0       0       0       0       0       0
       0       0       0       0       0       0       0       0       0       0
       0       0       0       0       0       0       0       0       0       0
       0       0       0       0       0       0       0       0       0       0
       0       0       0       0       0       0       0       0       0       0
       0       0       0       0       0       0       0       0       0       0
       0       0       0       0       0       0       0       0       0       0
       0       0       0       0       0       0       0       0       0       0
       0       0       0       0       0       0       0       0       0       0
       0       0       0       0       0       0       0       0       0       0
       0       0       0       0       0       0       0       0       0       0
       0       0       0       0       0       0       0       0       0       0
       0       0       0       0       0       0       0       0       0       0
       0       0       0       0       0       0       0       0       0       0
       0       0       0       0       0       0       0       0       0       0
       0       0       0       0       0       0       0       0       0       0
       0       0       0       0       0       0       0       0       0       0
       0       0       0       0       0       0       0       0       0       0
       0       0       0       0       0       0       0       0       0       0
       0       0       0       0       0       0       0       0       0       0
       0       0       0       0       0       0       0       0       0       0
       0       0       0       0       0       0       0       0       0       0
       0       0       0       0       0       0       0       0       0       0
       0       0       0       0       0       0       0       0       0       0
       0       0       0       0       0       0       0       0       0       0
       0       0       0       0       0       0       0       0       0       0
       0       0       0       0       0       0       0       0       0       0
       0       0       0       0       0       0       0       0       0       0
       0       0       0       0       0       0       0       0       0       0
       0       0       0       0       0       0       0       0       0       0
       0       0       0       0       0       0       0       0       0       0
       0       0       0       0       0       0       0       0       0       0
       0       0       0       0       0       0       0       0       0       0
       0       0       0       0       0       0       0       0       0       0
       0       0       0       0       0       0       0       0       0       0
       0       0       0       0       0       0       0       0       0       0
       0       0       0       0       0       0       0       0       0       0
       0       0       0       0       0       0       0       0       0       0
       0       0       0       0       0       0       0       0       0       0
       0       0       0       0       0       0       0       0       0       0
       0       0       0       0       0       0       0       0       0       0
       0       0       0       0       0       0       0       0       0       0
       0       0       0       0       0       0       0       0       0       0
       0       0       0       0       0       0       0       0       0       0
       0       0       0       0       0       0       0       0       0       0
       0       0       0       0       0       0       0       0       0       0
       0       0       0       0       0       0       0       0       0       0
       0       0       0       0       0       0       0       0       0       0
       0       0       0       0       0       0       0       0       0       0
       0       0       0       0       0       0       0       0       0       0
       0       0       0       0       0       0       0       0       0       0
       0       0       0       0       0       0       0       0       0       0
       0       0       0       0       0       0       0       0       0       0
       0       0       0       0       0       0       0       0       0       0
       0       0       0       0       0       0       0       0       0       0
       0       0       0       0       0       0       0       0       0       0
       0       0       0       0       0       0       0       0       0       0
       0       0       0       0       0       0       0       0       0       0
       0       0       0       0       0       0       0       0       0       0
       0       0       0       0       0       0       0       0       0       0
       0       0       0       0       0       0       0       0       0       0
       0       0       0       0       0       0       0       0       0       0
       0       0       0       0       0       0       0       0       0       0
       0       0       0       0       0       0       0       0       0       0
       0       0       0       0       0       0       0       0       0       0
       0       0       0       0       0       0       0       0       0       0
       0       0       0       0       0       0       0       0       0       0
       0       0       0       0       0       0       0       0       0       0
       0       0       0       0       0       0       0       0       0       0
       0       0       0       0       0       0       0       0       0       0
       0       0       0       0       0       0       0       0       0       0
       0       0       0       0       0       0       0       0       0       0
       0       0       0       0       0       0       0       0       0       0
       0       0       0       0       0       0       0       0       0       0
       0       0       0       0       0       0       0       0       0       0
       0       0       0       0       0       0       0       0       0       0
       0       0       0       0       0       0       0       0       0       0
       0       0       0       0       0       0       0       0       0       0
       0       0       0       0       0       0       0       0       0       0
       0       0       0       0       0       0       0       0       0       0
       0       0       0       0       0       0       0       0       0       0
       0       0       0       0       0       0       0       0       0       0
       0       0       0       0       0       0       0       0       0       0
       0       0       0       0       0       0       0       0       0       0
       0       0       0       0       0       0       0       0       0       0
       0       0       0       0       0       0       0       0       0       0
       0       0       0       0       0       0       0       0       0       0
       0       0       0       0       0       0       0       0       0       0
       0       0       0       0       0       0       0       0       0       0
       0       0       0       0       0       0       0       0       0       0
       0       0       0       0       0       0       0       0       0       0
       0       0       0       0       0       0       0       0       0       0
       0       0       0       0       0       0       0       0       0       0
       0       0       0       0       0       0       0       0       0       0
       0       0       0       0       0       0       0       0       0       0
       0       0       0       0       0       0       0       0       0       0
       0       0       0       0       0       0       0       0       0       0
       0       0       0       0       0       0       0       0       0       0
       0       0       0       0       0       0       0       0       0       0
       0       0       0       0       0       0       0       0       0       0
       0       0       0       0       0       0       0       0       0       0
       0       0       0       0       0       0       0       0       0       0
       0       0       0       0       0       0       0       0       0       0
       0       0       0       0       0       0       0       0       0       0
       0       0       0       0       0       0       0       0       0       0
       0       0       0       0       0       0       0       0       0       0
       0       0       0       0       0       0       0       0       0       0
       0       0       0       0       0       0       0       0       0       0
       0       0       0       0       0       0       0       0       0       0
       0       0       0       0       0       0       0       0       0       0
       0       0       0       0       0       0       0       0       0       0
       0       0       0       0       0       0       0       0       0       0
       0       0       0       0       0       0       0       0       0       0
       0       0       0       0       0       0       0       0       0       0
       0       0       0       0       0       0       0       0       0       0
       0       0       0       0       0       0       0       0       0       0
       0       0       0       0       0       0       0       0       0       0
       0       0       0       0       0       0       0       0       0       0
       0       0       0       0       0       0       0       0       0       0
       0       0       0       0       0       0       0       0       0       0
       0       0       0       0       0       0       0       0       0       0
       0       0       0       0       0       0       0       0       0       0
       0       0       0       0       0       0       0       0       0       0
       0       0       0       0       0       0       0       0       0       0
       0       0       0       0       0       0       0       0       0       0
       0       0       0       0       0       0       0       0       0       0
       0       0       0       0       0       0       0       0       0       0
       0       0       0       0       0       0       0       0       0       0
       0       0       0       0       0       0       0       0       0       0
       0       0       0       0       0       0       0       0       0       0
       0       0       0       0       0       0       0       0       0       0
       0       0       0       0       0       0       0       0       0       0
       0       0       0       0       0       0       0       0       0       0
       0       0       0       0       0       0       0       0       0       0
       0       0       0       0       0       0       0       0       0       0
       0       0       0       0       0       0       0       0       0       0
       0       0       0       0       0       0       0       0       0       0
       0       0       0       0       0       0       0       0       0       0
       0       0       0       0       0       0       0       0       0       0
       0       0       0       0       0       0       0       0       0       0
       0       0       0       0       0       0       0       0       0       0
       0       0       0       0       0       0       0       0       0       0
       0       0       0       0       0       0       0       0       0       0
       0       0       0       0       0       0       0       0       0       0
       0       0       0       0       0       0       0       0       0       0
       0       0       0       0       0       0       0       0       0       0
       0       0       0       0       0       0       0       0       0       0
       0       0       0       0       0       0       0       0       0       0
       0       0       0       0       0       0       0       0       0       0
       0       0       0       0       0       0       0       0       0       0
       0       0       0       0       0       0       0       0       0       0
       0       0       0       0       0       0       0       0       0       0
       0       0       0       0       0       0       0       0       0       0
       0       0       0       0       0       0       0       0       0       0
       0       0       0       0       0       0       0       0       0       0
       0       0       0       0       0       0       0       0       0       0
       0       0       0       0       0       0       0       0       0       0
       0       0       0       0       0       0       0       0       0       0
       0       0       0       0       0       0       0       0       0       0
       0       0       0       0       0       0       0       0       0       0
       0       0       0       0       0       0       0       0       0       0
       0       0       0       0       0       0       0       0       0       0
       0       0       0       0       0       0       0       0       0       0
       0       0       0       0       0       0       0       0       0       0
       0       0       0       0       0       0       0       0       0       0
       0       0       0       0       0       0       0       0       0       0
       0       0       0       0       0       0       0       0       0       0
       0       0       0       0       0       0       0       0       0       0
       0       0       0       0       0       0       0       0       0       0
       0       0       0       0       0       0       0       0       0       0
       0       0       0       0       0       0       0       0       0       0
       0       0       0       0       0       0       0       0       0       0
       0       0       0       0       0       0       0       0       0       0
       0       0       0       0       0       0       0       0       0       0
       0       0       0       0       0       0       0       0       0       0
       0       0       0       0       0       0       0       0       0       0
       0       0       0       0       0       0       0       0       0       0
       0       0       0       0       0       0       0       0       0       0
       0       0       0       0       0       0       0       0       0       0
       0       0       0       0       0       0       0       0       0       0
       0       0       0       0       0       0       0       0       0       0
       0       0       0       0       0       0       0       0       0       0
       0       0       0       0       0       0       0       0       0       0
       0       0       0       0       0       0       0       0       0       0
       0       0       0       0       0       0       0       0       0       0
       0       0       0       0       0       0       0       0       0       0
       0       0       0       0       0       0       0       0       0       0
       0       0       0       0       0       0       0       0       0       0
       0       0       0       0       0       0       0       0       0       0
       0       0       0       0       0       0       0       0       0       0
       0       0       0       0       0       0       0       0       0       0
       0       0       0       0       0       0       0       0       0       0
       0       0       0       0       0       0       0       0       0       0
       0       0       0       0       0       0       0       0       0       0
       0       0       0       0       0       0       0       0       0       0
       0       0       0       0       0       0       0       0       0       0
       0       0       0       0       0       0       0       0       0       0
       0       0       0       0       0       0       0       0       0       0
       0       0       0       0       0       0       0       0       0       0
       0       0       0       0       0       0       0       0       0       0
       0       0       0       0       0       0       0       0       0       0
       0       0       0       0       0       0       0       0       0       0
       0       0       0       0       0       0       0       0       0       0
       0       0       0       0       0       0       0       0       0       0
       0       0       0       0       0       0       0       0       0       0
       0       0       0       0       0       0       0       0       0       0
       0       0       0       0       0       0       0       0       0       0
       0       0       0       0       0       0       0       0       0       0
       0       0       0       0       0       0       0       0       0       0
       0       0       0       0       0       0       0       0       0       0
       0       0       0       0       0       0       0       0       0       0
       0       0       0       0       0       0       0       0       0       0
       0       0       0       0       0       0       0       0       0       0
       0       0       0       0       0       0       0       0       0       0
       0       0       0       0       0       0       0       0       0       0
       0       0       0       0       0       0       0       0       0       0
       0       0       0       0       0       0       0       0       0       0
       0       0       0       0       0       0       0       0       0       0
       0       0       0       0       0       0       0       0       0       0
       0       0       0       0       0       0       0       0       0       0
       0       0       0       0       0       0       0       0       0       0
       0       0       0       0       0       0       0       0       0       0
       0       0       0       0       0       0       0       0       0       0
       0       0       0       0       0       0       0       0       0       0
       0       0       0       0       0       0       0       0       0       0
       0       0       0       0       0       0       0       0       0       0
       0       0       0       0       0       0       0       0       0       0
       0       0       0       0       0       0       0       0       0       0
       0       0       0       0       0       0       0       0       0       0
       0       0       0       0       0       0       0       0       0       0
       0       0       0       0       0       0       0       0       0       0
       0       0       0       0       0       0       0       0       0       0
       0       0       0       0       0       0       0       0       0       0
       0       0       0       0       0       0       0       0       0       0
       0       0       0       0       0       0       0       0       0       0
       0       0       0       0       0       0       0       0       0       0
       0       0       0       0       0       0       0       0       0       0
       0       0       0       0       0       0       0       0       0       0
       0       0       0       0       0       0       0       0       0       0
       0       0       0       0       0       0       0       0       0       0
       0       0       0       0       0       0       0       0       0       0
       0       0       0       0       0       0       0       0       0       0
       0       0       0       0       0       0       0       0       0       0
       0       0       0       0       0       0       0       0       0       0
       0       0       0       0       0       0       0       0       0       0
       0       0       0       0       0       0       0       0       0       0
       0       0       0       0       0       0       0       0       0       0
       0       0       0       0       0       0       0       0       0       0
       0       0       0       0       0       0       0       0       0       0
       0       0       0       0       0       0       0       0       0       0
       0       0       0       0       0       0       0       0       0       0
       0       0       0       0       0       0       0       0       0       0
       0       0       0       0       0       0       0       0       0       0
       0       0       0       0       0       0       0       0       0       0
       0       0       0       0       0       0       0       0       0       0
       0       0       0       0       0       0       0       0       0       0
       0       0       0       0       0       0       0       0       0       0
       0       0       0       0       0       0       0       0       0       0
       0       0       0       0       0       0       0       0       0       0
       0       0       0       0       0       0       0       0       0       0
       0       0       0       0       0       0       0       0       0       0
       0       0       0       0       0       0       0       0       0       0
       0       0       0       0       0       0       0       0       0       0
       0       0       0       0       0       0       0       0       0       0
       0       0       0       0       0       0       0       0       0       0
       0       0       0       0       0       0       0       0       0       0
       0       0       0       0       0       0       0       0       0       0
       0       0       0       0       0       0       0       0       0       0
       0       0       0       0       0       0       0       0       0       0
       0       0       0       0       0       0       0       0       0       0
       0       0       0       0       0       0       0       0       0       0
       0       0       0       0       0       0       0       0       0       0
       0       0       0       0       0       0       0       0       0       0
       0       0       0       0       0       0       0       0       0       0
       0       0       0       0       0       0       0       0       0       0
       0       0       0       0       0       0       0       0       0       0
       0       0       0       0       0       0       0       0       0       0
       0       0       0       0       0       0       0       0       0       0
       0       0       0       0       0       0       0       0       0       0
       0       0       0       0       0       0       0       0       0       0
       0       0       0       0       0       0       0       0       0       0
       0       0       0       0       0       0       0       0       0       0
       0       0       0       0       0       0       0       0       0       0
       0       0       0       0       0       0       0       0       0       0
       0       0       0       0       0       0       0       0       0       0
       0       0       0       0       0       0       0       0       0       0
       0       0       0       0       0       0       0       0       0       0
       0       0       0       0       0       0       0       0       0       0
       0       0       0       0       0       0       0       0       0       0
       0       0       0       0       0       0       0       0       0       0
       0       0       0       0       0       0       0       0       0       0
       0       0       0       0       0       0       0       0       0       0
       0       0       0       0       0       0       0       0       0       0
       0       0       0       0       0       0       0       0       0       0
       0       0       0       0       0       0       0       0       0       0
       0       0       0       0       0       0       0       0       0       0
       0       0       0       0       0       0       0       0       0       0
       0       0       0       0       0       0       0       0       0       0
       0       0       0       0       0       0       0       0       0       0
       0       0       0       0       0       0       0       0       0       0
       0       0       0       0       0       0       0       0       0       0
       0       0       0       0       0       0       0       0       0       0
       0       0       0       0       0       0       0       0       0       0
       0       0       0       0       0       0       0       0       0       0
       0       0       0       0       0       0       0       0       0       0
       0       0       0       0       0       0       0       0       0       0
       0       0       0       0       0       0       0       0       0       0
       0       0       0       0       0       0       0       0       0       0
       0       0       0       0       0       0       0       0       0       0
       0       0       0       0       0       0       0       0       0       0
       0       0       0       0       0       0       0       0       0       0
       0       0       0       0       0       0       0       0       0       0
       0       0       0       0       0       0       0       0       0       0
       0       0       0       0       0       0       0       0       0       0
       0       0       0       0       0       0       0       0       0       0
       0       0       0       0       0       0       0       0       0       0
       0       0       0       0       0       0       0       0       0       0
       0       0       0       0       0       0       0       0       0       0
       0       0       0       0       0       0       0       0       0       0
       0       0       0       0       0       0       0       0       0       0
       0       0       0       0       0       0       0       0       0       0
       0       0       0       0       0       0       0       0       0       0
       0       0       0       0       0       0       0       0       0       0
       0       0       0       0       0       0       0       0       0       0
       0       0       0       0       0       0       0       0       0       0
       0       0       0       0       0       0       0       0       0       0
       0       0       0       0       0       0       0       0       0       0
       0       0       0       0       0       0       0       0       0       0
       0       0       0       0       0       0       0       0       0       0
       0       0       0       0       0       0       0       0       0       0
       0       0       0       0       0       0       0       0       0       0
       0       0       0       0       0       0       0       0       0       0
       0       0       0       0       0       0       0       0       0       0
       0       0       0       0       0       0       0       0       0       0
       0       0       0       0       0       0       0       0       0       0
       0       0       0       0       0       0       0       0       0       0
       0       0       0       0       0       0       0       0       0       0
       0       0       0       0       0       0       0       0       0       0
       0       0       0       0       0       0       0       0       0       0
       0       0       0       0       0       0       0       0       0       0
       0       0       0       0       0       0       0       0       0       0
       0       0       0       0       0       0       0       0       0       0
       0       0       0       0       0       0       0       0       0       0
       0       0       0       0       0       0       0       0       0       0
       0       0       0       0       0       0       0       0       0       0
       0       0       0       0       0       0       0       0       0       0
       0       0       0       0       0       0       0       0       0       0
       0       0       0       0       0       0       0       0       0       0
       0       0       0       0       0       0       0       0       0       0
       0       0       0       0       0       0       0       0       0       0
       0       0       0       0       0       0       0       0       0       0
       0       0       0       0       0       0       0       0       0       0
       0       0       0       0       0       0       0       0       0       0
       0       0       0       0       0       0       0       0       0       0
       0       0       0       0       0       0       0       0       0       0
       0       0       0       0       0       0       0       0       0       0
       0       0       0       0       0       0       0       0       0       0
       0       0       0       0       0       0       0       0       0       0
       0       0       0       0       0       0       0       0       0       0
       0       0       0       0       0       0       0       0       0       0
       0       0       0       0       0       0       0       0       0       0
       0       0       0       0       0       0       0       0       0       0
       0       0       0       0       0       0       0       0       0       0
       0       0       0       0       0       0       0       0       0       0
       0       0       0       0       0       0       0       0       0       0
       0       0       0       0       0       0       0       0       0       0
       0       0       0       0       0       0       0       0       0       0
       0       0       0       0       0       0       0       0       0       0
       0       0       0       0       0       0       0       0       0       0
       0       0       0       0       0       0       0       0       0       0
       0       0       0       0       0       0       0       0       0       0
       0       0       0       0       0       0       0       0       0       0
       0       0       0       0       0       0       0       0       0       0
       0       0       0       0       0       0       0       0       0       0
       0       0       0       0       0       0       0       0       0       0
       0       0       0       0       0       0       0       0       0       0
       0       0       0       0       0       0       0       0       0       0
       0       0       0       0       0       0       0       0       0       0
       0       0       0       0       0       0       0       0       0       0
       0       0       0       0       0       0       0       0       0       0
       0       0       0       0       0       0       0       0       0       0
       0       0       0       0       0       0       0       0       0       0
       0       0       0       0       0       0       0       0       0       0
       0       0       0       0       0       0       0       0       0       0
       0       0       0       0       0       0       0       0       0       0
       0       0       0       0       0       0       0       0       0       0
       0       0       0       0       0       0       0       0       0       0
       0       0       0       0       0       0       0       0       0       0
       0       0       0       0       0       0       0       0       0       0
       0       0       0       0       0       0       0       0       0       0
       0       0       0       0       0       0       0       0       0       0
       0       0       0       0       0       0       0       0       0       0
       0       0       0       0       0       0       0       0       0       0
       0       0       0       0       0       0       0       0       0       0
       0       0       0       0       0       0       0       0       0       0
       0       0       0       0       0       0       0       0       0       0
       0       0       0       0       0       0       0       0       0       0
       0       0       0       0       0       0       0       0       0       0
       0       0       0       0       0       0       0       0       0       0
       0       0       0       0       0       0       0       0       0       0
       0       0       0       0       0       0       0       0       0       0
       0       0       0       0       0       0       0       0       0       0
       0       0       0       0       0       0       0       0       0       0
       0       0       0       0       0       0       0       0       0       0
       0       0       0       0       0       0       0       0       0       0
       0       0       0       0       0       0       0       0       0       0
       0       0       0       0       0       0       0       0       0       0
       0       0       0       0       0       0       0       0       0       0
       0       0       0       0       0       0       0       0       0       0
       0       0       0       0       0       0       0       0       0       0
       0       0       0       0       0       0       0       0       0       0
       0       0       0       0       0       0       0       0       0       0
       0       0       0       0       0       0       0       0       0       0
       0       0       0       0       0       0       0       0       0       0
       0       0       0       0       0       0       0       0       0       0
       0       0       0       0       0       0       0       0       0       0
       0       0       0       0       0       0       0       0       0       0
       0       0       0       0       0       0       0       0       0       0
       0       0       0       0       0       0       0       0       0       0
       0       0       0       0       0       0       0       0       0       0
       0       0       0       0       0       0       0       0       0       0
       0       0       0       0       0       0       0       0       0       0
       0       0       0       0       0       0       0       0       0       0
       0       0       0       0       0       0       0       0       0       0
       0       0       0       0       0       0       0       0       0       0
       0       0       0       0       0       0       0       0       0       0
       0       0       0       0       0       0       0       0       0       0
       0       0       0       0       0       0       0       0       0       0
       0       0       0       0       0       0       0       0       0       0
       0       0       0       0       0       0       0       0       0       0
       0       0       0       0       0       0       0       0       0       0
       0       0       0       0       0       0       0       0       0       0
       0       0       0       0       0       0       0       0       0       0
       0       0       0       0       0       0       0       0       0       0
       0       0       0       0       0       0       0       0       0       0
       0       0       0       0       0       0       0       0       0       0
       0       0       0       0       0       0       0       0       0       0
       0       0       0       0       0       0       0       0       0       0
       0       0       0       0       0       0       0       0       0       0
       0       0       0       0       0       0       0       0       0       0
       0       0       0       0       0       0       0       0       0       0
       0       0       0       0       0       0       0       0       0       0
       0       0       0       0       0       0       0       0       0       0
       0       0       0       0       0       0       0       0       0       0
       0       0       0       0       0       0       0       0       0       0
       0       0       0       0       0       0       0       0       0       0
       0       0       0       0       0       0       0       0       0       0
       0       0       0       0       0       0       0       0       0       0
       0       0       0       0       0       0       0       0       0       0
       0       0       0       0       0       0       0       0       0       0
       0       0       0       0       0       0       0       0       0       0
       0       0       0       0       0       0       0       0       0       0
       0       0       0       0       0       0       0       0       0       0
       0       0       0       0       0       0       0       0       0       0
       0       0       0       0       0       0       0       0       0       0
       0       0       0       0       0       0       0       0       0       0
       0       0       0       0       0       0       0       0       0       0
       0       0       0       0       0       0       0       0       0       0
       0       0       0       0       0       0       0       0       0       0
       0       0       0       0       0       0       0       0       0       0
       0       0       0       0       0       0       0       0       0       0
       0       0       0       0       0       0       0       0       0       0
       0       0       0       0       0       0       0       0       0       0
       0       0       0       0       0       0       0       0       0       0
       0       0       0       0       0       0       0       0       0       0
       0       0       0       0       0       0       0       0       0       0
       0       0       0       0       0       0       0       0       0       0
       0       0       0       0       0       0       0       0       0       0
       0       0       0       0       0       0       0       0       0       0
       0       0       0       0       0       0       0       0       0       0
       0       0       0       0       0       0       0       0       0       0
       0       0       0       0       0       0       0       0       0       0
       0       0       0       0       0       0       0       0       0       0
       0       0       0       0       0       0       0       0       0       0
       0       0       0       0       0       0       0       0       0       0
       0       0       0       0       0       0       0       0       0       0
       0       0       0       0       0       0       0       0       0       0
       0       0       0       0       0       0       0       0       0       0
       0       0       0       0       0       0       0       0       0       0
       0       0       0       0       0       0       0       0       0       0
       0       0       0       0       0       0       0       0       0       0
       0       0       0       0       0       0       0       0       0       0
       0       0       0       0       0       0       0       0       0       0
       0       0       0       0       0       0       0       0       0       0
       0       0       0       0       0       0       0       0       0       0
       0       0       0       0       0       0       0       0       0       0
       0       0       0       0       0       0       0       0       0       0
       0       0       0       0       0       0       0       0       0       0
       0       0       0       0       0       0       0       0       0       0
       0       0       0       0       0       0       0       0       0       0
       0       0       0       0       0       0       0       0       0       0
       0       0       0       0       0       0       0       0       0       0
       0       0       0       0       0       0       0       0       0       0
       0       0       0       0       0       0       0       0       0       0
       0       0       0       0       0       0       0       0       0       0
       0       0       0       0       0       0       0       0       0       0
       0       0       0       0       0       0       0       0       0       0
       0       0       0       0       0       0       0       0       0       0
       0       0       0       0       0       0       0       0       0       0
       0       0       0       0       0       0       0       0       0       0
       0       0       0       0       0       0       0       0       0       0
       0       0       0       0       0       0       0       0       0       0
       0       0       0       0       0       0       0       0       0       0
       0       0       0       0       0       0       0       0       0       0
       0       0       0       0       0       0       0       0       0       0
       0       0       0       0       0       0       0       0       0       0
       0       0       0       0       0       0       0       0       0       0
       0       0       0       0       0       0       0       0       0       0
       0       0       0       0       0       0       0       0       0       0
       0       0       0       0       0       0       0       0       0       0
       0       0       0       0       0       0       0       0       0       0
       0       0       0       0       0       0       0       0       0       0
       0       0       0       0       0       0       0       0       0       0
       0       0       0       0       0       0       0       0       0       0
       0       0       0       0       0       0       0       0       0       0
       0       0       0       0       0       0       0       0       0       0
       0       0       0       0       0       0       0       0       0       0
       0       0       0       0       0       0       0       0       0       0
       0       0       0       0       0       0       0       0       0       0
       0       0       0       0       0       0       0       0       0       0
       0       0       0       0       0       0       0       0       0       0
       0       0       0       0       0       0       0       0       0       0
       0       0       0       0       0       0       0       0       0       0
       0       0       0       0       0       0       0       0       0       0
       0       0       0       0       0       0       0       0       0       0
       0       0       0       0       0       0       0       0       0       0
       0       0       0       0       0       0       0       0       0       0
       0       0       0       0       0       0       0       0       0       0
       0       0       0       0       0       0       0       0       0       0
       0       0       0       0       0       0       0       0       0       0
       0       0       0       0       0       0       0       0       0       0
       0       0       0       0       0       0       0       0       0       0
       0       0       0       0       0       0       0       0       0       0
       0       0       0       0       0       0       0       0       0       0
       0       0       0       0       0       0       0       0       0       0
       0       0       0       0       0       0       0       0       0       0
       0       0       0       0       0       0       0       0       0       0
       0       0       0       0       0       0       0       0       0       0
       0       0       0       0       0       0       0       0       0       0
       0       0       0       0       0       0       0       0       0       0
       0       0       0       0       0       0       0       0       0       0
       0       0       0       0       0       0       0       0       0       0
       0       0       0       0       0       0       0       0       0       0
       0       0       0       0       0       0       0       0       0       0
       0       0       0       0       0       0       0       0       0       0
       0       0       0       0       0       0       0       0       0       0
       0       0       0       0       0       0       0       0       0       0
       0       0       0       0       0       0       0       0       0       0
       0       0       0       0       0       0       0       0       0       0
       0       0       0       0       0       0       0       0       0       0
       0       0       0       0       0       0       0       0       0       0
       0       0       0       0       0       0       0       0       0       0
       0       0       0       0       0       0       0       0       0       0
       0       0       0       0       0       0       0       0       0       0
       0       0       0       0       0       0       0       0       0       0
       0       0       0       0       0       0       0       0       0       0
       0       0       0       0       0       0       0       0       0       0
       0       0       0       0       0       0       0       0       0       0
       0       0       0       0       0       0       0       0       0       0
       0       0       0       0       0       0       0       0       0       0
       0       0       0       0       0       0       0       0       0       0
       0       0       0       0       0       0       0       0       0       0
       0       0       0       0       0       0       0       0       0       0
       0       0       0       0       0       0       0       0       0       0
       0       0       0       0       0       0       0       0       0       0
       0       0       0       0       0       0       0       0       0       0
       0       0       0       0       0       0       0       0       0       0
       0       0       0       0       0       0       0       0       0       0
       0       0       0       0       0       0       0       0       0       0
       0       0       0       0       0       0       0       0       0       0
       0       0       0       0       0       0       0       0       0       0
       0       0       0       0       0       0       0       0       0       0
       0       0       0       0       0       0       0       0       0       0
       0       0       0       0       0       0       0       0       0       0
       0       0       0       0       0       0       0       0       0       0
       0       0       0       0       0       0       0       0       0       0
       0       0       0       0       0       0       0       0       0       0
       0       0       0       0       0       0       0       0       0       0
       0       0       0       0       0       0       0       0       0       0
       0       0       0       0       0       0       0       0       0       0
       0       0       0       0       0       0       0       0       0       0
       0       0       0       0       0       0       0       0       0       0
       0       0       0       0       0       0       0       0       0       0
       0       0       0       0       0       0       0       0       0       0
       0       0       0       0       0       0       0       0       0       0
       0       0       0       0       0       0       0       0       0       0
       0       0       0       0       0       0       0       0       0       0
       0       0       0       0       0       0       0       0       0       0
       0       0       0       0       0       0       0       0       0       0
       0       0       0       0       0       0       0       0       0       0
       0       0       0       0       0       0       0       0       0       0
       0       0       0       0       0       0       0       0       0       0
       0       0       0       0       0       0       0       0       0       0
       0       0       0       0       0       0       0       0       0       0
       0       0       0       0       0       0       0       0       0       0
       0       0       0       0       0       0       0       0       0       0
       0       0       0       0       0       0       0       0       0       0
       0       0       0       0       0       0       0       0       0       0
       0       0       0       0       0       0       0       0       0       0
       0       0       0       0       0       0       0       0       0       0
       0       0       0       0       0       0       0       0       0       0
       0       0       0       0       0       0       0       0       0       0
       0       0       0       0       0       0       0       0       0       0
       0       0       0       0       0       0       0       0       0       0
       0       0       0       0       0       0       0       0       0       0
       0       0       0       0       0       0       0       0       0       0
       0       0       0       0       0       0       0       0       0       0
       0       0       0       0       0       0       0       0       0       0
       0       0       0       0       0       0       0       0       0       0
       0       0       0       0       0       0       0       0       0       0
       0       0       0       0       0       0       0       0       0       0
       0       0       0       0       0       0       0       0       0       0
       0       0       0       0       0       0       0       0       0       0
       0       0       0       0       0       0       0       0       0       0
       0       0       0       0       0       0       0       0       0       0
       0       0       0       0       0       0       0       0       0       0
       0       0       0       0       0       0       0       0       0       0
       0       0       0       0       0       0       0       0       0       0
       0       0       0       0       0       0       0       0       0       0
       0       0       0       0       0       0       0       0       0       0
       0       0       0       0       0       0       0       0       0       0
       0       0       0       0       0       0       0       0       0       0
       0       0       0       0       0       0       0       0       0       0
       0       0       0       0       0       0       0       0       0       0
       0       0       0       0       0       0       0       0       0       0
       0       0       0       0       0       0       0       0       0       0
       0       0       0       0       0       0       0       0       0       0
       0       0       0       0       0       0       0       0       0       0
       0       0       0       0       0       0       0       0       0       0
       0       0       0       0       0       0       0       0       0       0
       0       0       0       0       0       0       0       0       0       0
       0       0       0       0       0       0       0       0       0       0
       0       0       0       0       0       0       0       0       0       0
       0       0       0       0       0       0       0       0       0       0
       0       0       0       0       0       0       0       0       0       0
       0       0       0       0       0       0       0       0       0       0
       0       0       0       0       0       0       0       0       0       0
       0       0       0       0       0       0       0       0       0       0
       0       0       0       0       0       0       0       0       0       0
       0       0       0       0       0       0       0       0       0       0
       0       0       0       0       0       0       0       0       0       0
       0       0       0       0       0       0       0       0       0       0
       0       0       0       0       0       0       0       0       0       0
       0       0       0       0       0       0       0       0       0       0
       0       0       0       0       0       0       0       0       0       0
       0       0       0       0       0       0       0       0       0       0
       0       0       0       0       0       0       0       0       0       0
       0       0       0       0       0       0       0       0       0       0
       0       0       0       0       0       0       0       0       0       0
       0       0       0       0       0       0       0       0       0       0
       0       0       0       0       0       0       0       0       0       0
       0       0       0       0       0       0       0       0       0       0
       0       0       0       0       0       0       0       0       0       0
       0       0       0       0       0       0       0       0       0       0
       0       0       0       0       0       0       0       0       0       0
       0       0       0       0       0       0       0       0       0       0
       0       0       0       0       0       0       0       0       0       0
       0       0       0       0       0       0       0       0       0       0
       0       0       0       0       0       0       0       0       0       0
       0       0       0       0       0       0       0       0       0       0
       0       0       0       0       0       0       0       0       0       0
       0       0       0       0       0       0       0       0       0       0
       0       0       0       0       0       0       0       0       0       0
       0       0       0       0       0       0       0       0       0       0
       0       0       0       0       0       0       0       0       0       0
       0       0       0       0       0       0       0       0       0       0
       0       0       0       0       0       0       0       0       0       0
       0       0       0       0       0       0       0       0       0       0
       0       0       0       0       0       0       0       0       0       0
       0       0       0       0       0       0       0       0       0       0
       0       0       0       0       0       0       0       0       0       0
       0       0       0       0       0       0       0       0       0       0
       0       0       0       0       0       0       0       0       0       0
       0       0       0       0       0       0       0       0       0       0
       0       0       0       0       0       0       0       0       0       0
       0       0       0       0       0       0       0       0       0       0
       0       0       0       0       0       0       0       0       0       0
       0       0       0       0       0       0       0       0       0       0
       0       0       0       0       0       0       0       0       0       0
       0       0       0       0       0       0       0       0       0       0
       0       0       0       0       0       0       0       0       0       0
       0       0       0       0       0       0       0       0       0       0
       0       0       0       0       0       0       0       0       0       0
       0       0       0       0       0       0       0       0       0       0
       0       0       0       0       0       0       0       0       0       0
       0       0       0       0       0       0       0       0       0       0
       0       0       0       0       0       0       0       0       0       0
       0       0       0       0       0       0       0       0       0       0
       0       0       0       0       0       0       0       0       0       0
       0       0       0       0       0       0       0       0       0       0
       0       0       0       0       0       0       0       0       0       0
       0       0       0       0       0       0       0       0       0       0
       0       0       0       0       0       0       0       0       0       0
       0       0       0       0       0       0       0       0       0       0
       0       0       0       0       0       0       0       0       0       0
       0       0       0       0       0       0       0       0       0       0
       0       0       0       0       0       0       0       0       0       0
       0       0       0       0       0       0       0       0       0       0
       0       0       0       0       0       0       0       0       0       0
       0       0       0       0       0       0       0       0       0       0
       0       0       0       0       0       0       0       0       0       0
       0       0       0       0       0       0       0       0       0       0
       0       0       0       0       0       0       0       0       0       0
       0       0       0       0       0       0       0       0       0       0
       0       0       0       0       0       0       0       0       0       0
       0       0       0       0       0       0       0       0       0       0
       0       0       0       0       0       0       0       0       0       0
       0       0       0       0       0       0       0       0       0       0
       0       0       0       0       0       0       0       0       0       0
       0       0       0       0       0       0       0       0       0       0
       0       0       0       0       0       0       0       0       0       0
       0       0       0       0       0       0       0       0       0       0
       0       0       0       0       0       0       0       0       0       0
       0       0       0       0       0       0       0       0       0       0
       0       0       0       0       0       0       0       0       0       0
       0       0       0       0       0       0       0       0       0       0
       0       0       0       0       0       0       0       0       0       0
       0       0       0       0       0       0       0       0       0       0
       0       0       0       0       0       0       0       0       0       0
       0       0       0       0       0       0       0       0       0       0
       0       0       0       0       0       0       0       0       0       0
       0       0       0       0       0       0       0       0       0       0
       0       0       0       0       0       0       0       0       0       0
       0       0       0       0       0       0       0       0       0       0
       0       0       0       0       0       0       0       0       0       0
       0       0       0       0       0       0       0       0       0       0
       0       0       0       0       0       0       0       0       0       0
       0       0       0       0       0       0       0       0       0       0
       0       0       0       0       0       0       0       0       0       0
       0       0       0       0       0       0       0       0       0       0
       0       0       0       0       0       0       0       0       0       0
       0       0       0       0       0       0       0       0       0       0
       0       0       0       0       0       0       0       0       0       0
       0       0       0       0       0       0       0       0       0       0
       0       0       0       0       0       0       0       0       0       0
       0       0       0       0       0       0       0       0       0       0
       0       0       0       0       0       0       0       0       0       0
       0       0       0       0       0       0       0       0       0       0
       0       0       0       0       0       0       0       0       0       0
       0       0       0       0       0       0       0       0       0       0
       0       0       0       0       0       0       0       0       0       0
       0       0       0       0       0       0       0       0       0       0
       0       0       0       0       0       0       0       0       0       0
       0       0       0       0       0       0       0       0       0       0
       0       0       0       0       0       0       0       0       0       0
       0       0       0       0       0       0       0       0       0       0
       0       0       0       0       0       0       0       0       0       0
       0       0       0       0       0       0       0       0       0       0
       0       0       0       0       0       0       0       0       0       0
       0       0       0       0       0       0       0       0       0       0
       0       0       0       0       0       0       0       0       0       0
       0       0       0       0       0       0       0       0       0       0
       0       0       0       0       0       0       0       0       0       0
       0       0       0       0       0       0       0       0       0       0
       0       0       0       0       0       0       0       0       0       0
       0       0       0       0       0       0       0       0       0       0
       0       0       0       0       0       0       0       0       0       0
       0       0       0       0       0       0       0       0       0       0
       0       0       0       0       0       0       0       0       0       0
       0       0       0       0       0       0       0       0       0       0
       0       0       0       0       0       0       0       0       0       0
       0       0       0       0       0       0       0       0       0       0
       0       0       0       0       0       0       0       0       0       0
       0       0       0       0       0       0       0       0       0       0
       0       0       0       0       0       0       0       0       0       0
       0       0       0       0       0       0       0       0       0       0
       0       0       0       0       0       0       0       0       0       0
       0       0       0       0       0       0       0       0       0       0
       0       0       0       0       0       0       0       0       0       0
       0       0       0       0       0       0       0       0       0       0
       0       0       0       0       0       0       0       0       0       0
       0       0       0       0       0       0       0       0       0       0
       0       0       0       0       0       0       0       0       0       0
       0       0       0       0       0       0       0       0       0       0
       0       0       0       0       0       0       0       0       0       0
       0       0       0       0       0       0       0       0       0       0
       0       0       0       0       0       0       0       0       0       0
       0       0       0       0       0       0       0       0       0       0
       0       0       0       0       0       0       0       0       0       0
       0       0       0       0       0       0       0       0       0       0
       0       0       0       0       0       0       0       0       0       0
       0       0       0       0       0       0       0       0       0       0
       0       0       0       0       0       0       0       0       0       0
       0       0       0       0       0       0       0       0       0       0
       0       0       0       0       0       0       0       0       0       0
       0       0       0       0       0       0       0       0       0       0
       0       0       0       0       0       0       0       0       0       0
       0       0       0       0       0       0       0       0       0       0
       0       0       0       0       0       0       0       0       0       0
       0       0       0       0       0       0       0       0       0       0
       0       0       0       0       0       0       0       0       0       0
       0       0       0       0       0       0       0       0       0       0
       0       0       0       0       0       0       0       0       0       0
       0       0       0       0       0       0       0       0       0       0
       0       0       0       0       0       0       0       0       0       0
       0       0       0       0       0       0       0       0       0       0
       0       0       0       0       0       0       0       0       0       0
       0       0       0       0       0       0       0       0       0       0
       0       0       0       0       0       0       0       0       0       0
       0       0       0       0       0       0       0       0       0       0
       0       0       0       0       0       0       0       0       0       0
       0       0       0       0       0       0       0       0       0       0
       0       0       0       0       0       0       0       0       0       0
       0       0       0       0       0       0       0       0       0       0
       0       0       0       0       0       0       0       0       0       0
       0       0       0       0       0       0       0       0       0       0
       0       0       0       0       0       0       0       0       0       0
       0       0       0       0       0       0       0       0       0       0
       0       0       0       0       0       0       0       0       0       0
       0       0       0       0       0       0       0       0       0       0
       0       0       0       0       0       0       0       0       0       0
       0       0       0       0       0       0       0       0       0       0
       0       0       0       0       0       0       0       0       0       0
       0       0       0       0       0       0       0       0       0       0
       0       0       0       0       0       0       0       0       0       0
       0       0       0       0       0       0       0       0       0       0
       0       0       0       0       0       0       0       0       0       0
       0       0       0       0       0       0       0       0       0       0
       0       0       0       0       0       0       0       0       0       0
       0       0       0       0       0       0       0       0       0       0
       0       0       0       0       0       0       0       0       0       0
       0       0       0       0       0       0       0       0       0       0
       0       0       0       0       0       0       0       0       0       0
       0       0       0       0       0       0       0       0       0       0
       0       0       0       0       0       0       0       0       0       0
       0       0       0       0       0       0       0       0       0       0
       0       0       0       0       0       0       0       0       0       0
       0       0       0       0       0       0       0       0       0       0
       0       0       0       0       0       0       0       0       0       0
       0       0       0       0       0       0       0       0       0       0
       0       0       0       0       0       0       0       0       0       0
       0       0       0       0       0       0       0       0       0       0
       0       0       0       0       0       0       0       0       0       0
       0       0       0       0       0       0       0       0       0       0
       0       0       0       0       0       0       0       0       0       0
       0       0       0       0       0       0       0       0       0       0
       0       0       0       0       0       0       0       0       0       0
       0       0       0       0       0       0       0       0       0       0
       0       0       0       0       0       0       0       0       0       0
       0       0       0       0       0       0       0       0       0       0
       0       0       0       0       0       0       0       0       0       0
       0       0       0       0       0       0       0       0       0       0
       0       0       0       0       0       0       0       0       0       0
       0       0       0       0       0       0       0       0       0       0
       0       0       0       0       0       0       0       0       0       0
       0       0       0       0       0       0       0       0       0       0
       0       0       0       0       0       0       0       0       0       0
       0       0       0       0       0       0       0       0       0       0
       0       0       0       0       0       0       0       0       0       0
       0       0       0       0       0       0       0       0       0       0
       0       0       0       0       0       0       0       0       0       0
       0       0       0       0       0       0       0       0       0       0
       0       0       0       0       0       0       0       0       0       0
       0       0       0       0       0       0       0       0       0       0
       0       0       0       0       0       0       0       0       0       0
       0       0       0       0       0       0       0       0       0       0
       0       0       0       0       0       0       0       0       0       0
       0       0       0       0       0       0       0       0       0       0
       0       0       0       0       0       0       0       0       0       0
       0       0       0       0       0       0       0       0       0       0
       0       0       0       0       0       0       0       0       0       0
       0       0       0       0       0       0       0       0       0       0
       0       0       0       0       0       0       0       0       0       0
       0       0       0       0       0       0       0       0       0       0
       0       0       0       0       0       0       0       0       0       0
       0       0       0       0       0       0       0       0       0       0
       0       0       0       0       0       0       0       0       0       0
       0       0       0       0       0       0       0       0       0       0
       0       0       0       0       0       0       0       0       0       0
       0       0       0       0       0       0       0       0       0       0
       0       0       0       0       0       0       0       0       0       0
       0       0       0       0       0       0       0       0       0       0
       0       0       0       0       0       0       0       0       0       0
       0       0       0       0       0       0       0       0       0       0
       0       0       0       0       0       0       0       0       0       0
       0       0       0       0       0       0       0       0       0       0
       0       0       0       0       0       0       0       0       0       0
       0       0       0       0       0       0       0       0       0       0
       0       0       0       0       0       0       0       0       0       0
       0       0       0       0       0       0       0       0       0       0
       0       0       0       0       0       0       0       0       0       0
       0       0       0       0       0       0       0       0       0       0
       0       0       0       0       0       0       0       0       0       0
       0       0       0       0       0       0       0       0       0       0
       0       0       0       0       0       0       0       0       0       0
       0       0       0       0       0       0       0       0       0       0
       0       0       0       0       0       0       0       0       0       0
       0       0       0       0       0       0       0       0       0       0
       0       0       0       0       0       0       0       0       0       0
       0       0       0       0       0       0       0       0       0       0
       0       0       0       0       0       0       0       0       0       0
       0       0       0       0       0       0       0       0       0       0
       0       0       0       0       0       0       0       0       0       0
       0       0       0       0       0       0       0       0       0       0
       0       0       0       0       0       0       0       0       0       0
       0       0       0       0       0       0       0       0       0       0
       0       0       0       0       0       0       0       0       0       0
       0       0       0       0       0       0       0       0       0       0
       0       0       0       0       0       0       0       0       0       0
       0       0       0       0       0       0       0       0       0       0
       0       0       0       0       0       0       0       0       0       0
       0       0       0       0       0       0       0       0       0       0
       0       0       0       0       0       0       0       0       0       0
       0       0       0       0       0       0       0       0       0       0
       0       0       0       0       0       0       0       0       0       0
       0       0       0       0       0       0       0       0       0       0
       0       0       0       0       0       0       0       0       0       0
       0       0       0       0       0       0       0       0       0       0
       0       0       0       0       0       0       0       0       0       0
       0       0       0       0       0       0       0       0       0       0
       0       0       0       0       0       0       0       0       0       0
       0       0       0       0       0       0       0       0       0       0
       0       0       0       0       0       0       0       0       0       0
       0       0       0       0       0       0       0       0       0       0
       0       0       0       0       0       0       0       0       0       0
       0       0       0       0       0       0       0       0       0       0
       0       0       0       0       0       0       0       0       0       0
       0       0       0       0       0       0       0       0       0       0
       0       0       0       0       0       0       0       0       0       0
       0       0       0       0       0       0       0       0       0       0
       0       0       0       0       0       0       0       0       0       0
       0       0       0       0       0       0       0       0       0       0
       0       0       0       0       0       0       0       0       0       0
       0       0       0       0       0       0       0       0       0       0
       0       0       0       0       0       0       0       0       0       0
       0       0       0       0       0       0       0       0       0       0
       0       0       0       0       0       0       0       0       0       0
       0       0       0       0       0       0       0       0       0       0
       0       0       0       0       0       0       0       0       0       0
       0       0       0       0       0       0       0       0       0       0
       0       0       0       0       0       0       0       0       0       0
       0       0       0       0       0       0       0       0       0       0
       0       0       0       0       0       0       0       0       0       0
       0       0       0       0       0       0       0       0       0       0
       0       0       0       0       0       0       0       0       0       0
       0       0       0       0       0       0       0       0       0       0
       0       0       0       0       0       0       0       0       0       0
       0       0       0       0       0       0       0       0       0       0
       0       0       0       0       0       0       0       0       0       0
       0       0       0       0       0       0       0       0       0       0
       0       0       0       0       0       0       0       0       0       0
       0       0       0       0       0       0       0       0       0       0
       0       0       0       0       0       0       0       0       0       0
       0       0       0       0       0       0       0       0       0       0
       0       0       0       0       0       0       0       0       0       0
       0       0       0       0       0       0       0       0       0       0
       0       0       0       0       0       0       0       0       0       0
       0       0       0       0       0       0       0       0       0       0
       0       0       0       0       0       0       0       0       0       0
       0       0       0       0       0       0       0       0       0       0
       0       0       0       0       0       0       0       0       0       0
       0       0       0       0       0       0       0       0       0       0
       0       0       0       0       0       0       0       0       0       0
       0       0       0       0       0       0       0       0       0       0
       0       0       0       0       0       0       0       0       0       0
       0       0       0       0       0       0       0       0       0       0
       0       0       0       0       0       0       0       0       0       0
       0       0       0       0       0       0       0       0       0       0
       0       0       0       0       0       0       0       0       0       0
       0       0       0       0       0       0       0       0       0       0
       0       0       0       0       0       0       0       0       0       0
       0       0       0       0       0       0       0       0       0       0
       0       0       0       0       0       0       0       0       0       0
       0       0       0       0       0       0       0       0       0       0
       0       0       0       0       0       0       0       0       0       0
       0       0       0       0       0       0       0       0       0       0
       0       0       0       0       0       0       0       0       0       0
       0       0       0       0       0       0       0       0       0       0
       0       0       0       0       0       0       0       0       0       0
       0       0       0       0       0       0       0       0       0       0
       0       0       0       0       0       0       0       0       0       0
       0       0       0       0       0       0       0       0       0       0
       0       0       0       0       0       0       0       0       0       0
       0       0       0       0       0       0       0       0       0       0
       0       0       0       0       0       0       0       0       0       0
       0       0       0       0       0       0       0       0       0       0
       0       0       0       0       0       0       0       0       0       0
       0       0       0       0       0       0       0       0       0       0
       0       0       0       0       0       0       0       0       0       0
       0       0       0       0       0       0       0       0       0       0
       0       0       0       0       0       0       0       0       0       0
       0       0       0       0       0       0       0       0       0       0
       0       0       0       0       0       0       0       0       0       0
       0       0       0       0       0       0       0       0       0       0
       0       0       0       0       0       0       0       0       0       0
       0       0       0       0       0       0       0       0       0       0
       0       0       0       0       0       0       0       0       0       0
       0       0       0       0       0       0       0       0       0       0
       0       0       0       0       0       0       0       0       0       0
       0       0       0       0       0       0       0       0       0       0
       0       0       0       0       0       0       0       0       0       0
       0       0       0       0       0       0       0       0       0       0
       0       0       0       0       0       0       0       0       0       0
       0       0       0       0       0       0       0       0       0       0
       0       0       0       0       0       0       0       0       0       0
       0       0       0       0       0       0       0       0       0       0
       0       0       0       0       0       0       0       0       0       0
       0       0       0       0       0       0       0       0       0       0
       0       0       0       0       0       0       0       0       0       0
       0       0       0       0       0       0       0       0       0       0
       0       0       0       0       0       0       0       0       0       0
       0       0       0       0       0       0       0       0       0       0
       0       0       0       0       0       0       0       0       0       0
       0       0       0       0       0       0       0       0       0       0
       0       0       0       0       0       0       0       0       0       0
       0       0       0       0       0       0       0       0       0       0
       0       0       0       0       0       0       0       0       0       0
       0       0       0       0       0       0       0       0       0       0
       0       0       0       0       0       0       0       0       0       0
       0       0       0       0       0       0       0       0       0       0
       0       0       0       0       0       0       0       0       0       0
       0       0       0       0       0       0       0       0       0       0
       0       0       0       0       0       0       0       0       0       0
       0       0       0       0       0       0       0       0       0       0
       0       0       0       0       0       0       0       0       0       0
       0       0       0       0       0       0       0       0       0       0
       0       0       0       0       0       0       0       0       0       0
       0       0       0       0       0       0       0       0       0       0
       0       0       0       0       0       0       0       0       0       0
       0       0       0       0       0       0       0       0       0       0
       0       0       0       0       0       0       0       0       0       0
       0       0       0       0       0       0       0       0       0       0
       0       0       0       0       0       0       0       0       0       0
       0       0       0       0       0       0       0       0       0       0
       0       0       0       0       0       0       0       0       0       0
       0       0       0       0       0       0       0       0       0       0
       0       0       0       0       0       0       0       0       0       0
       0       0       0       0       0       0       0       0       0       0
       0       0       0       0       0       0       0       0       0       0
       0       0       0       0       0       0       0       0       0       0
       0       0       0       0       0       0       0       0       0       0
       0       0       0       0       0       0       0       0       0       0
       0       0       0       0       0       0       0       0       0       0
       0       0       0       0       0       0       0       0       0       0
       0       0       0       0       0       0       0       0       0       0
       0       0       0       0       0       0       0       0       0       0
       0       0       0       0       0       0       0       0       0       0
       0       0       0       0       0       0       0       0       0       0
       0       0       0       0       0       0       0       0       0       0
       0       0       0       0       0       0       0       0       0       0
       0       0       0       0       0       0       0       0       0       0
       0       0       0       0       0       0       0       0       0       0
       0       0       0       0       0       0       0       0       0       0
       0       0       0       0       0       0       0       0       0       0
       0       0       0       0       0       0       0       0       0       0
       0       0       0       0       0       0       0       0       0       0
       0       0       0       0       0       0       0       0       0       0
       0       0       0       0       0       0       0       0       0       0
       0       0       0       0       0       0       0       0       0       0
       0       0       0       0       0       0       0       0       0       0
       0       0       0       0       0       0       0       0       0       0
       0       0       0       0       0       0       0       0       0       0
       0       0       0       0       0       0       0       0       0       0
       0       0       0       0       0       0       0       0       0       0
       0       0       0       0       0       0       0       0       0       0
       0       0       0       0       0       0       0       0       0       0
       0       0       0       0       0       0       0       0       0       0
       0       0       0       0       0       0       0       0       0       0
       0       0       0       0       0       0       0       0       0       0
       0       0       0       0       0       0       0       0       0       0
       0       0       0       0       0       0       0       0       0       0
       0       0       0       0       0       0       0       0       0       0
       0       0       0       0       0       0       0       0       0       0
       0       0       0       0       0       0       0       0       0       0
       0       0       0       0       0       0       0       0       0       0
       0       0       0       0       0       0       0       0       0       0
       0       0       0       0       0       0       0       0       0       0
       0       0       0       0       0       0       0       0       0       0
       0       0       0       0       0       0       0       0       0       0
       0       0       0       0       0       0       0       0       0       0
       0       0       0       0       0       0       0       0       0       0
       0       0       0       0       0       0       0       0       0       0
       0       0       0       0       0       0       0       0       0       0
       0       0       0       0       0       0       0       0       0       0
       0       0       0       0       0       0       0       0       0       0
       0       0       0       0       0       0       0       0       0       0
       0       0       0       0       0       0       0       0       0       0
       0       0       0       0       0       0       0       0       0       0
       0       0       0       0       0       0       0       0       0       0
       0       0       0       0       0       0       0       0       0       0
       0       0       0       0       0       0       0       0       0       0
       0       0       0       0       0       0       0       0       0       0
       0       0       0       0       0       0       0       0       0       0
       0       0       0       0       0       0       0       0       0       0
       0       0       0       0       0       0       0       0       0       0
       0       0       0       0       0       0       0       0       0       0
       0       0       0       0       0       0       0       0       0       0
       0       0       0       0       0       0       0       0       0       0
       0       0       0       0       0       0       0       0       0       0
       0       0       0       0       0       0       0       0       0       0
       0       0       0       0       0       0       0       0       0       0
       0       0       0       0       0       0       0       0       0       0
       0       0       0       0       0       0       0       0       0       0
       0       0       0       0       0       0       0       0       0       0
       0       0       0       0       0       0       0       0       0       0
       0       0       0       0       0       0       0       0       0       0
       0       0       0       0       0       0       0       0       0       0
       0       0       0       0       0       0       0       0       0       0
       0       0       0       0       0       0       0       0       0       0
       0       0       0       0       0       0       0       0       0       0
       0       0       0       0       0       0       0       0       0       0
       0       0       0       0       0       0       0       0       0       0
       0       0       0       0       0       0       0       0       0       0
       0       0       0       0       0       0       0       0       0       0
       0       0       0       0       0       0       0       0       0       0
       0       0       0       0       0       0       0       0       0       0
       0       0       0       0       0       0       0       0       0       0
       0       0       0       0       0       0       0       0       0       0
       0       0       0       0       0       0       0       0       0       0
       0       0       0       0       0       0       0       0       0       0
       0       0       0       0       0       0       0       0       0       0
       0       0       0       0       0       0       0       0       0       0
       0       0       0       0       0       0       0       0       0       0
       0       0       0       0       0       0       0       0       0       0
       0       0       0       0       0       0       0       0       0       0
       0       0       0       0       0       0       0       0       0       0
       0       0       0       0       0       0       0       0       0       0
       0       0       0       0       0       0       0       0       0       0
       0       0       0       0       0       0       0       0       0       0
       0       0       0       0       0       0       0       0       0       0
       0       0       0       0       0       0       0       0       0       0
       0       0       0       0       0       0       0       0       0       0
       0       0       0       0       0       0       0       0       0       0
       0       0       0       0       0       0       0       0       0       0
       0       0       0       0       0       0       0       0       0       0
       0       0       0       0       0       0       0       0       0       0
       0       0       0       0       0       0       0       0       0       0
       0       0       0       0       0       0       0       0       0       0
       0       0       0       0       0       0       0       0       0       0
       0       0       0       0       0       0       0       0       0       0
       0       0       0       0       0       0       0       0       0       0
       0       0       0       0       0       0       0       0       0       0
       0       0       0       0       0       0       0       0       0       0
       0       0       0       0       0       0       0       0       0       0
       0       0       0       0       0       0       0       0       0       0
       0       0       0       0       0       0       0       0       0       0
       0       0       0       0       0       0       0       0       0       0
       0       0       0       0       0       0       0       0       0       0
       0       0       0       0       0       0       0       0       0       0
       0       0       0       0       0       0       0       0       0       0
       0       0       0       0       0       0       0       0       0       0
       0       0       0       0       0       0       0       0       0       0
       0       0       0       0       0       0       0       0       0       0
       0       0       0       0       0       0       0       0       0       0
       0       0       0       0       0       0       0       0       0       0
       0       0       0       0       0       0       0       0       0       0
       0       0       0       0       0       0       0       0       0       0
       0       0       0       0       0       0       0       0       0       0
       0       0       0       0       0       0       0       0       0       0
       0       0       0       0       0       0       0       0       0       0
       0       0       0       0       0       0       0       0       0       0
       0       0       0       0       0       0       0       0       0       0
       0       0       0       0       0       0       0       0       0       0
       0       0       0       0       0       0       0       0       0       0
       0       0       0       0       0       0       0       0       0       0
       0       0       0       0       0       0       0       0       0       0
       0       0       0       0       0       0       0       0       0       0
       0       0       0       0       0       0       0       0       0       0
       0       0       0       0       0       0       0       0       0       0
       0       0       0       0       0       0       0       0       0       0
       0       0       0       0       0       0       0       0       0       0
       0       0       0       0       0       0       0       0       0       0
       0       0       0       0       0       0       0       0       0       0
       0       0       0       0       0       0       0       0       0       0
       0       0       0       0       0       0       0       0       0       0
       0       0       0       0       0       0       0       0       0       0
       0       0       0       0       0       0       0       0       0       0
       0       0       0       0       0       0       0       0       0       0
       0       0       0       0       0       0       0       0       0       0
       0       0       0       0       0       0       0       0       0       0
       0       0       0       0       0       0       0       0       0       0
       0       0       0       0       0       0       0       0       0       0
       0       0       0       0       0       0       0       0       0       0
       0       0       0       0       0       0       0       0       0       0
       0       0       0       0       0       0       0       0       0       0
       0       0       0       0       0       0       0       0       0       0
       0       0       0       0       0       0       0       0       0       0
       0       0       0       0       0       0       0       0       0       0
       0       0       0       0       0       0       0       0       0       0
       0       0       0       0       0       0       0       0       0       0
       0       0       0       0       0       0       0       0       0       0
       0       0       0       0       0       0       0       0       0       0
       0       0       0       0       0       0       0       0       0       0
       0       0       0       0       0       0       0       0       0       0
       0       0       0       0       0       0       0       0       0       0
       0       0       0       0       0       0       0       0       0       0
       0       0       0       0       0       0       0       0       0       0
       0       0       0       0       0       0       0       0       0       0
       0       0       0       0       0       0       0       0       0       0
       0       0       0       0       0       0       0       0       0       0
       0       0       0       0       0       0       0       0       0       0
       0       0       0       0       0       0       0       0       0       0
       0       0       0       0       0       0       0       0       0       0
       0       0       0       0       0       0       0       0       0       0
       0       0       0       0       0       0       0       0       0       0
       0       0       0       0       0       0       0       0       0       0
       0       0       0       0       0       0       0       0       0       0
       0       0       0       0       0       0       0       0       0       0
       0       0       0       0       0       0       0       0       0       0
       0       0       0       0       0       0       0       0       0       0
       0       0       0       0       0       0       0       0       0       0
       0       0       0       0       0       0       0       0       0       0
       0       0       0       0       0       0       0       0       0       0
       0       0       0       0       0       0       0       0       0       0
       0       0       0       0       0       0       0       0       0       0
       0       0       0       0       0       0       0       0       0       0
       0       0       0       0       0       0       0       0       0       0
       0       0       0       0       0       0       0       0       0       0
       0       0       0       0       0       0       0       0       0       0
       0       0       0       0       0       0       0       0       0       0
       0       0       0       0       0       0       0       0       0       0
       0       0       0       0       0       0       0       0       0       0
       0       0       0       0       0       0       0       0       0       0
       0       0       0       0       0       0       0       0       0       0
       0       0       0       0       0       0       0       0       0       0
       0       0       0       0       0       0       0       0       0       0
       0       0       0       0       0       0       0       0       0       0
       0       0       0       0       0       0       0       0       0       0
       0       0       0       0       0       0       0       0       0       0
       0       0       0       0       0       0       0       0       0       0
       0       0       0       0       0       0       0       0       0       0
       0       0       0       0       0       0       0       0       0       0
       0       0       0       0       0       0       0       0       0       0
       0       0       0       0       0       0       0       0       0       0
       0       0       0       0       0       0       0       0       0       0
       0       0       0       0       0       0       0       0       0       0
       0       0       0       0       0       0       0       0       0       0
       0       0       0       0       0       0       0       0       0       0
       0       0       0       0       0       0       0       0       0       0
       0       0       0       0       0       0       0       0       0       0
       0       0       0       0       0       0       0       0       0       0
       0       0       0       0       0       0       0       0       0       0
       0       0       0       0       0       0       0       0       0       0
       0       0       0       0       0       0       0       0       0       0
       0       0       0       0       0       0       0       0       0       0
       0       0       0       0       0       0       0       0       0       0
       0       0       0       0       0       0       0       0       0       0
       0       0       0       0       0       0       0       0       0       0
       0       0       0       0       0       0       0       0       0       0
       0       0       0       0       0       0       0       0       0       0
       0       0       0       0       0       0       0       0       0       0
       0       0       0       0       0       0       0       0       0       0
       0       0       0       0       0       0       0       0       0       0
       0       0       0       0       0       0       0       0       0       0
       0       0       0       0       0       0       0       0       0       0
       0       0       0       0       0       0       0       0       0       0
       0       0       0       0       0       0       0       0       0       0
       0       0       0       0       0       0       0       0       0       0
       0       0       0       0       0       0       0       0       0       0
       0       0       0       0       0       0       0       0       0       0
       0       0       0       0       0       0       0       0       0       0
       0       0       0       0       0       0       0       0       0       0
       0       0       0       0       0       0       0       0       0       0
       0       0       0       0       0       0       0       0       0       0
       0       0       0       0       0       0       0       0       0       0
       0       0       0       0       0       0       0       0       0       0
       0       0       0       0       0       0       0       0       0       0
       0       0       0       0       0       0       0       0       0       0
       0       0       0       0       0       0       0       0       0       0
       0       0       0       0       0       0       0       0       0       0
       0       0       0       0       0       0       0       0       0       0
       0       0       0       0       0       0       0       0       0       0
       0       0       0       0       0       0       0       0       0       0
       0       0       0       0       0       0       0       0       0       0
       0       0       0       0       0       0       0       0       0       0
       0       0       0       0       0       0       0       0       0       0
       0       0       0       0       0       0       0       0       0       0
       0       0       0       0       0       0       0       0       0       0
       0       0       0       0       0       0       0       0       0       0
       0       0       0       0       0       0       0       0       0       0
       0       0       0       0       0       0       0       0       0       0
       0       0       0       0       0       0       0       0       0       0
       0       0       0       0       0       0       0       0       0       0
       0       0       0       0       0       0       0       0       0       0
       0       0       0       0       0       0       0       0       0       0
       0       0       0       0       0       0       0       0       0       0
       0       0       0       0       0       0       0       0       0       0
       0       0       0       0       0       0       0       0       0       0
       0       0       0       0       0       0       0       0       0       0
       0       0       0       0       0       0       0       0       0       0
       0       0       0       0       0       0       0       0       0       0
       0       0       0       0       0       0       0       0       0       0
       0       0       0       0       0       0       0       0       0       0
       0       0       0       0       0       0       0       0       0       0
       0       0       0       0       0       0       0       0       0       0
       0       0       0       0       0       0       0       0       0       0
       0       0       0       0       0       0       0       0       0       0
       0       0       0       0       0       0       0       0       0       0
       0       0       0       0       0       0       0       0       0       0
       0       0       0       0       0       0       0       0       0       0
       0       0       0       0       0       0       0       0       0       0
       0       0       0       0       0       0       0       0       0       0
       0       0       0       0       0       0       0       0       0       0
       0       0       0       0       0       0       0       0       0       0
       0       0       0       0       0       0       0       0       0       0
       0       0       0       0       0       0       0       0       0       0
       0       0       0       0       0       0       0       0       0       0
       0       0       0       0       0       0       0       0       0       0
       0       0       0       0       0       0       0       0       0       0
       0       0       0       0       0       0       0       0       0       0
       0       0       0       0       0       0       0       0       0       0
       0       0       0       0       0       0       0       0       0       0
       0       0       0       0       0       0       0       0       0       0
       0       0       0       0       0       0       0       0       0       0
       0       0       0       0       0       0       0       0       0       0
       0       0       0       0       0       0       0       0       0       0
       0       0       0       0       0       0       0       0       0       0
       0       0       0       0       0       0       0       0       0       0
       0       0       0       0       0       0       0       0       0       0
       0       0       0       0       0       0       0       0       0       0
       0       0       0       0       0       0       0       0       0       0
       0       0       0       0       0       0       0       0       0       0
       0       0       0       0       0       0       0       0       0       0
       0       0       0       0       0       0       0       0       0       0
       0       0       0       0       0       0       0       0       0       0
       0       0       0       0       0       0       0       0       0       0
       0       0       0       0       0       0       0       0       0       0
       0       0       0       0       0       0       0       0       0       0
       0       0       0       0       0       0       0       0       0       0
       0       0       0       0       0       0       0       0       0       0
       0       0       0       0       0       0       0       0       0       0
       0       0       0       0       0       0       0       0       0       0
       0       0       0       0       0       0       0       0       0       0
       0       0       0       0       0       0       0       0       0       0
       0       0       0       0       0       0       0       0       0       0
       0       0       0       0       0       0       0       0       0       0
       0       0       0       0       0       0       0       0       0       0
       0       0       0       0       0       0       0       0       0       0
       0       0       0       0       0       0       0       0       0       0
       0       0       0       0       0       0       0       0       0       0
       0       0       0       0       0       0       0       0       0       0
       0       0       0       0       0       0       0       0       0       0
       0       0       0       0       0       0       0       0       0       0
       0       0       0       0       0       0       0       0       0       0
       0       0       0       0       0       0       0       0       0       0
       0       0       0       0       0       0       0       0       0       0
       0       0       0       0       0       0       0       0       0       0
       0       0       0       0       0       0       0       0       0       0
       0       0       0       0       0       0       0       0       0       0
       0       0       0       0       0       0       0       0       0       0
       0       0       0       0       0       0       0       0       0       0
       0       0       0       0       0       0       0       0       0       0
       0       0       0       0       0       0       0       0       0       0
       0       0       0       0       0       0       0       0       0       0
       0       0       0       0       0       0       0       0       0       0
       0       0       0       0       0       0       0       0       0       0
       0       0       0       0       0       0       0       0       0       0
       0       0       0       0       0       0       0       0       0       0
       0       0       0       0       0       0       0       0       0       0
       0       0       0       0       0       0       0       0       0       0
       0       0       0       0       0       0       0       0       0       0
       0       0       0       0       0       0       0       0       0       0
       0       0       0       0       0       0       0       0       0       0
       0       0       0       0       0       0       0       0       0       0
       0       0       0       0       0       0       0       0       0       0
       0       0       0       0       0       0       0       0       0       0
       0       0       0       0       0       0       0       0       0       0
       0       0       0       0       0       0       0       0       0       0
       0       0       0       0       0       0       0       0       0       0
       0       0       0       0       0       0       0       0       0       0
       0       0       0       0       0       0       0       0       0       0
       0       0       0       0       0       0       0       0       0       0
       0       0       0       0       0       0       0       0       0       0
       0       0       0       0       0       0       0       0       0       0
       0       0       0       0       0       0       0       0       0       0
       0       0       0       0       0       0       0       0       0       0
       0       0       0       0       0       0       0       0       0       0
       0       0       0       0       0       0       0       0       0       0
       0       0       0       0       0       0       0       0       0       0
       0       0       0       0       0       0       0       0       0       0
       0       0       0       0       0       0       0       0       0       0
       0       0       0       0       0       0       0       0       0       0
       0       0       0       0       0       0       0       0       0       0
       0       0       0       0       0       0       0       0       0       0
       0       0       0       0       0       0       0       0       0       0
       0       0       0       0       0       0       0       0       0       0
       0       0       0       0       0       0       0       0       0       0
       0       0       0       0       0       0       0       0       0       0
       0       0       0       0       0       0       0       0       0       0
       0       0       0       0       0       0       0       0       0       0
       0       0       0       0       0       0       0       0       0       0
       0       0       0       0       0       0       0       0       0       0
       0       0       0       0       0       0       0       0       0       0
       0       0       0       0       0       0       0       0       0       0
       0       0       0       0       0       0       0       0       0       0
       0       0       0       0       0       0       0       0       0       0
       0       0       0       0       0       0       0       0       0       0
       0       0       0       0       0       0       0       0       0       0
       0       0       0       0       0       0       0       0       0       0
       0       0       0       0       0       0       0       0       0       0
       0       0       0       0       0       0       0       0       0       0
       0       0       0       0       0       0       0       0       0       0
       0       0       0       0       0       0       0       0       0       0
       0       0       0       0       0       0       0       0       0       0
       0       0       0       0       0       0       0       0       0       0
       0       0       0       0       0       0       0       0       0       0
       0       0       0       0       0       0       0       0       0       0
       0       0       0       0       0       0       0       0       0       0
       0       0       0       0       0       0       0       0       0       0
       0       0       0       0       0       0       0       0       0       0
       0       0       0       0       0       0       0       0       0       0
       0       0       0       0       0       0       0       0       0       0
       0       0       0       0       0       0       0       0       0       0
       0       0       0       0       0       0       0       0       0       0
       0       0       0       0       0       0       0       0       0       0
       0       0       0       0       0       0       0       0       0       0
       0       0       0       0       0       0       0       0       0       0
       0       0       0       0       0       0       0       0       0       0
       0       0       0       0       0       0       0       0       0       0
       0       0       0       0       0       0       0       0       0       0
       0       0       0       0       0       0       0       0       0       0
       0       0       0       0       0       0       0       0       0       0
       0       0       0       0       0       0       0       0       0       0
       0       0       0       0       0       0       0       0       0       0
       0       0       0       0       0       0       0       0       0       0
       0       0       0       0       0       0       0       0       0       0
       0       0       0       0       0       0       0       0       0       0
       0       0       0       0       0       0       0       0       0       0
       0       0       0       0       0       0       0       0       0       0
       0       0       0       0       0       0       0       0       0       0
       0       0       0       0       0       0       0       0       0       0
       0       0       0       0       0       0       0       0       0       0
       0       0       0       0       0       0       0       0       0       0
       0       0       0       0       0       0       0       0       0       0
       0       0       0       0       0       0       0       0       0       0
       0       0       0       0       0       0       0       0       0       0
       0       0       0       0       0       0       0       0       0       0
       0       0       0       0       0       0       0       0       0       0
       0       0       0       0       0       0       0       0       0       0
       0       0       0       0       0       0       0       0       0       0
       0       0       0       0       0       0       0       0       0       0
       0       0       0       0       0       0       0       0       0       0
       0       0       0       0       0       0       0       0       0       0
       0       0       0       0       0       0       0       0       0       0
       0       0       0       0       0       0       0       0       0       0
       0       0       0       0       0       0       0       0       0       0
       0       0       0       0       0       0       0       0       0       0
       0       0       0       0       0       0       0       0       0       0
       0       0       0       0       0       0       0       0       0       0
       0       0       0       0       0       0       0       0       0       0
       0       0       0       0       0       0       0       0       0       0
       0       0       0       0       0       0       0       0       0       0
       0       0       0       0       0       0       0       0       0       0
       0       0       0       0       0       0       0       0       0       0
       0       0       0       0       0       0       0       0       0       0
       0       0       0       0       0       0       0       0       0       0
       0       0       0       0       0       0       0       0       0       0
       0       0       0       0       0       0       0       0       0       0
       0       0       0       0       0       0       0       0       0       0
       0       0       0       0       0       0       0       0       0       0
       0       0       0       0       0       0       0       0       0       0
       0       0       0       0       0       0       0       0       0       0
       0       0       0       0       0       0       0       0       0       0
       0       0       0       0       0       0       0       0       0       0
       0       0       0       0       0       0       0       0       0       0
       0       0       0       0       0       0       0       0       0       0
       0       0       0       0       0       0       0       0       0       0
       0       0       0       0       0       0       0       0       0       0
       0       0       0       0       0       0       0       0       0       0
       0       0       0       0       0       0       0       0       0       0
       0       0       0       0       0       0       0       0       0       0
       0       0       0       0       0       0       0       0       0       0
       0       0       0       0       0       0       0       0       0       0
       0       0       0       0       0       0       0       0       0       0
       0       0       0       0       0       0       0       0       0       0
       0       0       0       0       0       0       0       0       0       0
       0       0       0       0       0       0       0       0       0       0
       0       0       0       0       0       0       0       0       0       0
       0       0       0       0       0       0       0       0       0       0
       0       0       0       0       0       0       0       0       0       0
       0       0       0       0       0       0       0       0       0       0
       0       0       0       0       0       0       0       0       0       0
       0       0       0       0       0       0       0       0       0       0
       0       0       0       0       0       0       0       0       0       0
       0       0       0       0       0       0       0       0       0       0
       0       0       0       0       0       0       0       0       0       0
       0       0       0       0       0       0       0       0       0       0
       0       0       0       0       0       0       0       0       0       0
       0       0       0       0       0       0       0       0       0       0
       0       0       0       0       0       0       0       0       0       0
       0       0       0       0       0       0       0       0       0       0
       0       0       0       0       0       0       0       0       0       0
       0       0       0       0       0       0       0       0       0       0
       0       0       0       0       0       0       0       0       0       0
       0       0       0       0       0       0       0       0       0       0
       0       0       0       0       0       0       0       0       0       0
       0       0       0       0       0       0       0       0       0       0
       0       0       0       0       0       0       0       0       0       0
       0       0       0       0       0       0       0       0       0       0
       0       0       0       0       0       0       0       0       0       0
       0       0       0       0       0       0       0       0       0       0
       0       0       0       0       0       0       0       0       0       0
       0       0       0       0       0       0       0       0       0       0
       0       0       0       0       0       0       0       0       0       0
       0       0       0       0       0       0       0       0       0       0
       0       0       0       0       0       0       0       0       0       0
       0       0       0       0       0       0       0       0       0       0
       0       0       0       0       0       0       0       0       0       0
       0       0       0       0       0       0       0       0       0       0
       0       0       0       0       0       0       0       0       0       0
       0       0       0       0       0       0       0       0       0       0
       0       0       0       0       0       0       0       0       0       0
       0       0       0       0       0       0       0       0       0       0
       0       0       0       0       0       0       0       0       0       0
       0       0       0       0       0       0       0       0       0       0
       0       0       0       0       0       0       0       0       0       0
       0       0       0       0       0       0       0       0       0       0
       0       0       0       0       0       0       0       0       0       0
       0       0       0       0       0       0       0       0       0       0
       0       0       0       0       0       0       0       0       0       0
       0       0       0       0       0       0       0       0       0       0
       0       0       0       0       0       0       0       0       0       0
       0       0       0       0       0       0       0       0       0       0
       0       0       0       0       0       0       0       0       0       0
       0       0       0       0       0       0       0       0       0       0
       0       0       0       0       0       0       0       0       0       0
       0       0       0       0       0       0       0       0       0       0
       0       0       0       0       0       0       0       0       0       0
       0       0       0       0       0       0       0       0       0       0
       0       0       0       0       0       0       0       0       0       0
       0       0       0       0       0       0       0       0       0       0
       0       0       0       0       0       0       0       0       0       0
       0       0       0       0       0       0       0       0       0       0
       0       0       0       0       0       0       0       0       0       0
       0       0       0       0       0       0       0       0       0       0
       0       0       0       0       0       0       0       0       0       0
       0       0       0       0       0       0       0       0       0       0
       0       0       0       0       0       0       0       0       0       0
       0       0       0       0       0       0       0       0       0       0
       0       0       0       0       0       0       0       0       0       0
       0       0       0       0       0       0       0       0       0       0
       0       0       0       0       0       0       0       0       0       0
       0       0       0       0       0       0       0       0       0       0
       0       0       0       0       0       0       0       0       0       0
       0       0       0       0       0       0       0       0       0       0
       0       0       0       0       0       0       0       0       0       0
       0       0       0       0       0       0       0       0       0       0
       0       0       0       0       0       0       0       0       0       0
       0       0       0       0       0       0       0       0       0       0
       0       0       0       0       0       0       0       0       0       0
       0       0       0       0       0       0       0       0       0       0
       0       0       0       0       0       0       0       0       0       0
       0       0       0       0       0       0       0       0       0       0
       0       0       0       0       0       0       0       0       0       0
       0       0       0       0       0       0       0       0       0       0
       0       0       0       0       0       0       0       0       0       0
       0       0       0       0       0       0       0       0       0       0
       0       0       0       0       0       0       0       0       0       0
       0       0       0       0       0       0       0       0       0       0
       0       0       0       0       0       0       0       0       0       0
       0       0       0       0       0       0       0       0       0       0
       0       0       0       0       0       0       0       0       0       0
       0       0       0       0       0       0       0       0       0       0
       0       0       0       0       0       0       0       0       0       0
       0       0       0       0       0       0       0       0       0       0
       0       0       0       0       0       0       0       0       0       0
       0       0       0       0       0       0       0       0       0       0
       0       0       0       0       0       0       0       0       0       0
       0       0       0       0       0       0       0       0       0       0
       0       0       0       0       0       0       0       0       0       0
       0       0       0       0       0       0       0       0       0       0
       0       0       0       0       0       0       0       0       0       0
       0       0       0       0       0       0       0       0       0       0
       0       0       0       0       0       0       0       0       0       0
       0       0       0       0       0       0       0       0       0       0
       0       0       0       0       0       0       0       0       0       0
       0       0       0       0       0       0       0       0       0       0
       0       0       0       0       0       0       0       0       0       0
       0       0       0       0       0       0       0       0       0       0
       0       0       0       0       0       0       0       0       0       0
       0       0       0       0       0       0       0       0       0       0
       0       0       0       0       0       0       0       0       0       0
       0       0       0       0       0       0       0       0       0       0
       0       0       0       0       0       0       0       0       0       0
       0       0       0       0       0       0       0       0       0       0
       0       0       0       0       0       0       0       0       0       0
       0       0       0       0       0       0       0       0       0       0
       0       0       0       0       0       0       0       0       0       0
       0       0       0       0       0       0       0       0       0       0
       0       0       0       0       0       0       0       0       0       0
       0       0       0       0       0       0       0       0       0       0
       0       0       0       0       0       0       0       0       0       0
       0       0       0       0       0       0       0       0       0       0
       0       0       0       0       0       0       0       0       0       0
       0       0       0       0       0       0       0       0       0       0
       0       0       0       0       0       0       0       0       0       0
       0       0       0       0       0       0       0       0       0       0
       0       0       0       0       0       0       0       0       0       0
       0       0       0       0       0       0       0       0       0       0
       0       0       0       0       0       0       0       0       0       0
       0       0       0       0       0       0       0       0       0       0
       0       0       0       0       0       0       0       0       0       0
       0       0       0       0       0       0       0       0       0       0
       0       0       0       0       0       0       0       0       0       0
       0       0       0       0       0       0       0       0       0       0
       0       0       0       0       0       0       0       0       0       0
       0       0       0       0       0       0       0       0       0       0
       0       0       0       0       0       0       0       0       0       0
       0       0       0       0       0       0       0       0       0       0
       0       0       0       0       0       0       0       0       0       0
       0       0       0       0       0       0       0       0       0       0
       0       0       0       0       0       0       0       0       0       0
       0       0       0       0       0       0       0       0       0       0
       0       0       0       0       0       0       0       0       0       0
       0       0       0       0       0       0       0       0       0       0
       0       0       0       0       0       0       0       0       0       0
       0       0       0       0       0       0       0       0       0       0
       0       0       0       0       0       0       0       0       0       0
       0       0       0       0       0       0       0       0       0       0
       0       0       0       0       0       0       0       0       0       0
       0       0       0       0       0       0       0       0       0       0
       0       0       0       0       0       0       0       0       0       0
       0       0       0       0       0       0       0       0       0       0
       0       0       0       0       0       0       0       0       0       0
       0       0       0       0       0       0       0       0       0       0
       0       0       0       0       0       0       0       0       0       0
       0       0       0       0       0       0       0       0       0       0
       0       0       0       0       0       0       0       0       0       0
       0       0       0       0       0       0       0       0       0       0
       0       0       0       0       0       0       0       0       0       0
       0       0       0       0       0       0       0       0       0       0
       0       0       0       0       0       0       0       0       0       0
       0       0       0       0       0       0       0       0       0       0
       0       0       0       0       0       0       0       0       0       0
       0       0       0       0       0       0       0       0       0       0
       0       0       0       0       0       0       0       0       0       0
       0       0       0       0       0       0       0       0       0       0
       0       0       0       0       0       0       0       0       0       0
       0       0       0       0       0       0       0       0       0       0
       0       0       0       0       0       0       0       0       0       0
       0       0       0       0       0       0       0       0       0       0
       0       0       0       0       0       0       0       0       0       0
       0       0       0       0       0       0       0       0       0       0
       0       0       0       0       0       0       0       0       0       0
       0       0       0       0       0       0       0       0       0       0
       0       0       0       0       0       0       0       0       0       0
       0       0       0       0       0       0       0       0       0       0
       0       0       0       0       0       0       0       0       0       0
       0       0       0       0       0       0       0       0       0       0
       0       0       0       0       0       0       0       0       0       0
       0       0       0       0       0       0       0       0       0       0
       0       0       0       0       0       0       0       0       0       0
       0       0       0       0       0       0       0       0       0       0
       0       0       0       0       0       0       0       0       0       0
       0       0       0       0       0       0       0       0       0       0
       0       0       0       0       0       0       0       0       0       0
       0       0       0       0       0       0       0       0       0       0
       0       0       0       0       0       0       0       0       0       0
       0       0       0       0       0       0       0       0       0       0
       0       0       0       0       0       0       0       0       0       0
       0       0       0       0       0       0       0       0       0       0
       0       0       0       0       0       0       0       0       0       0
       0       0       0       0       0       0       0       0       0       0
       0       0       0       0       0       0       0       0       0       0
       0       0       0       0       0       0       0       0       0       0
       0       0       0       0       0       0       0       0       0       0
       0       0       0       0       0       0       0       0       0       0
       0       0       0       0       0       0       0       0       0       0
       0       0       0       0       0       0       0       0       0       0
       0       0       0       0       0       0       0       0       0       0
       0       0       0       0       0       0       0       0       0       0
       0       0       0       0       0       0       0       0       0       0
       0       0       0       0       0       0       0       0       0       0
       0       0       0       0       0       0       0       0       0       0
       0       0       0       0       0       0       0       0       0       0
       0       0       0       0       0       0       0       0       0       0
       0       0       0       0       0       0       0       0       0       0
       0       0       0       0       0       0       0       0       0       0
       0       0       0       0       0       0       0       0       0       0
       0       0       0       0       0       0       0       0       0       0
       0       0       0       0       0       0       0       0       0       0
       0       0       0       0       0       0       0       0       0       0
       0       0       0       0       0       0       0       0       0       0
       0       0       0       0       0       0       0       0       0       0
       0       0       0       0       0       0       0       0       0       0
       0       0       0       0       0       0       0       0       0       0
       0       0       0       0       0       0       0       0       0       0
       0       0       0       0       0       0       0       0       0       0
       0       0       0       0       0       0       0       0       0       0
       0       0       0       0       0       0       0       0       0       0
       0       0       0       0       0       0       0       0       0       0
       0       0       0       0       0       0       0       0       0       0
       0       0       0       0       0       0       0       0       0       0
       0       0       0       0       0       0       0       0       0       0
       0       0       0       0       0       0       0       0       0       0
       0       0       0       0       0       0       0       0       0       0
       0       0       0       0       0       0       0       0       0       0
       0       0       0       0       0       0       0       0       0       0
       0       0       0       0       0       0       0       0       0       0
       0       0       0       0       0       0       0       0       0       0
       0       0       0       0       0       0       0       0       0       0
       0       0       0       0       0       0       0       0       0       0
       0       0       0       0       0       0       0       0       0       0
       0       0       0       0       0       0       0       0       0       0
       0       0       0       0       0       0       0       0       0       0
       0       0       0       0       0       0       0       0       0       0
       0       0       0       0       0       0       0       0       0       0
       0       0       0       0       0       0       0       0       0       0
       0       0       0       0       0       0       0       0       0       0
       0       0       0       0       0       0       0       0       0       0
       0       0       0       0       0       0       0       0       0       0
       0       0       0       0       0       0       0       0       0       0
       0       0       0       0       0       0       0       0       0       0
       0       0       0       0       0       0       0       0       0       0
       0       0       0       0       0       0       0       0       0       0
       0       0       0       0       0       0       0       0       0       0
       0       0       0       0       0       0       0       0       0       0
       0       0       0       0       0       0       0       0       0       0
       0       0       0       0       0       0       0       0       0       0
       0       0       0       0       0       0       0       0       0       0
       0       0       0       0       0       0       0       0       0       0
       0       0       0       0       0       0       0       0       0       0
       0       0       0       0       0       0       0       0       0       0
       0       0       0       0       0       0       0       0       0       0
       0       0       0       0       0       0       0       0       0       0
       0       0       0       0       0       0       0       0       0       0
       0       0       0       0       0       0       0       0       0       0
       0       0       0       0       0       0       0       0       0       0
       0       0       0       0       0       0       0       0       0       0
       0       0       0       0       0       0       0       0       0       0
       0       0       0       0       0       0       0       0       0       0
       0       0       0       0       0       0       0       0       0       0
       0       0       0       0       0       0       0       0       0       0
       0       0       0       0       0       0       0       0       0       0
       0       0       0       0       0       0       0       0       0       0
       0       0       0       0       0       0       0       0       0       0
       0       0       0       0       0       0       0       0       0       0
       0       0       0       0       0       0       0       0       0       0
       0       0       0       0       0       0       0       0       0       0
       0       0       0       0       0       0       0       0       0       0
       0       0       0       0       0       0       0       0       0       0
       0       0       0       0       0       0       0       0       0       0
       0       0       0       0       0       0       0       0       0       0
       0       0       0       0       0       0       0       0       0       0
       0       0       0       0       0       0       0       0       0       0
       0       0       0       0       0       0       0       0       0       0
       0       0       0       0       0       0       0       0       0       0
       0       0       0       0       0       0       0       0       0       0
       0       0       0       0       0       0       0       0       0       0
       0       0       0       0       0       0       0       0       0       0
       0       0       0       0       0       0       0       0       0       0
       0       0       0       0       0       0       0       0       0       0
       0       0       0       0       0       0       0       0       0       0
       0       0       0       0       0       0       0       0       0       0
       0       0       0       0       0       0       0       0       0       0
       0       0       0       0       0       0       0       0       0       0
       0       0       0       0       0       0       0       0       0       0
       0       0       0       0       0       0       0       0       0       0
       0       0       0       0       0       0       0       0       0       0
       0       0       0       0       0       0       0       0       0       0
       0       0       0       0       0       0       0       0       0       0
       0       0       0       0       0       0       0       0       0       0
       0       0       0       0       0       0       0       0       0       0
       0       0       0       0       0       0       0       0       0       0
       0       0       0       0       0       0       0       0       0       0
       0       0       0       0       0       0       0       0       0       0
       0       0       0       0       0       0       0       0       0       0
       0       0       0       0       0       0       0       0       0       0
       0       0       0       0       0       0       0       0       0       0
       0       0       0       0       0       0       0       0       0       0
       0       0       0       0       0       0       0       0       0       0
       0       0       0       0       0       0       0       0       0       0
       0       0       0       0       0       0       0       0       0       0
       0       0       0       0       0       0       0       0       0       0
       0       0       0       0       0       0       0       0       0       0
       0       0       0       0       0       0       0       0       0       0
       0       0       0       0       0       0       0       0       0       0
       0       0       0       0       0       0       0       0       0       0
       0       0       0       0       0       0       0       0       0       0
       0       0       0       0       0       0       0       0       0       0
       0       0       0       0       0       0       0       0       0       0
       0       0       0       0       0       0       0       0       0       0
       0       0       0       0       0       0       0       0       0       0
       0       0       0       0       0       0       0       0       0       0
       0       0       0       0       0       0       0       0       0       0
       0       0       0       0       0       0       0       0       0       0
       0       0       0       0       0       0       0       0       0       0
       0       0       0       0       0       0       0       0       0       0
       0       0       0       0       0       0       0       0       0       0
       0       0       0       0       0       0       0       0       0       0
       0       0       0       0       0       0       0       0       0       0
       0       0       0       0       0       0       0       0       0       0
       0       0       0       0       0       0       0       0       0       0
       0       0       0       0       0       0       0       0       0       0
       0       0       0       0       0       0       0       0       0       0
       0       0       0       0       0       0       0       0       0       0
       0       0       0       0       0       0       0       0       0       0
       0       0       0       0       0       0       0       0       0       0
       0       0       0       0       0       0       0       0       0       0
       0       0       0       0       0       0       0       0       0       0
       0       0       0       0       0       0       0       0       0       0
       0       0       0       0       0       0       0       0       0       0
       0       0       0       0       0       0       0       0       0       0
       0       0       0       0       0       0       0       0       0       0
       0       0       0       0       0       0       0       0       0       0
       0       0       0       0       0       0       0       0       0       0
       0       0       0       0       0       0       0       0       0       0
       0       0       0       0       0       0       0       0       0       0
       0       0       0       0       0       0       0       0       0       0
       0       0       0       0       0       0       0       0       0       0
       0       0       0       0       0       0       0       0       0       0
       0       0       0       0       0       0       0       0       0       0
       0       0       0       0       0       0       0       0       0       0
       0       0       0       0       0       0       0       0       0       0
       0       0       0       0       0       0       0       0       0       0
       0       0       0       0       0       0       0       0       0       0
       0       0       0       0       0       0       0       0       0       0
       0       0       0       0       0       0       0       0       0       0
       0       0       0       0       0       0       0       0       0       0
       0       0       0       0       0       0       0       0       0       0
       0       0       0       0       0       0       0       0       0       0
       0       0       0       0       0       0       0       0       0       0
       0       0       0       0       0       0       0       0       0       0
       0       0       0       0       0       0       0       0       0       0
       0       0       0       0       0       0       0       0       0       0
       0       0       0       0       0       0       0       0       0       0
       0       0       0       0       0       0       0       0       0       0
       0       0       0       0       0       0       0       0       0       0
       0       0       0       0       0       0       0       0       0       0
       0       0       0       0       0       0       0       0       0       0
       0       0       0       0       0       0       0       0       0       0
       0       0       0       0       0       0       0       0       0       0
       0       0       0       0       0       0       0       0       0       0
       0       0       0       0       0       0       0       0       0       0
       0       0       0       0       0       0       0       0       0       0
       0       0       0       0       0       0       0       0       0       0
       0       0       0       0       0       0       0       0       0       0
       0       0       0       0       0       0       0       0       0       0
       0       0       0       0       0       0       0       0       0       0
       0       0       0       0       0       0       0       0       0       0
       0       0       0       0       0       0       0       0       0       0
       0       0       0       0       0       0       0       0       0       0
       0       0       0       0       0       0       0       0       0       0
       0       0       0       0       0       0       0       0       0       0
       0       0       0       0       0       0       0       0       0       0
       0       0       0       0       0       0       0       0       0       0
       0       0       0       0       0       0       0       0       0       0
       0       0       0       0       0       0       0       0       0       0
       0       0       0       0       0       0       0       0       0       0
       0       0       0       0       0       0       0       0       0       0
       0       0       0       0       0       0       0       0       0       0
       0       0       0       0       0       0       0       0       0       0
       0       0       0       0       0       0       0       0       0       0
       0       0       0       0       0       0       0       0       0       0
       0       0       0       0       0       0       0       0       0       0
       0       0       0       0       0       0       0       0       0       0
       0       0       0       0       0       0       0       0       0       0
       0       0       0       0       0       0       0       0       0       0
       0       0       0       0       0       0       0       0       0       0
       0       0       0       0       0       0       0       0       0       0
       0       0       0       0       0       0       0       0       0       0
       0       0       0       0       0       0       0       0       0       0
       0       0       0       0       0       0       0       0       0       0
       0       0       0       0       0       0       0       0       0       0
       0       0       0       0       0       0       0       0       0       0
       0       0       0       0       0       0       0       0       0       0
       0       0       0       0       0       0       0       0       0       0
       0       0       0       0       0       0       0       0       0       0
       0       0       0       0       0       0       0       0       0       0
       0       0       0       0       0       0       0       0       0       0
       0       0       0       0       0       0       0       0       0       0
       0       0       0       0       0       0       0       0       0       0
       0       0       0       0       0       0       0       0       0       0
       0       0       0       0       0       0       0       0       0       0
       0       0       0       0       0       0       0       0       0       0
       0       0       0       0       0       0       0       0       0       0
       0       0       0       0       0       0       0       0       0       0
       0       0       0       0       0       0       0       0       0       0
       0       0       0       0       0       0       0       0       0       0
       0       0       0       0       0       0       0       0       0       0
       0       0       0       0       0       0       0       0       0       0
       0       0       0       0       0       0       0       0       0       0
       0       0       0       0       0       0       0       0       0       0
       0       0       0       0       0       0       0       0       0       0
       0       0       0       0       0       0       0       0       0       0
       0       0       0       0       0       0       0       0       0       0
       0       0       0       0       0       0       0       0       0       0
       0       0       0       0       0       0       0       0       0       0
       0       0       0       0       0       0       0       0       0       0
       0       0       0       0       0       0       0       0       0       0
       0       0       0       0       0       0       0       0       0       0
       0       0       0       0       0       0       0       0       0       0
       0       0       0       0       0       0       0       0       0       0
       0       0       0       0       0       0       0       0       0       0
       0       0       0       0       0       0       0       0       0       0
       0       0       0       0       0       0       0       0       0       0
       0       0       0       0       0       0       0       0       0       0
       0       0       0       0       0       0       0       0       0       0
       0       0       0       0       0       0       0       0       0       0
       0       0       0       0       0       0       0       0       0       0
       0       0       0       0       0       0       0       0       0       0
       0       0       0       0       0       0       0       0       0       0
       0       0       0       0       0       0       0       0       0       0
       0       0       0       0       0       0       0       0       0       0
       0       0       0       0       0       0       0       0       0       0
       0       0       0       0       0       0       0       0       0       0
       0       0       0       0       0       0       0       0       0       0
       0       0       0       0       0       0       0       0       0       0
       0       0       0       0       0       0       0       0       0       0
       0       0       0       0       0       0       0       0       0       0
       0       0       0       0       0       0       0       0       0       0
       0       0       0       0       0       0       0       0       0       0
       0       0       0       0       0       0       0       0       0       0
       0       0       0       0       0       0       0       0       0       0
       0       0       0       0       0       0       0       0       0       0
       0       0       0       0       0       0       0       0       0       0
       0       0       0       0       0       0       0       0       0       0
       0       0       0       0       0       0       0       0       0       0
       0       0       0       0       0       0       0       0       0       0
       0       0       0       0       0       0       0       0       0       0
       0       0       0       0       0       0       0       0       0       0
       0       0       0       0       0       0       0       0       0       0
       0       0       0       0       0       0       0       0       0       0
       0       0       0       0       0       0       0       0       0       0
       0       0       0       0       0       0       0       0       0       0
       0       0       0       0       0       0       0       0       0       0
       0       0       0       0       0       0       0       0       0       0
       0       0       0       0       0       0       0       0       0       0
       0       0       0       0       0       0       0       0       0       0
       0       0       0       0       0       0       0       0       0       0
       0       0       0       0       0       0       0       0       0       0
       0       0       0       0       0       0       0       0       0       0
       0       0       0       0       0       0       0       0       0       0
       0       0       0       0       0       0       0       0       0       0
       0       0       0       0       0       0       0       0       0       0
       0       0       0       0       0       0       0       0       0       0
       0       0       0       0       0       0       0       0       0       0
       0       0       0       0       0       0       0       0       0       0
       0       0       0       0       0       0       0       0       0       0
       0       0       0       0       0       0       0       0       0       0
       0       0       0       0       0       0       0       0       0       0
       0       0       0       0       0       0       0       0       0       0
       0       0       0       0       0       0       0       0       0       0
       0       0       0       0       0       0       0       0       0       0
       0       0       0       0       0       0       0       0       0       0
       0       0       0       0       0       0       0       0       0       0
       0       0       0       0       0       0       0       0       0       0
       0       0       0       0       0       0       0       0       0       0
       0       0       0       0       0       0       0       0       0       0
       0       0       0       0       0       0       0       0       0       0
       0       0       0       0       0       0       0       0       0       0
       0       0       0       0       0       0       0       0       0       0
       0       0       0       0       0       0       0       0       0       0
       0       0       0       0       0       0       0       0       0       0
       0       0       0       0       0       0       0       0       0       0
       0       0       0       0       0       0       0       0       0       0
       0       0       0       0       0       0       0       0       0       0
       0       0       0       0       0       0       0       0       0       0
       0       0       0       0       0       0       0       0       0       0
       0       0       0       0       0       0       0       0       0       0
       0       0       0       0       0       0       0       0       0       0
       0       0       0       0       0       0       0       0       0       0
       0       0       0       0       0       0       0       0       0       0
       0       0       0       0       0       0       0       0       0       0
       0       0       0       0       0       0       0       0       0       0
       0       0       0       0       0       0       0       0       0       0
       0       0       0       0       0       0       0       0       0       0
       0       0       0       0       0       0       0       0       0       0
       0       0       0       0       0       0       0       0       0       0
       0       0       0       0       0       0       0       0       0       0
       0       0       0       0       0       0       0       0       0       0
       0       0       0       0       0       0       0       0       0       0
       0       0       0       0       0       0       0       0       0       0
       0       0       0       0       0       0       0       0       0       0
       0       0       0       0       0       0       0       0       0       0
       0       0       0       0       0       0       0       0       0       0
       0       0       0       0       0       0       0       0       0       0
       0       0       0       0       0       0       0       0       0       0
       0       0       0       0       0       0       0       0       0       0
       0       0       0       0       0       0       0       0       0       0
       0       0       0       0       0       0       0       0       0       0
       0       0       0       0       0       0       0       0       0       0
       0       0       0       0       0       0       0       0       0       0
       0       0       0       0       0       0       0       0       0       0
       0       0       0       0       0       0       0       0       0       0
       0       0       0       0       0       0       0       0       0       0
       0       0       0       0       0       0       0       0       0       0
       0       0       0       0       0       0       0       0       0       0
       0       0       0       0       0       0       0       0       0       0
       0       0       0       0       0       0       0       0       0       0
       0       0       0       0       0       0       0       0       0       0
       0       0       0       0       0       0       0       0       0       0
       0       0       0       0       0       0       0       0       0       0
       0       0       0       0       0       0       0       0       0       0
       0       0       0       0       0       0       0       0       0       0
       0       0       0       0       0       0       0       0       0       0
       0       0       0       0       0       0       0       0       0       0
       0       0       0       0       0       0       0       0       0       0
       0       0       0       0       0       0       0       0       0       0
       0       0       0       0       0       0       0       0       0       0
       0       0       0       0       0       0       0       0       0       0
       0       0       0       0       0       0       0       0       0       0
       0       0       0       0       0       0       0       0       0       0
       0       0       0       0       0       0       0       0       0       0
       0       0       0       0       0       0       0       0       0       0
       0       0       0       0       0       0       0       0       0       0
       0       0       0       0       0       0       0       0       0       0
       0       0       0       0       0       0       0       0       0       0
       0       0       0       0       0       0       0       0       0       0
       0       0       0       0       0       0       0       0       0       0
       0       0       0       0       0       0       0       0       0       0
       0       0       0       0       0       0       0       0       0       0
       0       0       0       0       0       0       0       0       0       0
       0       0       0       0       0       0       0       0       0       0
       0       0       0       0       0       0       0       0       0       0
       0       0       0       0       0       0       0       0       0       0
       0       0       0       0       0       0       0       0       0       0
       0       0       0       0       0       0       0       0       0       0
       0       0       0       0       0       0       0       0       0       0
       0       0       0       0       0       0       0       0       0       0
       0       0       0       0       0       0       0       0       0       0
       0       0       0       0       0       0       0       0       0       0
       0       0       0       0       0       0       0       0       0       0
       0       0       0       0       0       0       0       0       0       0
       0       0       0       0       0       0       0       0       0       0
       0       0       0       0       0       0       0       0       0       0
       0       0       0       0       0       0       0       0       0       0
       0       0       0       0       0       0       0       0       0       0
       0       0       0       0       0       0       0       0       0       0
       0       0       0       0       0       0       0       0       0       0
       0       0       0       0       0       0       0       0       0       0
       0       0       0       0       0       0       0       0       0       0
       0       0       0       0       0       0       0       0       0       0
       0       0       0       0       0       0       0       0       0       0
       0       0       0       0       0       0       0       0       0       0
       0       0       0       0       0       0       0       0       0       0
       0       0       0       0       0       0       0       0       0       0
       0       0       0       0       0       0       0       0       0       0
       0       0       0       0       0       0       0       0       0       0
       0       0       0       0       0       0       0       0       0       0
       0       0       0       0       0       0       0       0       0       0
       0       0       0       0       0       0       0       0       0       0
       0       0       0       0       0       0       0       0       0       0
       0       0       0       0       0       0       0       0       0       0
       0       0       0       0       0       0       0       0       0       0
       0       0       0       0       0       0       0       0       0       0
       0       0       0       0       0       0       0       0       0       0
       0       0       0       0       0       0       0       0       0       0
       0       0       0       0       0       0       0       0       0       0
       0       0       0       0       0       0       0       0       0       0
       0       0       0       0       0       0       0       0       0       0
       0       0       0       0       0       0       0       0       0       0
       0       0       0       0       0       0       0       0       0       0
       0       0       0       0       0       0       0       0       0       0
       0       0       0       0       0       0       0       0       0       0
       0       0       0       0       0       0       0       0       0       0
       0       0       0       0       0       0       0       0       0       0
       0       0       0       0       0       0       0       0       0       0
       0       0       0       0       0       0       0       0       0       0
       0       0       0       0       0       0       0       0       0       0
       0       0       0       0       0       0       0       0       0       0
       0       0       0       0       0       0       0       0       0       0
       0       0       0       0       0       0       0       0       0       0
       0       0       0       0       0       0       0       0       0       0
       0       0       0       0       0       0       0       0       0       0
       0       0       0       0       0       0       0       0       0       0
       0       0       0       0       0       0       0       0       0       0
       0       0       0       0       0       0       0       0       0       0
       0       0       0       0       0       0       0       0       0       0
       0       0       0       0       0       0       0       0       0       0
       0       0       0       0       0       0       0       0       0       0
       0       0       0       0       0       0       0       0       0       0
       0       0       0       0       0       0       0       0       0       0
       0       0       0       0       0       0       0       0       0       0
       0       0       0       0       0       0       0       0       0       0
       0       0       0       0       0       0       0       0       0       0
       0       0       0       0       0       0       0       0       0       0
       0       0       0       0       0       0       0       0       0       0
       0       0       0       0       0       0       0       0       0       0
       0       0       0       0       0       0       0       0       0       0
       0       0       0       0       0       0       0       0       0       0
       0       0       0       0       0       0       0       0       0       0
       0       0       0       0       0       0       0       0       0       0
       0       0       0       0       0       0       0       0       0       0
       0       0       0       0       0       0       0       0       0       0
       0       0       0       0       0       0       0       0       0       0
       0       0       0       0       0       0       0       0       0       0
       0       0       0       0       0       0       0       0       0       0
       0       0       0       0       0       0       0       0       0       0
       0       0       0       0       0       0       0       0       0       0
       0       0       0       0       0       0       0       0       0       0
       0       0       0       0       0       0       0       0       0       0
       0       0       0       0       0       0       0       0       0       0
       0       0       0       0       0       0       0       0       0       0
       0       0       0       0       0       0       0       0       0       0
       0       0       0       0       0       0       0       0       0       0
       0       0       0       0       0       0       0       0       0       0
       0       0       0       0       0       0       0       0       0       0
       0       0       0       0       0       0       0       0       0       0
       0       0       0       0       0       0       0       0       0       0
       0       0       0       0       0       0       0       0       0       0
       0       0       0       0       0       0       0       0       0       0
       0       0       0       0       0       0       0       0       0       0
       0       0       0       0       0       0       0       0       0       0
       0       0       0       0       0       0       0       0       0       0
       0       0       0       0       0       0       0       0       0       0
       0       0       0       0       0       0       0       0       0       0
       0       0       0       0       0       0       0       0       0       0
       0       0       0       0       0       0       0       0       0       0
       0       0       0       0       0       0       0       0       0       0
       0       0       0       0       0       0       0       0       0       0
       0       0       0       0       0       0       0       0       0       0
       0       0       0       0       0       0       0       0       0       0
       0       0       0       0       0       0       0       0       0       0
       0       0       0       0       0       0       0       0       0       0
       0       0       0       0       0       0       0       0       0       0
       0       0       0       0       0       0       0       0       0       0
       0       0       0       0       0       0       0       0       0       0
       0       0       0       0       0       0       0       0       0       0
       0       0       0       0       0       0       0       0       0       0
       0       0       0       0       0       0       0       0       0       0
       0       0       0       0       0       0       0       0       0       0
       0       0       0       0       0       0       0       0       0       0
       0       0       0       0       0       0       0       0       0       0
       0       0       0       0       0       0       0       0       0       0
       0       0       0       0       0       0       0       0       0       0
       0       0       0       0       0       0       0       0       0       0
       0       0       0       0       0       0       0       0       0       0
       0       0       0       0       0       0       0       0       0       0
       0       0       0       0       0       0       0       0       0       0
       0       0       0       0       0       0       0       0       0       0
       0       0       0       0       0       0       0       0       0       0
       0       0       0       0       0       0       0       0       0       0
       0       0       0       0       0       0       0       0       0       0
       0       0       0       0       0       0       0       0       0       0
       0       0       0       0       0       0       0       0       0       0
       0       0       0       0       0       0       0       0       0       0
       0       0       0       0       0       0       0       0       0       0
       0       0       0       0       0       0       0       0       0       0
       0       0       0       0       0       0       0       0       0       0
       0       0       0       0       0       0       0       0       0       0
       0       0       0       0       0       0       0       0       0       0
       0       0       0       0       0       0       0       0       0       0
       0       0       0       0       0       0       0       0       0       0
       0       0       0       0       0       0       0       0       0       0
       0       0       0       0       0       0       0       0       0       0
       0       0       0       0       0       0       0       0       0       0
       0       0       0       0       0       0       0       0       0       0
       0       0       0       0       0       0       0       0       0       0
       0       0       0       0       0       0       0       0       0       0
       0       0       0       0       0       0       0       0       0       0
       0       0       0       0       0       0       0       0       0       0
       0       0       0       0       0       0       0       0       0       0
       0       0       0       0       0       0       0       0       0       0
       0       0       0       0       0       0       0       0       0       0
       0       0       0       0       0       0       0       0       0       0
       0       0       0       0       0       0       0       0       0       0
       0       0       0       0       0       0       0       0       0       0
       0       0       0       0       0       0       0       0       0       0
       0       0       0       0       0       0       0       0       0       0
       0       0       0       0       0       0       0       0       0       0
       0       0       0       0       0       0       0       0       0       0
       0       0       0       0       0       0       0       0       0       0
       0       0       0       0       0       0       0       0       0       0
       0       0       0       0       0       0       0       0       0       0
       0       0       0       0       0       0       0       0       0       0
       0       0       0       0       0       0       0       0       0       0
       0       0       0       0       0       0       0       0       0       0
       0       0       0       0       0       0       0       0       0       0
       0       0       0       0       0       0       0       0       0       0
       0       0       0       0       0       0       0       0       0       0
       0       0       0       0       0       0       0       0       0       0
       0       0       0       0       0       0       0       0       0       0
       0       0       0       0       0       0       0       0       0       0
       0       0       0       0       0       0       0       0       0       0
       0       0       0       0       0       0       0       0       0       0
       0       0       0       0       0       0       0       0       0       0
       0       0       0       0       0       0       0       0       0       0
       0       0       0       0       0       0       0       0       0       0
       0       0       0       0       0       0       0       0       0       0
       0       0       0       0       0       0       0       0       0       0
       0       0       0       0       0       0       0       0       0       0
       0       0       0       0       0       0       0       0       0       0
       0       0       0       0       0       0       0       0       0       0
       0       0       0       0       0       0       0       0       0       0
       0       0       0       0       0       0       0       0       0       0
       0       0       0       0       0       0       0       0       0       0
       0       0       0       0       0       0       0       0       0       0
       0       0       0       0       0       0       0       0       0       0
       0       0       0       0       0       0       0       0       0       0
       0       0       0       0       0       0       0       0       0       0
       0       0       0       0       0       0       0       0       0       0
       0       0       0       0       0       0       0       0       0       0
       0       0       0       0       0       0       0       0       0       0
       0       0       0       0       0       0       0       0       0       0
       0       0       0       0       0       0       0       0       0       0
       0       0       0       0       0       0       0       0       0       0
       0       0       0       0       0       0       0       0       0       0
       0       0       0       0       0       0       0       0       0       0
       0       0       0       0       0       0       0       0       0       0
       0       0       0       0       0       0       0       0       0       0
       0       0       0       0       0       0       0       0       0       0
       0       0       0       0       0       0       0       0       0       0
       0       0       0       0       0       0       0       0       0       0
       0       0       0       0       0       0       0       0       0       0
       0       0       0       0       0       0       0       0       0       0
       0       0       0       0       0       0       0       0       0       0
       0       0       0       0       0       0       0       0       0       0
       0       0       0       0       0       0       0       0       0       0
       0       0       0       0       0       0       0       0       0       0
       0       0       0       0       0       0       0       0       0       0
       0       0       0       0       0       0       0       0       0       0
       0       0       0       0       0       0       0       0       0       0
       0       0       0       0       0       0       0       0       0       0
       0       0       0       0       0       0       0       0       0       0
       0       0       0       0       0       0       0       0       0       0
       0       0       0       0       0       0       0       0       0       0
       0       0       0       0       0       0       0       0       0       0
       0       0       0       0       0       0       0       0       0       0
       0       0       0       0       0       0       0       0       0       0
       0       0       0       0       0       0       0       0       0       0
       0       0       0       0       0       0       0       0       0       0
       0       0       0       0       0       0       0       0       0       0
       0       0       0       0       0       0       0       0       0       0
       0       0       0       0       0       0       0       0       0       0
       0       0       0       0       0       0       0       0       0       0
       0       0       0       0       0       0       0       0       0       0
       0       0       0       0       0       0       0       0       0       0
       0       0       0       0       0       0       0       0       0       0
       0       0       0       0       0       0       0       0       0       0
       0       0       0       0       0       0       0       0       0       0
       0       0       0       0       0       0       0       0       0       0
       0       0       0       0       0       0       0       0       0       0
       0       0       0       0       0       0       0       0       0       0
       0       0       0       0       0       0       0       0       0       0
       0       0       0       0       0       0       0       0       0       0
       0       0       0       0       0       0       0       0       0       0
       0       0       0       0       0       0       0       0       0       0
       0       0       0       0       0       0       0       0       0       0
       0       0       0       0       0       0       0       0       0       0
       0       0       0       0       0       0       0       0       0       0
       0       0       0       0       0       0       0       0       0       0
       0       0       0       0       0       0       0       0       0       0
       0       0       0       0       0       0       0       0       0       0
       0       0       0       0       0       0       0       0       0       0
       0       0       0       0       0       0       0       0       0       0
       0       0       0       0       0       0       0       0       0       0
       0       0       0       0       0       0       0       0       0       0
       0       0       0       0       0       0       0       0       0       0
       0       0       0       0       0       0       0       0       0       0
       0       0       0       0       0       0       0       0       0       0
       0       0       0       0       0       0       0       0       0       0
       0       0       0       0       0       0       0       0       0       0
       0       0       0       0       0       0       0       0       0       0
       0       0       0       0       0       0       0       0       0       0
       0       0       0       0       0       0       0       0       0       0
       0       0       0       0       0       0       0       0       0       0
       0       0       0       0       0       0       0       0       0       0
       0       0       0       0       0       0       0       0       0       0
       0       0       0       0       0       0       0       0       0       0
       0       0       0       0       0       0       0       0       0       0
       0       0       0       0       0       0       0       0       0       0
       0       0       0       0       0       0       0       0       0       0
       0       0       0       0       0       0       0       0       0       0
       0       0       0       0       0       0       0       0       0       0
       0       0       0       0       0       0       0       0       0       0
       0       0       0       0       0       0       0       0       0       0
       0       0       0       0       0       0       0       0       0       0
       0       0       0       0       0       0       0       0       0       0
       0       0       0       0       0       0       0       0       0       0
       0       0       0       0       0       0       0       0       0       0
       0       0       0       0       0       0       0       0       0       0
       0       0       0       0       0       0       0       0       0       0
       0       0       0       0       0       0       0       0       0       0
       0       0       0       0       0       0       0       0       0       0
       0       0       0       0       0       0       0       0       0       0
       0       0       0       0       0       0       0       0       0       0
       0       0       0       0       0       0       0       0       0       0
       0       0       0       0       0       0       0       0       0       0
       0       0       0       0       0       0       0       0       0       0
       0       0       0       0       0       0       0       0       0       0
       0       0       0       0       0       0       0       0       0       0
       0       0       0       0       0       0       0       0       0       0
       0       0       0       0       0       0       0       0       0       0
       0       0       0       0       0       0       0       0       0       0
       0       0       0       0       0       0       0       0       0       0
       0       0       0       0       0       0       0       0       0       0
       0       0       0       0       0       0       0       0       0       0
       0       0       0       0       0       0       0       0       0       0
       0       0       0       0       0       0       0       0       0       0
       0       0       0       0       0       0       0       0       0       0
       0       0       0       0       0       0       0       0       0       0
       0       0       0       0       0       0       0       0       0       0
       0       0       0       0       0       0       0       0       0       0
       0       0       0       0       0       0       0       0       0       0
       0       0       0       0       0       0       0       0       0       0
       0       0       0       0       0       0       0       0       0       0
       0       0       0       0       0       0       0       0       0       0
       0       0       0       0       0       0       0       0       0       0
       0       0       0       0       0       0       0       0       0       0
       0       0       0       0       0       0       0       0       0       0
       0       0       0       0       0       0       0       0       0       0
       0       0       0       0       0       0       0       0       0       0
       0       0       0       0       0       0       0       0       0       0
       0       0       0       0       0       0       0       0       0       0
       0       0       0       0       0       0       0       0       0       0
       0       0       0       0       0       0       0       0       0       0
       0       0       0       0       0       0       0       0       0       0
       0       0       0       0       0       0       0       0       0       0
       0       0       0       0       0       0       0       0       0       0
       0       0       0       0       0       0       0       0       0       0
       0       0       0       0       0       0       0       0       0       0
       0       0       0       0       0       0       0       0       0       0
       0       0       0       0       0       0       0       0       0       0
       0       0       0       0       0       0       0       0       0       0
       0       0       0       0       0       0       0       0       0       0
       0       0       0       0       0       0       0       0       0       0
       0       0       0       0       0       0       0       0       0       0
       0       0       0       0       0       0       0       0       0       0
       0       0       0       0       0       0       0       0       0       0
       0       0       0       0       0       0       0       0       0       0
       0       0       0       0       0       0       0       0       0       0
       0       0       0       0       0       0       0       0       0       0
       0       0       0       0       0       0       0       0       0       0
       0       0       0       0       0       0       0       0       0       0
       0       0       0       0       0       0       0       0       0       0
       0       0       0       0       0       0       0       0       0       0
       0       0       0       0       0       0       0       0       0       0
       0       0       0       0       0       0       0       0       0       0
       0       0       0       0       0       0       0       0       0       0
       0       0       0       0       0       0       0       0       0       0
       0       0       0       0       0       0       0       0       0       0
       0       0       0       0       0       0       0       0       0       0
       0       0       0       0       0       0       0       0       0       0
       0       0       0       0       0       0       0       0       0       0
       0       0       0       0       0       0       0       0       0       0
       0       0       0       0       0       0       0       0       0       0
       0       0       0       0       0       0       0       0       0       0
       0       0       0       0       0       0       0       0       0       0
       0       0       0       0       0       0       0       0       0       0
       0       0       0       0       0       0       0       0       0       0
       0       0       0       0       0       0       0       0       0       0
       0       0       0       0       0       0       0       0       0       0
       0       0       0       0       0       0       0       0       0       0
       0       0       0       0       0       0       0       0       0       0
       0       0       0       0       0       0       0       0       0       0
       0       0       0       0       0       0       0       0       0       0
       0       0       0       0       0       0       0       0       0       0
       0       0       0       0       0       0       0       0       0       0
       0       0       0       0       0       0       0       0       0       0
       0       0       0       0       0       0       0       0       0       0
       0       0       0       0       0       0       0       0       0       0
       0       0       0       0       0       0       0       0       0       0
       0       0       0       0       0       0       0       0       0       0
       0       0       0       0       0       0       0       0       0       0
       0       0       0       0       0       0       0       0       0       0
       0       0       0       0       0       0       0       0       0       0
       0       0       0       0       0       0       0       0       0       0
       0       0       0       0       0       0       0       0       0       0
       0       0       0       0       0       0       0       0       0       0
       0       0       0       0       0       0       0       0       0       0
       0       0       0       0       0       0       0       0       0       0
       0       0       0       0       0       0       0       0       0       0
       0       0       0       0       0       0       0       0       0       0
       0       0       0       0       0       0       0       0       0       0
       0       0       0       0       0       0       0       0       0       0
       0       0       0       0       0       0       0       0       0       0
       0       0       0       0       0       0       0       0       0       0
       0       0       0       0       0       0       0       0       0       0
       0       0       0       0       0       0       0       0       0       0
       0       0       0       0       0       0       0       0       0       0
       0       0       0       0       0       0       0       0       0       0
       0       0       0       0       0       0       0       0       0       0
       0       0       0       0       0       0       0       0       0       0
       0       0       0       0       0       0       0       0       0       0
       0       0       0       0       0       0       0       0       0       0
       0       0       0       0       0       0       0       0       0       0
       0       0       0       0       0       0       0       0       0       0
       0       0       0       0       0       0       0       0       0       0
       0       0       0       0       0       0       0       0       0       0
       0       0       0       0       0       0       0       0       0       0
       0       0       0       0       0       0       0       0       0       0
       0       0       0       0       0       0       0       0       0       0
       0       0       0       0       0       0       0       0       0       0
       0       0       0       0       0       0       0       0       0       0
       0       0       0       0       0       0       0       0       0       0
       0       0       0       0       0       0       0       0       0       0
       0       0       0       0       0       0       0       0       0       0
       0       0       0       0       0       0       0       0       0       0
       0       0       0       0       0       0       0       0       0       0
       0       0       0       0       0       0       0       0       0       0
       0       0       0       0       0       0       0       0       0       0
       0       0       0       0       0       0       0       0       0       0
       0       0       0       0       0       0       0       0       0       0
       0       0       0       0       0       0       0       0       0       0
       0       0       0       0       0       0       0       0       0       0
       0       0       0       0       0       0       0       0       0       0
       0       0       0       0       0       0       0       0       0       0
       0       0       0       0       0       0       0       0       0       0
       0       0       0       0       0       0       0       0       0       0
       0       0       0       0       0       0       0       0       0       0
       0       0       0       0       0       0       0       0       0       0
       0       0       0       0       0       0       0       0       0       0
       0       0       0       0       0       0       0       0       0       0
       0       0       0       0       0       0       0       0       0       0
       0       0       0       0       0       0       0       0       0       0
       0       0       0       0       0       0       0       0       0       0
       0       0       0       0       0       0       0       0       0       0
       0       0       0       0       0       0       0       0       0       0
       0       0       0       0       0       0       0       0       0       0
       0       0       0       0       0       0       0       0       0       0
       0       0       0       0       0       0       0       0       0       0
       0       0       0       0       0       0       0       0       0       0
       0       0       0       0       0       0       0       0       0       0
       0       0       0       0       0       0       0       0       0       0
       0       0       0       0       0       0       0       0       0       0
       0       0       0       0       0       0       0       0       0       0
       0       0       0       0       0       0       0       0       0       0
       0       0       0       0       0       0       0       0       0       0
       0       0       0       0       0       0       0       0       0       0
       0       0       0       0       0       0       0       0       0       0
       0       0       0       0       0       0       0       0       0       0
       0       0       0       0       0       0       0       0       0       0
       0       0       0       0       0       0       0       0       0       0
       0       0       0       0       0       0       0       0       0       0
       0       0       0       0       0       0       0       0       0       0
       0       0       0       0       0       0       0       0       0       0
       0       0       0       0       0       0       0       0       0       0
       0       0       0       0       0       0       0       0       0       0
       0       0       0       0       0       0       0       0       0       0
       0       0       0       0       0       0       0       0       0       0
       0       0       0       0       0       0       0       0       0       0
       0       0       0       0       0       0       0       0       0       0
       0       0       0       0       0       0       0       0       0       0
       0       0       0       0       0       0       0       0       0       0
       0       0       0       0       0       0       0       0       0       0
       0       0       0       0       0       0       0       0       0       0
       0       0       0       0       0       0       0       0       0       0
       0       0       0       0       0       0       0       0       0       0
       0       0       0       0       0       0       0       0       0       0
       0       0       0       0       0       0       0       0       0       0
       0       0       0       0       0       0       0       0       0       0
       0       0       0       0       0       0       0       0       0       0
       0       0       0       0       0       0       0       0       0       0
       0       0       0       0       0       0       0       0       0       0
       0       0       0       0       0       0       0       0       0       0
       0       0       0       0       0       0       0       0       0       0
       0       0       0       0       0       0       0       0       0       0
       0       0       0       0       0       0       0       0       0       0
       0       0       0       0       0       0       0       0       0       0
       0       0       0       0       0       0       0       0       0       0
       0       0       0       0       0       0       0       0       0       0
       0       0       0       0       0       0       0       0       0       0
       0       0       0       0       0       0       0       0       0       0
       0       0       0       0       0       0       0       0       0       0
       0       0       0       0       0       0       0       0       0       0
       0       0       0       0       0       0       0       0       0       0
       0       0       0       0       0       0       0       0       0       0
       0       0       0       0       0       0       0       0       0       0
       0       0       0       0       0       0       0       0       0       0
       0       0       0       0       0       0       0       0       0       0
       0       0       0       0       0       0       0       0       0       0
       0       0       0       0       0       0       0       0       0       0
       0       0       0       0       0       0       0       0       0       0
       0       0       0       0       0       0       0       0       0       0
       0       0       0       0       0       0       0       0       0       0
       0       0       0       0       0       0       0       0       0       0
       0       0       0       0       0       0       0       0       0       0
       0       0       0       0       0       0       0       0       0       0
       0       0       0       0       0       0       0       0       0       0
       0       0       0       0       0       0       0       0       0       0
       0       0       0       0       0       0       0       0       0       0
       0       0       0       0       0       0       0       0       0       0
       0       0       0       0       0       0       0       0       0       0
       0       0       0       0       0       0       0       0       0       0
       0       0       0       0       0       0       0       0       0       0
       0       0       0       0       0       0       0       0       0       0
       0       0       0       0       0       0       0       0       0       0
       0       0       0       0       0       0       0       0       0       0
       0       0       0       0       0       0       0       0       0       0
       0       0       0       0       0       0       0       0       0       0
       0       0       0       0       0       0       0       0       0       0
       0       0       0       0       0       0       0       0       0       0
       0       0       0       0       0       0       0       0       0       0
       0       0       0       0       0       0       0       0       0       0
       0       0       0       0       0       0       0       0       0       0
       0       0       0       0       0       0       0       0       0       0
       0       0       0       0       0       0       0       0       0       0
       0       0       0       0       0       0       0       0       0       0
       0       0       0       0       0       0       0       0       0       0
       0       0       0       0       0       0       0       0       0       0
       0       0       0       0       0       0       0       0       0       0
       0       0       0       0       0       0       0       0       0       0
       0       0       0       0       0       0       0       0       0       0
       0       0       0       0       0       0       0       0       0       0
       0       0       0       0       0       0       0       0       0       0
       0       0       0       0       0       0       0       0       0       0
       0       0       0       0       0       0       0       0       0       0
       0       0       0       0       0       0       0       0       0       0
       0       0       0       0       0       0       0       0       0       0
       0       0       0       0       0       0       0       0       0       0
       0       0       0       0       0       0       0       0       0       0
       0       0       0       0       0       0       0       0       0       0
       0       0       0       0       0       0       0       0       0       0
       0       0       0       0       0       0       0       0       0       0
       0       0       0       0       0       0       0       0       0       0
       0       0       0       0       0       0       0       0       0       0
       0       0       0       0       0       0       0       0       0       0
       0       0       0       0       0       0       0       0       0       0
       0       0       0       0       0       0       0       0       0       0
       0       0       0       0       0       0       0       0       0       0
       0       0       0       0       0       0       0       0       0       0
       0       0       0       0       0       0       0       0       0       0
       0       0       0       0       0       0       0       0       0       0
       0       0       0       0       0       0       0       0       0       0
       0       0       0       0       0       0       0       0       0       0
       0       0       0       0       0       0       0       0       0       0
       0       0       0       0       0       0       0       0       0       0
       0       0       0       0       0       0       0       0       0       0
       0       0       0       0       0       0       0       0       0       0
       0       0       0       0       0       0       0       0       0       0
       0       0       0       0       0       0       0       0       0       0
       0       0       0       0       0       0       0       0       0       0
       0       0       0       0       0       0       0       0       0       0
       0       0       0       0       0       0       0       0       0       0
       0       0       0       0       0       0       0       0       0       0
       0       0       0       0       0       0       0       0       0       0
       0       0       0       0       0       0       0       0       0       0
       0       0       0       0       0       0       0       0       0       0
       0       0       0       0       0       0       0       0       0       0
       0       0       0       0       0       0       0       0       0       0
       0       0       0       0       0       0       0       0       0       0
       0       0       0       0       0       0       0       0       0       0
       0       0       0       0       0       0       0       0       0       0
       0       0       0       0       0       0       0       0       0       0
       0       0       0       0       0       0       0       0       0       0
       0       0       0       0       0       0       0       0       0       0
       0       0       0       0       0       0       0       0       0       0
       0       0       0       0       0       0       0       0       0       0
       0       0       0       0       0       0       0       0       0       0
       0       0       0       0       0       0       0       0       0       0
       0       0       0       0       0       0       0       0       0       0
       0       0       0       0       0       0       0       0       0       0
       0       0       0       0       0       0       0       0       0       0
       0       0       0       0       0       0       0       0       0       0
       0       0       0       0       0       0       0       0       0       0
       0       0       0       0       0       0       0       0       0       0
       0       0       0       0       0       0       0       0       0       0
       0       0       0       0       0       0       0       0       0       0
       0       0       0       0       0       0       0       0       0       0
       0       0       0       0       0       0       0       0       0       0
       0       0       0       0       0       0       0       0       0       0
       0       0       0       0       0       0       0       0       0       0
       0       0       0       0       0       0       0       0       0       0
       0       0       0       0       0       0       0       0       0       0
       0       0       0       0       0       0       0       0       0       0
       0       0       0       0       0       0       0       0       0       0
       0       0       0       0       0       0       0       0       0       0
       0       0       0       0       0       0       0       0       0       0
       0       0       0       0       0       0       0       0       0       0
       0       0       0       0       0       0       0       0       0       0
       0       0       0       0       0       0       0       0       0       0
       0       0       0       0       0       0       0       0       0       0
       0       0       0       0       0       0       0       0       0       0
       0       0       0       0       0       0       0       0       0       0
       0       0       0       0       0       0       0       0       0       0
       0       0       0       0       0       0       0       0       0       0
       0       0       0       0       0       0       0       0       0       0
       0       0       0       0       0       0       0       0       0       0
       0       0       0       0       0       0       0       0       0       0
       0       0       0       0       0       0       0       0       0       0
       0       0       0       0       0       0       0       0       0       0
       0       0       0       0       0       0       0       0       0       0
       0       0       0       0       0       0       0       0       0       0
       0       0       0       0       0       0       0       0       0       0
       0       0       0       0       0       0       0       0       0       0
       0       0       0       0       0       0       0       0       0       0
       0       0       0       0       0       0       0       0       0       0
       0       0       0       0       0       0       0       0       0       0
       0       0       0       0       0       0       0       0       0       0
       0       0       0       0       0       0       0       0       0       0
       0       0       0       0       0       0       0       0       0       0
       0       0       0       0       0       0       0       0       0       0
       0       0       0       0       0       0       0       0       0       0
       0       0       0       0       0       0       0       0       0       0
       0       0       0       0       0       0       0       0       0       0
       0       0       0       0       0       0       0       0       0       0
       0       0       0       0       0       0       0       0       0       0
       0       0       0       0       0       0       0       0       0       0
       0       0       0       0       0       0       0       0       0       0
       0       0       0       0       0       0       0       0       0       0
       0       0       0       0       0       0       0       0       0       0
       0       0       0       0       0       0       0       0       0       0
       0       0       0       0       0       0       0       0       0       0
       0       0       0       0       0       0       0       0       0       0
       0       0       0       0       0       0       0       0       0       0
       0       0       0       0       0       0       0       0       0       0
       0       0       0       0       0       0       0       0       0       0
       0       0       0       0       0       0       0       0       0       0
       0       0       0       0       0       0       0       0       0       0
       0       0       0       0       0       0       0       0       0       0
       0       0       0       0       0       0       0       0       0       0
       0       0       0       0       0       0       0       0       0       0
       0       0       0       0       0       0       0       0       0       0
       0       0       0       0       0       0       0       0       0       0
       0       0       0       0       0       0       0       0       0       0
       0       0       0       0       0       0       0       0       0       0
       0       0       0       0       0       0       0       0       0       0
       0       0       0       0       0       0       0       0       0       0
       0       0       0       0       0       0       0       0       0       0
       0       0       0       0       0       0       0       0       0       0
       0       0       0       0       0       0       0       0       0       0
       0       0       0       0       0       0       0       0       0       0
       0       0       0       0       0       0       0       0       0       0
       0       0       0       0       0       0       0       0       0       0
       0       0       0       0       0       0       0       0       0       0
       0       0       0       0       0       0       0       0       0       0
       0       0       0       0       0       0       0       0       0       0
       0       0       0       0       0       0       0       0       0       0
       0       0       0       0       0       0       0       0       0       0
       0       0       0       0       0       0       0       0       0       0
       0       0       0       0       0       0       0       0       0       0
       0       0       0       0       0       0       0       0       0       0
       0       0       0       0       0       0       0       0       0       0
       0       0       0       0       0       0       0       0       0       0
       0       0       0       0       0       0       0       0       0       0
       0       0       0       0       0       0       0       0       0       0
       0       0       0       0       0       0       0       0       0       0
       0       0       0       0       0       0       0       0       0       0
       0       0       0       0       0       0       0       0       0       0
       0       0       0       0       0       0       0       0       0       0
       0       0       0       0       0       0       0       0       0       0
       0       0       0       0       0       0       0       0       0       0
       0       0       0       0       0       0       0       0       0       0
       0       0       0       0       0       0       0       0       0       0
       0       0       0       0       0       0       0       0       0       0
       0       0       0       0       0       0       0       0       0       0
       0       0       0       0       0       0       0       0       0       0
       0       0       0       0       0       0       0       0       0       0
       0       0       0       0       0       0       0       0       0       0
       0       0       0       0       0       0       0       0       0       0
       0       0       0       0       0       0       0       0       0       0
       0       0       0       0       0       0       0       0       0       0
       0       0       0       0       0       0       0       0       0       0
       0       0       0       0       0       0       0       0       0       0
       0       0       0       0       0       0       0       0       0       0
       0       0       0       0       0       0       0       0       0       0
       0       0       0       0       0       0       0       0       0       0
       0       0       0       0       0       0       0       0       0       0
       0       0       0       0       0       0       0       0       0       0
       0       0       0       0       0       0       0       0       0       0
       0       0       0       0       0       0       0       0       0       0
       0       0       0       0       0       0       0       0       0       0
       0       0       0       0       0       0       0       0       0       0
       0       0       0       0       0       0       0       0       0       0
       0       0       0       0       0       0       0       0       0       0
       0       0       0       0       0       0       0       0       0       0
       0       0       0       0       0       0       0       0       0       0
       0       0       0       0       0       0       0       0       0       0
       0       0       0       0       0       0       0       0       0       0
       0       0       0       0       0       0       0       0       0       0
       0       0       0       0       0       0       0       0       0       0
       0       0       0       0       0       0       0       0       0       0
       0       0       0       0       0       0       0       0       0       0
       0       0       0       0       0       0       0       0       0       0
       0       0       0       0       0       0       0       0       0       0
       0       0       0       0       0       0       0       0       0       0
       0       0       0       0       0       0       0       0       0       0
       0       0       0       0       0       0       0       0       0       0
       0       0       0       0       0       0       0       0       0       0
       0       0       0       0       0       0       0       0       0       0
       0       0       0       0       0       0       0       0       0       0
       0       0       0       0       0       0       0       0       0       0
       0       0       0       0       0       0       0       0       0       0
       0       0       0       0       0       0       0       0       0       0
       0       0       0       0       0       0       0       0       0       0
       0       0       0       0       0       0       0       0       0       0
       0       0       0       0       0       0       0       0       0       0
       0       0       0       0       0       0       0       0       0       0
       0       0       0       0       0       0       0       0       0       0
       0       0       0       0       0       0       0       0       0       0
       0       0       0       0       0       0       0       0       0       0
       0       0       0       0       0       0       0       0       0       0
       0       0       0       0       0       0       0       0       0       0
       0       0       0       0       0       0       0       0       0       0
       0       0       0       0       0       0       0       0       0       0
       0       0       0       0       0       0       0       0       0       0
       0       0       0       0       0       0       0       0       0       0
       0       0       0       0       0       0       0       0       0       0
       0       0       0       0       0       0       0       0       0       0
       0       0       0       0       0       0       0       0       0       0
       0       0       0       0       0       0       0       0       0       0
       0       0       0       0       0       0       0       0       0       0
       0       0       0       0       0       0       0       0       0       0
       0       0       0       0       0       0       0       0       0       0
       0       0       0       0       0       0       0       0       0       0
       0       0       0       0       0       0       0       0       0       0
       0       0       0       0       0       0       0       0       0       0
       0       0       0       0       0       0       0       0       0       0
       0       0       0       0       0       0       0       0       0       0
       0       0       0       0       0       0       0       0       0       0
       0       0       0       0       0       0       0       0       0       0
       0       0       0       0       0       0       0       0       0       0
       0       0       0       0       0       0       0       0       0       0
       0       0       0       0       0       0       0       0       0       0
       0       0       0       0       0       0       0       0       0       0
       0       0       0       0       0       0       0       0       0       0
       0       0       0       0       0       0       0       0       0       0
       0       0       0       0       0       0       0       0       0       0
       0       0       0       0       0       0       0       0       0       0
       0       0       0       0       0       0       0       0       0       0
       0       0       0       0       0       0       0       0       0       0
       0       0       0       0       0       0       0       0       0       0
       0       0       0       0       0       0       0       0       0       0
       0       0       0       0       0       0       0       0       0       0
       0       0       0       0       0       0       0       0       0       0
       0       0       0       0       0       0       0       0       0       0
       0       0       0       0       0       0       0       0       0       0
       0       0       0       0       0       0       0       0       0       0
       0       0       0       0       0       0       0       0       0       0
       0       0       0       0       0       0       0       0       0       0
       0       0       0       0       0       0       0       0       0       0
       0       0       0       0       0       0       0       0       0       0
       0       0       0       0       0       0       0       0       0       0
       0       0       0       0       0       0       0       0       0       0
       0       0       0       0       0       0       0       0       0       0
       0       0       0       0       0       0       0       0       0       0
       0       0       0       0       0       0       0       0       0       0
       0       0       0       0       0       0       0       0       0       0
       0       0       0       0       0       0       0       0       0       0
       0       0       0       0       0       0       0       0       0       0
       0       0       0       0       0       0       0       0       0       0
       0       0       0       0       0       0       0       0       0       0
       0       0       0       0       0       0       0       0       0       0
       0       0       0       0       0       0       0       0       0       0
       0       0       0       0       0       0       0       0       0       0
       0       0       0       0       0       0       0       0       0       0
       0       0       0       0       0       0       0       0       0       0
       0       0       0       0       0       0       0       0       0       0
       0       0       0       0       0       0       0       0       0       0
       0       0       0       0       0       0       0       0       0       0
       0       0       0       0       0       0       0       0       0       0
       0       0       0       0       0       0       0       0       0       0
       0       0       0       0       0       0       0       0       0       0
       0       0       0       0       0       0       0       0       0       0
       0       0       0       0       0       0       0       0       0       0
       0       0       0       0       0       0       0       0       0       0
       0       0       0       0       0       0       0       0       0       0
       0       0       0       0       0       0       0       0       0       0
       0       0       0       0       0       0       0       0       0       0
       0       0       0       0       0       0       0       0       0       0
       0       0       0       0       0       0       0       0       0       0
       0       0       0       0       0       0       0       0       0       0
       0       0       0       0       0       0       0       0       0       0
       0       0       0       0       0       0       0       0       0       0
       0       0       0       0       0       0       0       0       0       0
       0       0       0       0       0       0       0       0       0       0
       0       0       0       0       0       0       0       0       0       0
       0       0       0       0       0       0       0       0       0       0
       0       0       0       0       0       0       0       0       0       0
       0       0       0       0       0       0       0       0       0       0
       0       0       0       0       0       0       0       0       0       0
       0       0       0       0       0       0       0       0       0       0
       0       0       0       0       0       0       0       0       0       0
       0       0       0       0       0       0       0       0       0       0
       0       0       0       0       0       0       0       0       0       0
       0       0       0       0       0       0       0       0       0       0
       0       0       0       0       0       0       0       0       0       0
       0       0       0       0       0       0       0       0       0       0
       0       0       0       0       0       0       0       0       0       0
       0       0       0       0       0       0       0       0       0       0
       0       0       0       0       0       0       0       0       0       0
       0       0       0       0       0       0       0       0       0       0
       0       0       0       0       0       0       0       0       0       0
       0       0       0       0       0       0       0       0       0       0
       0       0       0       0       0       0       0       0       0       0
       0       0       0       0       0       0       0       0       0       0
       0       0       0       0       0       0       0       0       0       0
       0       0       0       0       0       0       0       0       0       0
       0       0       0       0       0       0       0       0       0       0
       0       0       0       0       0       0       0       0       0       0
       0       0       0       0       0       0       0       0       0       0
       0       0       0       0       0       0       0       0       0       0
       0       0       0       0       0       0       0       0       0       0
       0       0       0       0       0       0       0       0       0       0
       0       0       0       0       0       0       0       0       0       0
       0       0       0       0       0       0       0       0       0       0
       0       0       0       0       0       0       0       0       0       0
       0       0       0       0       0       0       0       0       0       0
       0       0       0       0       0       0       0       0       0       0
       0       0       0       0       0       0       0       0       0       0
       0       0       0       0       0       0       0       0       0       0
       0       0       0       0       0       0       0       0       0       0
       0       0       0       0       0       0       0       0       0       0
       0       0       0       0       0       0       0       0       0       0
       0       0       0       0       0       0       0       0       0       0
       0       0       0       0       0       0       0       0       0       0
       0       0       0       0       0       0       0       0       0       0
       0       0       0       0       0       0       0       0       0       0
       0       0       0       0       0       0       0       0       0       0
       0       0       0       0       0       0       0       0       0       0
       0       0       0       0       0       0       0       0       0       0
       0       0       0       0       0       0       0       0       0       0
       0       0       0       0       0       0       0       0       0       0
       0       0       0       0       0       0       0       0       0       0
       0       0       0       0       0       0       0       0       0       0
       0       0       0       0       0       0       0       0       0       0
       0       0       0       0       0       0       0       0       0       0
       0       0       0       0       0       0       0       0       0       0
       0       0       0       0       0       0       0       0       0       0
       0       0       0       0       0       0       0       0       0       0
       0       0       0       0       0       0       0       0       0       0
       0       0       0       0       0       0       0       0       0       0
       0       0       0       0       0       0       0       0       0       0
       0       0       0       0       0       0       0       0       0       0
       0       0       0       0       0       0       0       0       0       0
       0
%FLAG IROTAT                                                                    
%FORMAT(10I8)                                                                   
       0       0       0       0       0       0       0       0       0       0
       0       0       0       0       0       0       0       0       0       0
       0       0       0       0       0       0       0       0       0       0
       0       0       0       0       0       0       0       0       0       0
       0       0       0       0       0       0       0       0       0       0
       0       0       0       0       0       0       0       0       0       0
       0       0       0       0       0       0       0       0       0       0
       0       0       0       0       0       0       0       0       0       0
       0       0       0       0       0       0       0       0       0       0
       0       0       0       0       0       0       0       0       0       0
       0       0       0       0       0       0       0       0       0       0
       0       0       0       0       0       0       0       0       0       0
       0       0       0       0       0       0       0       0       0       0
       0       0       0       0       0       0       0       0       0       0
       0       0       0       0       0       0       0       0       0       0
       0       0       0       0       0       0       0       0       0       0
       0       0       0       0       0       0       0       0       0       0
       0       0       0       0       0       0       0       0       0       0
       0       0       0       0       0       0       0       0       0       0
       0       0       0       0       0       0       0       0       0       0
       0       0       0       0       0       0       0       0       0       0
       0       0       0       0       0       0       0       0       0       0
       0       0       0       0       0       0       0       0       0       0
       0       0       0       0       0       0       0       0       0       0
       0       0       0       0       0       0       0       0       0       0
       0       0       0       0       0       0       0       0       0       0
       0       0       0       0       0       0       0       0       0       0
       0       0       0       0       0       0       0       0       0       0
       0       0       0       0       0       0       0       0       0       0
       0       0       0       0       0       0       0       0       0       0
       0       0       0       0       0       0       0       0       0       0
       0       0       0       0       0       0       0       0       0       0
       0       0       0       0       0       0       0       0       0       0
       0       0       0       0       0       0       0       0       0       0
       0       0       0       0       0       0       0       0       0       0
       0       0       0       0       0       0       0       0       0       0
       0       0       0       0       0       0       0       0       0       0
       0       0       0       0       0       0       0       0       0       0
       0       0       0       0       0       0       0       0       0       0
       0       0       0       0       0       0       0       0       0       0
       0       0       0       0       0       0       0       0       0       0
       0       0       0       0       0       0       0       0       0       0
       0       0       0       0       0       0       0       0       0       0
       0       0       0       0       0       0       0       0       0       0
       0       0       0       0       0       0       0       0       0       0
       0       0       0       0       0       0       0       0       0       0
       0       0       0       0       0       0       0       0       0       0
       0       0       0       0       0       0       0       0       0       0
       0       0       0       0       0       0       0       0       0       0
       0       0       0       0       0       0       0       0       0       0
       0       0       0       0       0       0       0       0       0       0
       0       0       0       0       0       0       0       0       0       0
       0       0       0       0       0       0       0       0       0       0
       0       0       0       0       0       0       0       0       0       0
       0       0       0       0       0       0       0       0       0       0
       0       0       0       0       0       0       0       0       0       0
       0       0       0       0       0       0       0       0       0       0
       0       0       0       0       0       0       0       0       0       0
       0       0       0       0       0       0       0       0       0       0
       0       0       0       0       0       0       0       0       0       0
       0       0       0       0       0       0       0       0       0       0
       0       0       0       0       0       0       0       0       0       0
       0       0       0       0       0       0       0       0       0       0
       0       0       0       0       0       0       0       0       0       0
       0       0       0       0       0       0       0       0       0       0
       0       0       0       0       0       0       0       0       0       0
       0       0       0       0       0       0       0       0       0       0
       0       0       0       0       0       0       0       0       0       0
       0       0       0       0       0       0       0       0       0       0
       0       0       0       0       0       0       0       0       0       0
       0       0       0       0       0       0       0       0       0       0
       0       0       0       0       0       0       0       0       0       0
       0       0       0       0       0       0       0       0       0       0
       0       0       0       0       0       0       0       0       0       0
       0       0       0       0       0       0       0       0       0       0
       0       0       0       0       0       0       0       0       0       0
       0       0       0       0       0       0       0       0       0       0
       0       0       0       0       0       0       0       0       0       0
       0       0       0       0       0       0       0       0       0       0
       0       0       0       0       0       0       0       0       0       0
       0       0       0       0       0       0       0       0       0       0
       0       0       0       0       0       0       0       0       0       0
       0       0       0       0       0       0       0       0       0       0
       0       0       0       0       0       0       0       0       0       0
       0       0       0       0       0       0       0       0       0       0
       0       0       0       0       0       0       0       0       0       0
       0       0       0       0       0       0       0       0       0       0
       0       0       0       0       0       0       0       0       0       0
       0       0       0       0       0       0       0       0       0       0
       0       0       0       0       0       0       0       0       0       0
       0       0       0       0       0       0       0       0       0       0
       0       0       0       0       0       0       0       0       0       0
       0       0       0       0       0       0       0       0       0       0
       0       0       0       0       0       0       0       0       0       0
       0       0       0       0       0       0       0       0       0       0
       0       0       0       0       0       0       0       0       0       0
       0       0       0       0       0       0       0       0       0       0
       0       0       0       0       0       0       0       0       0       0
       0       0       0       0       0       0       0       0       0       0
       0       0       0       0       0       0       0       0       0       0
       0       0       0       0       0       0       0       0       0       0
       0       0       0       0       0       0       0       0       0       0
       0       0       0       0       0       0       0       0       0       0
       0       0       0       0       0       0       0       0       0       0
       0       0       0       0       0       0       0       0       0       0
       0       0       0       0       0       0       0       0       0       0
       0       0       0       0       0       0       0       0       0       0
       0       0       0       0       0       0       0       0       0       0
       0       0       0       0       0       0       0       0       0       0
       0       0       0       0       0       0       0       0       0       0
       0       0       0       0       0       0       0       0       0       0
       0       0       0       0       0       0       0       0       0       0
       0       0       0       0       0       0       0       0       0       0
       0       0       0       0       0       0       0       0       0       0
       0       0       0       0       0       0       0       0       0       0
       0       0       0       0       0       0       0       0       0       0
       0       0       0       0       0       0       0       0       0       0
       0       0       0       0       0       0       0       0       0       0
       0       0       0       0       0       0       0       0       0       0
       0       0       0       0       0       0       0       0       0       0
       0       0       0       0       0       0       0       0       0       0
       0       0       0       0       0       0       0       0       0       0
       0       0       0       0       0       0       0       0       0       0
       0       0       0       0       0       0       0       0       0       0
       0       0       0       0       0       0       0       0       0       0
       0       0       0       0       0       0       0       0       0       0
       0       0       0       0       0       0       0       0       0       0
       0       0       0       0       0       0       0       0       0       0
       0       0       0       0       0       0       0       0       0       0
       0       0       0       0       0       0       0       0       0       0
       0       0       0       0       0       0       0       0       0       0
       0       0       0       0       0       0       0       0       0       0
       0       0       0       0       0       0       0       0       0       0
       0       0       0       0       0       0       0       0       0       0
       0       0       0       0       0       0       0       0       0       0
       0       0       0       0       0       0       0       0       0       0
       0       0       0       0       0       0       0       0       0       0
       0       0       0       0       0       0       0       0       0       0
       0       0       0       0       0       0       0       0       0       0
       0       0       0       0       0       0       0       0       0       0
       0       0       0       0       0       0       0       0       0       0
       0       0       0       0       0       0       0       0       0       0
       0       0       0       0       0       0       0       0       0       0
       0       0       0       0       0       0       0       0       0       0
       0       0       0       0       0       0       0       0       0       0
       0       0       0       0       0       0       0       0       0       0
       0       0       0       0       0       0       0       0       0       0
       0       0       0       0       0       0       0       0       0       0
       0       0       0       0       0       0       0       0       0       0
       0       0       0       0       0       0       0       0       0       0
       0       0       0       0       0       0       0       0       0       0
       0       0       0       0       0       0       0       0       0       0
       0       0       0       0       0       0       0       0       0       0
       0       0       0       0       0       0       0       0       0       0
       0       0       0       0       0       0       0       0       0       0
       0       0       0       0       0       0       0       0       0       0
       0       0       0       0       0       0       0       0       0       0
       0       0       0       0       0       0       0       0       0       0
       0       0       0       0       0       0       0       0       0       0
       0       0       0       0       0       0       0       0       0       0
       0       0       0       0       0       0       0       0       0       0
       0       0       0       0       0       0       0       0       0       0
       0       0       0       0       0       0       0       0       0       0
       0       0       0       0       0       0       0       0       0       0
       0       0       0       0       0       0       0       0       0       0
       0       0       0       0       0       0       0       0       0       0
       0       0       0       0       0       0       0       0       0       0
       0       0       0       0       0       0       0       0       0       0
       0       0       0       0       0       0       0       0       0       0
       0       0       0       0       0       0       0       0       0       0
       0       0       0       0       0       0       0       0       0       0
       0       0       0       0       0       0       0       0       0       0
       0       0       0       0       0       0       0       0       0       0
       0       0       0       0       0       0       0       0       0       0
       0       0       0       0       0       0       0       0       0       0
       0       0       0       0       0       0       0       0       0       0
       0       0       0       0       0       0       0       0       0       0
       0       0       0       0       0       0       0       0       0       0
       0       0       0       0       0       0       0       0       0       0
       0       0       0       0       0       0       0       0       0       0
       0       0       0       0       0       0       0       0       0       0
       0       0       0       0       0       0       0       0       0       0
       0       0       0       0       0       0       0       0       0       0
       0       0       0       0       0       0       0       0       0       0
       0       0       0       0       0       0       0       0       0       0
       0       0       0       0       0       0       0       0       0       0
       0       0       0       0       0       0       0       0       0       0
       0       0       0       0       0       0       0       0       0       0
       0       0       0       0       0       0       0       0       0       0
       0       0       0       0       0       0       0       0       0       0
       0       0       0       0       0       0       0       0       0       0
       0       0       0       0       0       0       0       0       0       0
       0       0       0       0       0       0       0       0       0       0
       0       0       0       0       0       0       0       0       0       0
       0       0       0       0       0       0       0       0       0       0
       0       0       0       0       0       0       0       0       0       0
       0       0       0       0       0       0       0       0       0       0
       0       0       0       0       0       0       0       0       0       0
       0       0       0       0       0       0       0       0       0       0
       0       0       0       0       0       0       0       0       0       0
       0       0       0       0       0       0       0       0       0       0
       0       0       0       0       0       0       0       0       0       0
       0       0       0       0       0       0       0       0       0       0
       0       0       0       0       0       0       0       0       0       0
       0       0       0       0       0       0       0       0       0       0
       0       0       0       0       0       0       0       0       0       0
       0       0       0       0       0       0       0       0       0       0
       0       0       0       0       0       0       0       0       0       0
       0       0       0       0       0       0       0       0       0       0
       0       0       0       0       0       0       0       0       0       0
       0       0       0       0       0       0       0       0       0       0
       0       0       0       0       0       0       0       0       0       0
       0       0       0       0       0       0       0       0       0       0
       0       0       0       0       0       0       0       0       0       0
       0       0       0       0       0       0       0       0       0       0
       0       0       0       0       0       0       0       0       0       0
       0       0       0       0       0       0       0       0       0       0
       0       0       0       0       0       0       0       0       0       0
       0       0       0       0       0       0       0       0       0       0
       0       0       0       0       0       0       0       0       0       0
       0       0       0       0       0       0       0       0       0       0
       0       0       0       0       0       0       0       0       0       0
       0       0       0       0       0       0       0       0       0       0
       0       0       0       0       0       0       0       0       0       0
       0       0       0       0       0       0       0       0       0       0
       0       0       0       0       0       0       0       0       0       0
       0       0       0       0       0       0       0       0       0       0
       0       0       0       0       0       0       0       0       0       0
       0       0       0       0       0       0       0       0       0       0
       0       0       0       0       0       0       0       0       0       0
       0       0       0       0       0       0       0       0       0       0
       0       0       0       0       0       0       0       0       0       0
       0       0       0       0       0       0       0       0       0       0
       0       0       0       0       0       0       0       0       0       0
       0       0       0       0       0       0       0       0       0       0
       0       0       0       0       0       0       0       0       0       0
       0       0       0       0       0       0       0       0       0       0
       0       0       0       0       0       0       0       0       0       0
       0       0       0       0       0       0       0       0       0       0
       0       0       0       0       0       0       0       0       0       0
       0       0       0       0       0       0       0       0       0       0
       0       0       0       0       0       0       0       0       0       0
       0       0       0       0       0       0       0       0       0       0
       0       0       0       0       0       0       0       0       0       0
       0       0       0       0       0       0       0       0       0       0
       0       0       0       0       0       0       0       0       0       0
       0       0       0       0       0       0       0       0       0       0
       0       0       0       0       0       0       0       0       0       0
       0       0       0       0       0       0       0       0       0       0
       0       0       0       0       0       0       0       0       0       0
       0       0       0       0       0       0       0       0       0       0
       0       0       0       0       0       0       0       0       0       0
       0       0       0       0       0       0       0       0       0       0
       0       0       0       0       0       0       0       0       0       0
       0       0       0       0       0       0       0       0       0       0
       0       0       0       0       0       0       0       0       0       0
       0       0       0       0       0       0       0       0       0       0
       0       0       0       0       0       0       0       0       0       0
       0       0       0       0       0       0       0       0       0       0
       0       0       0       0       0       0       0       0       0       0
       0       0       0       0       0       0       0       0       0       0
       0       0       0       0       0       0       0       0       0       0
       0       0       0       0       0       0       0       0       0       0
       0       0       0       0       0       0       0       0       0       0
       0       0       0       0       0       0       0       0       0       0
       0       0       0       0       0       0       0       0       0       0
       0       0       0       0       0       0       0       0       0       0
       0       0       0       0       0       0       0       0       0       0
       0       0       0       0       0       0       0       0       0       0
       0       0       0       0       0       0       0       0       0       0
       0       0       0       0       0       0       0       0       0       0
       0       0       0       0       0       0       0       0       0       0
       0       0       0       0       0       0       0       0       0       0
       0       0       0       0       0       0       0       0       0       0
       0       0       0       0       0       0       0       0       0       0
       0       0       0       0       0       0       0       0       0       0
       0       0       0       0       0       0       0       0       0       0
       0       0       0       0       0       0       0       0       0       0
       0       0       0       0       0       0       0       0       0       0
       0       0       0       0       0       0       0       0       0       0
       0       0       0       0       0       0       0       0       0       0
       0       0       0       0       0       0       0       0       0       0
       0       0       0       0       0       0       0       0       0       0
       0       0       0       0       0       0       0       0       0       0
       0       0       0       0       0       0       0       0       0       0
       0       0       0       0       0       0       0       0       0       0
       0       0       0       0       0       0       0       0       0       0
       0       0       0       0       0       0       0       0       0       0
       0       0       0       0       0       0       0       0       0       0
       0       0       0       0       0       0       0       0       0       0
       0       0       0       0       0       0       0       0       0       0
       0       0       0       0       0       0       0       0       0       0
       0       0       0       0       0       0       0       0       0       0
       0       0       0       0       0       0       0       0       0       0
       0       0       0       0       0       0       0       0       0       0
       0       0       0       0       0       0       0       0       0       0
       0       0       0       0       0       0       0       0       0       0
       0       0       0       0       0       0       0       0       0       0
       0       0       0       0       0       0       0       0       0       0
       0       0       0       0       0       0       0       0       0       0
       0       0       0       0       0       0       0       0       0       0
       0       0       0       0       0       0       0       0       0       0
       0       0       0       0       0       0       0       0       0       0
       0       0       0       0       0       0       0       0       0       0
       0       0       0       0       0       0       0       0       0       0
       0       0       0       0       0       0       0       0       0       0
       0       0       0       0       0       0       0       0       0       0
       0       0       0       0       0       0       0       0       0       0
       0       0       0       0       0       0       0       0       0       0
       0       0       0       0       0       0       0       0       0       0
       0       0       0       0       0       0       0       0       0       0
       0       0       0       0       0       0       0       0       0       0
       0       0       0       0       0       0       0       0       0       0
       0       0       0       0       0       0       0       0       0       0
       0       0       0       0       0       0       0       0       0       0
       0       0       0       0       0       0       0       0       0       0
       0       0       0       0       0       0       0       0       0       0
       0       0       0       0       0       0       0       0       0       0
       0       0       0       0       0       0       0       0       0       0
       0       0       0       0       0       0       0       0       0       0
       0       0       0       0       0       0       0       0       0       0
       0       0       0       0       0       0       0       0       0       0
       0       0       0       0       0       0       0       0       0       0
       0       0       0       0       0       0       0       0       0       0
       0       0       0       0       0       0       0       0       0       0
       0       0       0       0       0       0       0       0       0       0
       0       0       0       0       0       0       0       0       0       0
       0       0       0       0       0       0       0       0       0       0
       0       0       0       0       0       0       0       0       0       0
       0       0       0       0       0       0       0       0       0       0
       0       0       0       0       0       0       0       0       0       0
       0       0       0       0       0       0       0       0       0       0
       0       0       0       0       0       0       0       0       0       0
       0       0       0       0       0       0       0       0       0       0
       0       0       0       0       0       0       0       0       0       0
       0       0       0       0       0       0       0       0       0       0
       0       0       0       0       0       0       0       0       0       0
       0       0       0       0       0       0       0       0       0       0
       0       0       0       0       0       0       0       0       0       0
       0       0       0       0       0       0       0       0       0       0
       0       0       0       0       0       0       0       0       0       0
       0       0       0       0       0       0       0       0       0       0
       0       0       0       0       0       0       0       0       0       0
       0       0       0       0       0       0       0       0       0       0
       0       0       0       0       0       0       0       0       0       0
       0       0       0       0       0       0       0       0       0       0
       0       0       0       0       0       0       0       0       0       0
       0       0       0       0       0       0       0       0       0       0
       0       0       0       0       0       0       0       0       0       0
       0       0       0       0       0       0       0       0       0       0
       0       0       0       0       0       0       0       0       0       0
       0       0       0       0       0       0       0       0       0       0
       0       0       0       0       0       0       0       0       0       0
       0       0       0       0       0       0       0       0       0       0
       0       0       0       0       0       0       0       0       0       0
       0       0       0       0       0       0       0       0       0       0
       0       0       0       0       0       0       0       0       0       0
       0       0       0       0       0       0       0       0       0       0
       0       0       0       0       0       0       0       0       0       0
       0       0       0       0       0       0       0       0       0       0
       0       0       0       0       0       0       0       0       0       0
       0       0       0       0       0       0       0       0       0       0
       0       0       0       0       0       0       0       0       0       0
       0       0       0       0       0       0       0       0       0       0
       0       0       0       0       0       0       0       0       0       0
       0       0       0       0       0       0       0       0       0       0
       0       0       0       0       0       0       0       0       0       0
       0       0       0       0       0       0       0       0       0       0
       0       0       0       0       0       0       0       0       0       0
       0       0       0       0       0       0       0       0       0       0
       0       0       0       0       0       0       0       0       0       0
       0       0       0       0       0       0       0       0       0       0
       0       0       0       0       0       0       0       0       0       0
       0       0       0       0       0       0       0       0       0       0
       0       0       0       0       0       0       0       0       0       0
       0       0       0       0       0       0       0       0       0       0
       0       0       0       0       0       0       0       0       0       0
       0       0       0       0       0       0       0       0       0       0
       0       0       0       0       0       0       0       0       0       0
       0       0       0       0       0       0       0       0       0       0
       0       0       0       0       0       0       0       0       0       0
       0       0       0       0       0       0       0       0       0       0
       0       0       0       0       0       0       0       0       0       0
       0       0       0       0       0       0       0       0       0       0
       0       0       0       0       0       0       0       0       0       0
       0       0       0       0       0       0       0       0       0       0
       0       0       0       0       0       0       0       0       0       0
       0       0       0       0       0       0       0       0       0       0
       0       0       0       0       0       0       0       0       0       0
       0       0       0       0       0       0       0       0       0       0
       0       0       0       0       0       0       0       0       0       0
       0       0       0       0       0       0       0       0       0       0
       0       0       0       0       0       0       0       0       0       0
       0       0       0       0       0       0       0       0       0       0
       0       0       0       0       0       0       0       0       0       0
       0       0       0       0       0       0       0       0       0       0
       0       0       0       0       0       0       0       0       0       0
       0       0       0       0       0       0       0       0       0       0
       0       0       0       0       0       0       0       0       0       0
       0       0       0       0       0       0       0       0       0       0
       0       0       0       0       0       0       0       0       0       0
       0       0       0       0       0       0       0       0       0       0
       0       0       0       0       0       0       0       0       0       0
       0       0       0       0       0       0       0       0       0       0
       0       0       0       0       0       0       0       0       0       0
       0       0       0       0       0       0       0       0       0       0
       0       0       0       0       0       0       0       0       0       0
       0       0       0       0       0       0       0       0       0       0
       0       0       0       0       0       0       0       0       0       0
       0       0       0       0       0       0       0       0       0       0
       0       0       0       0       0       0       0       0       0       0
       0       0       0       0       0       0       0       0       0       0
       0       0       0       0       0       0       0       0       0       0
       0       0       0       0       0       0       0       0       0       0
       0       0       0       0       0       0       0       0       0       0
       0       0       0       0       0       0       0       0       0       0
       0       0       0       0       0       0       0       0       0       0
       0       0       0       0       0       0       0       0       0       0
       0       0       0       0       0       0       0       0       0       0
       0       0       0       0       0       0       0       0       0       0
       0       0       0       0       0       0       0       0       0       0
       0       0       0       0       0       0       0       0       0       0
       0       0       0       0       0       0       0       0       0       0
       0       0       0       0       0       0       0       0       0       0
       0       0       0       0       0       0       0       0       0       0
       0       0       0       0       0       0       0       0       0       0
       0       0       0       0       0       0       0       0       0       0
       0       0       0       0       0       0       0       0       0       0
       0       0       0       0       0       0       0       0       0       0
       0       0       0       0       0       0       0       0       0       0
       0       0       0       0       0       0       0       0       0       0
       0       0       0       0       0       0       0       0       0       0
       0       0       0       0       0       0       0       0       0       0
       0       0       0       0       0       0       0       0       0       0
       0       0       0       0       0       0       0       0       0       0
       0       0       0       0       0       0       0       0       0       0
       0       0       0       0       0       0       0       0       0       0
       0       0       0       0       0       0       0       0       0       0
       0       0       0       0       0       0       0       0       0       0
       0       0       0       0       0       0       0       0       0       0
       0       0       0       0       0       0       0       0       0       0
       0       0       0       0       0       0       0       0       0       0
       0       0       0       0       0       0       0       0       0       0
       0       0       0       0       0       0       0       0       0       0
       0       0       0       0       0       0       0       0       0       0
       0       0       0       0       0       0       0       0       0       0
       0       0       0       0       0       0       0       0       0       0
       0       0       0       0       0       0       0       0       0       0
       0       0       0       0       0       0       0       0       0       0
       0       0       0       0       0       0       0       0       0       0
       0       0       0       0       0       0       0       0       0       0
       0       0       0       0       0       0       0       0       0       0
       0       0       0       0       0       0       0       0       0       0
       0       0       0       0       0       0       0       0       0       0
       0       0       0       0       0       0       0       0       0       0
       0       0       0       0       0       0       0       0       0       0
       0       0       0       0       0       0       0       0       0       0
       0       0       0       0       0       0       0       0       0       0
       0       0       0       0       0       0       0       0       0       0
       0       0       0       0       0       0       0       0       0       0
       0       0       0       0       0       0       0       0       0       0
       0       0       0       0       0       0       0       0       0       0
       0       0       0       0       0       0       0       0       0       0
       0       0       0       0       0       0       0       0       0       0
       0       0       0       0       0       0       0       0       0       0
       0       0       0       0       0       0       0       0       0       0
       0       0       0       0       0       0       0       0       0       0
       0       0       0       0       0       0       0       0       0       0
       0       0       0       0       0       0       0       0       0       0
       0       0       0       0       0       0       0       0       0       0
       0       0       0       0       0       0       0       0       0       0
       0       0       0       0       0       0       0       0       0       0
       0       0       0       0       0       0       0       0       0       0
       0       0       0       0       0       0       0       0       0       0
       0       0       0       0       0       0       0       0       0       0
       0       0       0       0       0       0       0       0       0       0
       0       0       0       0       0       0       0       0       0       0
       0       0       0       0       0       0       0       0       0       0
       0       0       0       0       0       0       0       0       0       0
       0       0       0       0       0       0       0       0       0       0
       0       0       0       0       0       0       0       0       0       0
       0       0       0       0       0       0       0       0       0       0
       0       0       0       0       0       0       0       0       0       0
       0       0       0       0       0       0       0       0       0       0
       0       0       0       0       0       0       0       0       0       0
       0       0       0       0       0       0       0       0       0       0
       0       0       0       0       0       0       0       0       0       0
       0       0       0       0       0       0       0       0       0       0
       0       0       0       0       0       0       0       0       0       0
       0       0       0       0       0       0       0       0       0       0
       0       0       0       0       0       0       0       0       0       0
       0       0       0       0       0       0       0       0       0       0
       0       0       0       0       0       0       0       0       0       0
       0       0       0       0       0       0       0       0       0       0
       0       0       0       0       0       0       0       0       0       0
       0       0       0       0       0       0       0       0       0       0
       0       0       0       0       0       0       0       0       0       0
       0       0       0       0       0       0       0       0       0       0
       0       0       0       0       0       0       0       0       0       0
       0       0       0       0       0       0       0       0       0       0
       0       0       0       0       0       0       0       0       0       0
       0       0       0       0       0       0       0       0       0       0
       0       0       0       0       0       0       0       0       0       0
       0       0       0       0       0       0       0       0       0       0
       0       0       0       0       0       0       0       0       0       0
       0       0       0       0       0       0       0       0       0       0
       0       0       0       0       0       0       0       0       0       0
       0       0       0       0       0       0       0       0       0       0
       0       0       0       0       0       0       0       0       0       0
       0       0       0       0       0       0       0       0       0       0
       0       0       0       0       0       0       0       0       0       0
       0       0       0       0       0       0       0       0       0       0
       0       0       0       0       0       0       0       0       0       0
       0       0       0       0       0       0       0       0       0       0
       0       0       0       0       0       0       0       0       0       0
       0       0       0       0       0       0       0       0       0       0
       0       0       0       0       0       0       0       0       0       0
       0       0       0       0       0       0       0       0       0       0
       0       0       0       0       0       0       0       0       0       0
       0       0       0       0       0       0       0       0       0       0
       0       0       0       0       0       0       0       0       0       0
       0       0       0       0       0       0       0       0       0       0
       0       0       0       0       0       0       0       0       0       0
       0       0       0       0       0       0       0       0       0       0
       0       0       0       0       0       0       0       0       0       0
       0       0       0       0       0       0       0       0       0       0
       0       0       0       0       0       0       0       0       0       0
       0       0       0       0       0       0       0       0       0       0
       0       0       0       0       0       0       0       0       0       0
       0       0       0       0       0       0       0       0       0       0
       0       0       0       0       0       0       0       0       0       0
       0       0       0       0       0       0       0       0       0       0
       0       0       0       0       0       0       0       0       0       0
       0       0       0       0       0       0       0       0       0       0
       0       0       0       0       0       0       0       0       0       0
       0       0       0       0       0       0       0       0       0       0
       0       0       0       0       0       0       0       0       0       0
       0       0       0       0       0       0       0       0       0       0
       0       0       0       0       0       0       0       0       0       0
       0       0       0       0       0       0       0       0       0       0
       0       0       0       0       0       0       0       0       0       0
       0       0       0       0       0       0       0       0       0       0
       0       0       0       0       0       0       0       0       0       0
       0       0       0       0       0       0       0       0       0       0
       0       0       0       0       0       0       0       0       0       0
       0       0       0       0       0       0       0       0       0       0
       0       0       0       0       0       0       0       0       0       0
       0       0       0       0       0       0       0       0       0       0
       0       0       0       0       0       0       0       0       0       0
       0       0       0       0       0       0       0       0       0       0
       0       0       0       0       0       0       0       0       0       0
       0       0       0       0       0       0       0       0       0       0
       0       0       0       0       0       0       0       0       0       0
       0       0       0       0       0       0       0       0       0       0
       0       0       0       0       0       0       0       0       0       0
       0       0       0       0       0       0       0       0       0       0
       0       0       0       0       0       0       0       0       0       0
       0       0       0       0       0       0       0       0       0       0
       0       0       0       0       0       0       0       0       0       0
       0       0       0       0       0       0       0       0       0       0
       0       0       0       0       0       0       0       0       0       0
       0       0       0       0       0       0       0       0       0       0
       0       0       0       0       0       0       0       0       0       0
       0       0       0       0       0       0       0       0       0       0
       0       0       0       0       0       0       0       0       0       0
       0       0       0       0       0       0       0       0       0       0
       0       0       0       0       0       0       0       0       0       0
       0       0       0       0       0       0       0       0       0       0
       0       0       0       0       0       0       0       0       0       0
       0       0       0       0       0       0       0       0       0       0
       0       0       0       0       0       0       0       0       0       0
       0       0       0       0       0       0       0       0       0       0
       0       0       0       0       0       0       0       0       0       0
       0       0       0       0       0       0       0       0       0       0
       0       0       0       0       0       0       0       0       0       0
       0       0       0       0       0       0       0       0       0       0
       0       0       0       0       0       0       0       0       0       0
       0       0       0       0       0       0       0       0       0       0
       0       0       0       0       0       0       0       0       0       0
       0       0       0       0       0       0       0       0       0       0
       0       0       0       0       0       0       0       0       0       0
       0       0       0       0       0       0       0       0       0       0
       0       0       0       0       0       0       0       0       0       0
       0       0       0       0       0       0       0       0       0       0
       0       0       0       0       0       0       0       0       0       0
       0       0       0       0       0       0       0       0       0       0
       0       0       0       0       0       0       0       0       0       0
       0       0       0       0       0       0       0       0       0       0
       0       0       0       0       0       0       0       0       0       0
       0       0       0       0       0       0       0       0       0       0
       0       0       0       0       0       0       0       0       0       0
       0       0       0       0       0       0       0       0       0       0
       0       0       0       0       0       0       0       0       0       0
       0       0       0       0       0       0       0       0       0       0
       0       0       0       0       0       0       0       0       0       0
       0       0       0       0       0       0       0       0       0       0
       0       0       0       0       0       0       0       0       0       0
       0       0       0       0       0       0       0       0       0       0
       0       0       0       0       0       0       0       0       0       0
       0       0       0       0       0       0       0       0       0       0
       0       0       0       0       0       0       0       0       0       0
       0       0       0       0       0       0       0       0       0       0
       0       0       0       0       0       0       0       0       0       0
       0       0       0       0       0       0       0       0       0       0
       0       0       0       0       0       0       0       0       0       0
       0       0       0       0       0       0       0       0       0       0
       0       0       0       0       0       0       0       0       0       0
       0       0       0       0       0       0       0       0       0       0
       0       0       0       0       0       0       0       0       0       0
       0       0       0       0       0       0       0       0       0       0
       0       0       0       0       0       0       0       0       0       0
       0       0       0       0       0       0       0       0       0       0
       0       0       0       0       0       0       0       0       0       0
       0       0       0       0       0       0       0       0       0       0
       0       0       0       0       0       0       0       0       0       0
       0       0       0       0       0       0       0       0       0       0
       0       0       0       0       0       0       0       0       0       0
       0       0       0       0       0       0       0       0       0       0
       0       0       0       0       0       0       0       0       0       0
       0       0       0       0       0       0       0       0       0       0
       0       0       0       0       0       0       0       0       0       0
       0       0       0       0       0       0       0       0       0       0
       0       0       0       0       0       0       0       0       0       0
       0       0       0       0       0       0       0       0       0       0
       0       0       0       0       0       0       0       0       0       0
       0       0       0       0       0       0       0       0       0       0
       0       0       0       0       0       0       0       0       0       0
       0       0       0       0       0       0       0       0       0       0
       0       0       0       0       0       0       0       0       0       0
       0       0       0       0       0       0       0       0       0       0
       0       0       0       0       0       0       0       0       0       0
       0       0       0       0       0       0       0       0       0       0
       0       0       0       0       0       0       0       0       0       0
       0       0       0       0       0       0       0       0       0       0
       0       0       0       0       0       0       0       0       0       0
       0       0       0       0       0       0       0       0       0       0
       0       0       0       0       0       0       0       0       0       0
       0       0       0       0       0       0       0       0       0       0
       0       0       0       0       0       0       0       0       0       0
       0       0       0       0       0       0       0       0       0       0
       0       0       0       0       0       0       0       0       0       0
       0       0       0       0       0       0       0       0       0       0
       0       0       0       0       0       0       0       0       0       0
       0       0       0       0       0       0       0       0       0       0
       0       0       0       0       0       0       0       0       0       0
       0       0       0       0       0       0       0       0       0       0
       0       0       0       0       0       0       0       0       0       0
       0       0       0       0       0       0       0       0       0       0
       0       0       0       0       0       0       0       0       0       0
       0       0       0       0       0       0       0       0       0       0
       0       0       0       0       0       0       0       0       0       0
       0       0       0       0       0       0       0       0       0       0
       0       0       0       0       0       0       0       0       0       0
       0       0       0       0       0       0       0       0       0       0
       0       0       0       0       0       0       0       0       0       0
       0       0       0       0       0       0       0       0       0       0
       0       0       0       0       0       0       0       0       0       0
       0       0       0       0       0       0       0       0       0       0
       0       0       0       0       0       0       0       0       0       0
       0       0       0       0       0       0       0       0       0       0
       0       0       0       0       0       0       0       0       0       0
       0       0       0       0       0       0       0       0       0       0
       0       0       0       0       0       0       0       0       0       0
       0       0       0       0       0       0       0       0       0       0
       0       0       0       0       0       0       0       0       0       0
       0       0       0       0       0       0       0       0       0       0
       0       0       0       0       0       0       0       0       0       0
       0       0       0       0       0       0       0       0       0       0
       0       0       0       0       0       0       0       0       0       0
       0       0       0       0       0       0       0       0       0       0
       0       0       0       0       0       0       0       0       0       0
       0       0       0       0       0       0       0       0       0       0
       0       0       0       0       0       0       0       0       0       0
       0       0       0       0       0       0       0       0       0       0
       0       0       0       0       0       0       0       0       0       0
       0       0       0       0       0       0       0       0       0       0
       0       0       0       0       0       0       0       0       0       0
       0       0       0       0       0       0       0       0       0       0
       0       0       0       0       0       0       0       0       0       0
       0       0       0       0       0       0       0       0       0       0
       0       0       0       0       0       0       0       0       0       0
       0       0       0       0       0       0       0       0       0       0
       0       0       0       0       0       0       0       0       0       0
       0       0       0       0       0       0       0       0       0       0
       0       0       0       0       0       0       0       0       0       0
       0       0       0       0       0       0       0       0       0       0
       0       0       0       0       0       0       0       0       0       0
       0       0       0       0       0       0       0       0       0       0
       0       0       0       0       0       0       0       0       0       0
       0       0       0       0       0       0       0       0       0       0
       0       0       0       0       0       0       0       0       0       0
       0       0       0       0       0       0       0       0       0       0
       0       0       0       0       0       0       0       0       0       0
       0       0       0       0       0       0       0       0       0       0
       0       0       0       0       0       0       0       0       0       0
       0       0       0       0       0       0       0       0       0       0
       0       0       0       0       0       0       0       0       0       0
       0       0       0       0       0       0       0       0       0       0
       0       0       0       0       0       0       0       0       0       0
       0       0       0       0       0       0       0       0       0       0
       0       0       0       0       0       0       0       0       0       0
       0       0       0       0       0       0       0       0       0       0
       0       0       0       0       0       0       0       0       0       0
       0       0       0       0       0       0       0       0       0       0
       0       0       0       0       0       0       0       0       0       0
       0       0       0       0       0       0       0       0       0       0
       0       0       0       0       0       0       0       0       0       0
       0       0       0       0       0       0       0       0       0       0
       0       0       0       0       0       0       0       0       0       0
       0       0       0       0       0       0       0       0       0       0
       0       0       0       0       0       0       0       0       0       0
       0       0       0       0       0       0       0       0       0       0
       0       0       0       0       0       0       0       0       0       0
       0       0       0       0       0       0       0       0       0       0
       0       0       0       0       0       0       0       0       0       0
       0       0       0       0       0       0       0       0       0       0
       0       0       0       0       0       0       0       0       0       0
       0       0       0       0       0       0       0       0       0       0
       0       0       0       0       0       0       0       0       0       0
       0       0       0       0       0       0       0       0       0       0
       0       0       0       0       0       0       0       0       0       0
       0       0       0       0       0       0       0       0       0       0
       0       0       0       0       0       0       0       0       0       0
       0       0       0       0       0       0       0       0       0       0
       0       0       0       0       0       0       0       0       0       0
       0       0       0       0       0       0       0       0       0       0
       0       0       0       0       0       0       0       0       0       0
       0       0       0       0       0       0       0       0       0       0
       0       0       0       0       0       0       0       0       0       0
       0       0       0       0       0       0       0       0       0       0
       0       0       0       0       0       0       0       0       0       0
       0       0       0       0       0       0       0       0       0       0
       0       0       0       0       0       0       0       0       0       0
       0       0       0       0       0       0       0       0       0       0
       0       0       0       0       0       0       0       0       0       0
       0       0       0       0       0       0       0       0       0       0
       0       0       0       0       0       0       0       0       0       0
       0       0       0       0       0       0       0       0       0       0
       0       0       0       0       0       0       0       0       0       0
       0       0       0       0       0       0       0       0       0       0
       0       0       0       0       0       0       0       0       0       0
       0       0       0       0       0       0       0       0       0       0
       0       0       0       0       0       0       0       0       0       0
       0       0       0       0       0       0       0       0       0       0
       0       0       0       0       0       0       0       0       0       0
       0       0       0       0       0       0       0       0       0       0
       0       0       0       0       0       0       0       0       0       0
       0       0       0       0       0       0       0       0       0       0
       0       0       0       0       0       0       0       0       0       0
       0       0       0       0       0       0       0       0       0       0
       0       0       0       0       0       0       0       0       0       0
       0       0       0       0       0       0       0       0       0       0
       0       0       0       0       0       0       0       0       0       0
       0       0       0       0       0       0       0       0       0       0
       0       0       0       0       0       0       0       0       0       0
       0       0       0       0       0       0       0       0       0       0
       0       0       0       0       0       0       0       0       0       0
       0       0       0       0       0       0       0       0       0       0
       0       0       0       0       0       0       0       0       0       0
       0       0       0       0       0       0       0       0       0       0
       0       0       0       0       0       0       0       0       0       0
       0       0       0       0       0       0       0       0       0       0
       0       0       0       0       0       0       0       0       0       0
       0       0       0       0       0       0       0       0       0       0
       0       0       0       0       0       0       0       0       0       0
       0       0       0       0       0       0       0       0       0       0
       0       0       0       0       0       0       0       0       0       0
       0       0       0       0       0       0       0       0       0       0
       0       0       0       0       0       0       0       0       0       0
       0       0       0       0       0       0       0       0       0       0
       0       0       0       0       0       0       0       0       0       0
       0       0       0       0       0       0       0       0       0       0
       0       0       0       0       0       0       0       0       0       0
       0       0       0       0       0       0       0       0       0       0
       0       0       0       0       0       0       0       0       0       0
       0       0       0       0       0       0       0       0       0       0
       0       0       0       0       0       0       0       0       0       0
       0       0       0       0       0       0       0       0       0       0
       0       0       0       0       0       0       0       0       0       0
       0       0       0       0       0       0       0       0       0       0
       0       0       0       0       0       0       0       0       0       0
       0       0       0       0       0       0       0       0       0       0
       0       0       0       0       0       0       0       0       0       0
       0       0       0       0       0       0       0       0       0       0
       0       0       0       0       0       0       0       0       0       0
       0       0       0       0       0       0       0       0       0       0
       0       0       0       0       0       0       0       0       0       0
       0       0       0       0       0       0       0       0       0       0
       0       0       0       0       0       0       0       0       0       0
       0       0       0       0       0       0       0       0       0       0
       0       0       0       0       0       0       0       0       0       0
       0       0       0       0       0       0       0       0       0       0
       0       0       0       0       0       0       0       0       0       0
       0       0       0       0       0       0       0       0       0       0
       0       0       0       0       0       0       0       0       0       0
       0       0       0       0       0       0       0       0       0       0
       0       0       0       0       0       0       0       0       0       0
       0       0       0       0       0       0       0       0       0       0
       0       0       0       0       0       0       0       0       0       0
       0       0       0       0       0       0       0       0       0       0
       0       0       0       0       0       0       0       0       0       0
       0       0       0       0       0       0       0       0       0       0
       0       0       0       0       0       0       0       0       0       0
       0       0       0       0       0       0       0       0       0       0
       0       0       0       0       0       0       0       0       0       0
       0       0       0       0       0       0       0       0       0       0
       0       0       0       0       0       0       0       0       0       0
       0       0       0       0       0       0       0       0       0       0
       0       0       0       0       0       0       0       0       0       0
       0       0       0       0       0       0       0       0       0       0
       0       0       0       0       0       0       0       0       0       0
       0       0       0       0       0       0       0       0       0       0
       0       0       0       0       0       0       0       0       0       0
       0       0       0       0       0       0       0       0       0       0
       0       0       0       0       0       0       0       0       0       0
       0       0       0       0       0       0       0       0       0       0
       0       0       0       0       0       0       0       0       0       0
       0       0       0       0       0       0       0       0       0       0
       0       0       0       0       0       0       0       0       0       0
       0       0       0       0       0       0       0       0       0       0
       0       0       0       0       0       0       0       0       0       0
       0       0       0       0       0       0       0       0       0       0
       0       0       0       0       0       0       0       0       0       0
       0       0       0       0       0       0       0       0       0       0
       0       0       0       0       0       0       0       0       0       0
       0       0       0       0       0       0       0       0       0       0
       0       0       0       0       0       0       0       0       0       0
       0       0       0       0       0       0       0       0       0       0
       0       0       0       0       0       0       0       0       0       0
       0       0       0       0       0       0       0       0       0       0
       0       0       0       0       0       0       0       0       0       0
       0       0       0       0       0       0       0       0       0       0
       0       0       0       0       0       0       0       0       0       0
       0       0       0       0       0       0       0       0       0       0
       0       0       0       0       0       0       0       0       0       0
       0       0       0       0       0       0       0       0       0       0
       0       0       0       0       0       0       0       0       0       0
       0       0       0       0       0       0       0       0       0       0
       0       0       0       0       0       0       0       0       0       0
       0       0       0       0       0       0       0       0       0       0
       0       0       0       0       0       0       0       0       0       0
       0       0       0       0       0       0       0       0       0       0
       0       0       0       0       0       0       0       0       0       0
       0       0       0       0       0       0       0       0       0       0
       0       0       0       0       0       0       0       0       0       0
       0       0       0       0       0       0       0       0       0       0
       0       0       0       0       0       0       0       0       0       0
       0       0       0       0       0       0       0       0       0       0
       0       0       0       0       0       0       0       0       0       0
       0       0       0       0       0       0       0       0       0       0
       0       0       0       0       0       0       0       0       0       0
       0       0       0       0       0       0       0       0       0       0
       0       0       0       0       0       0       0       0       0       0
       0       0       0       0       0       0       0       0       0       0
       0       0       0       0       0       0       0       0       0       0
       0       0       0       0       0       0       0       0       0       0
       0       0       0       0       0       0       0       0       0       0
       0       0       0       0       0       0       0       0       0       0
       0       0       0       0       0       0       0       0       0       0
       0       0       0       0       0       0       0       0       0       0
       0       0       0       0       0       0       0       0       0       0
       0       0       0       0       0       0       0       0       0       0
       0       0       0       0       0       0       0       0       0       0
       0       0       0       0       0       0       0       0       0       0
       0       0       0       0       0       0       0       0       0       0
       0       0       0       0       0       0       0       0       0       0
       0       0       0       0       0       0       0       0       0       0
       0       0       0       0       0       0       0       0       0       0
       0       0       0       0       0       0       0       0       0       0
       0       0       0       0       0       0       0       0       0       0
       0       0       0       0       0       0       0       0       0       0
       0       0       0       0       0       0       0       0       0       0
       0       0       0       0       0       0       0       0       0       0
       0       0       0       0       0       0       0       0       0       0
       0       0       0       0       0       0       0       0       0       0
       0       0       0       0       0       0       0       0       0       0
       0       0       0       0       0       0       0       0       0       0
       0       0       0       0       0       0       0       0       0       0
       0       0       0       0       0       0       0       0       0       0
       0       0       0       0       0       0       0       0       0       0
       0       0       0       0       0       0       0       0       0       0
       0       0       0       0       0       0       0       0       0       0
       0       0       0       0       0       0       0       0       0       0
       0       0       0       0       0       0       0       0       0       0
       0       0       0       0       0       0       0       0       0       0
       0       0       0       0       0       0       0       0       0       0
       0       0       0       0       0       0       0       0       0       0
       0       0       0       0       0       0       0       0       0       0
       0       0       0       0       0       0       0       0       0       0
       0       0       0       0       0       0       0       0       0       0
       0       0       0       0       0       0       0       0       0       0
       0       0       0       0       0       0       0       0       0       0
       0       0       0       0       0       0       0       0       0       0
       0       0       0       0       0       0       0       0       0       0
       0       0       0       0       0       0       0       0       0       0
       0       0       0       0       0       0       0       0       0       0
       0       0       0       0       0       0       0       0       0       0
       0       0       0       0       0       0       0       0       0       0
       0       0       0       0       0       0       0       0       0       0
       0       0       0       0       0       0       0       0       0       0
       0       0       0       0       0       0       0       0       0       0
       0       0       0       0       0       0       0       0       0       0
       0       0       0       0       0       0       0       0       0       0
       0       0       0       0       0       0       0       0       0       0
       0       0       0       0       0       0       0       0       0       0
       0       0       0       0       0       0       0       0       0       0
       0       0       0       0       0       0       0       0       0       0
       0       0       0       0       0       0       0       0       0       0
       0       0       0       0       0       0       0       0       0       0
       0       0       0       0       0       0       0       0       0       0
       0       0       0       0       0       0       0       0       0       0
       0       0       0       0       0       0       0       0       0       0
       0       0       0       0       0       0       0       0       0       0
       0       0       0       0       0       0       0       0       0       0
       0       0       0       0       0       0       0       0       0       0
       0       0       0       0       0       0       0       0       0       0
       0       0       0       0       0       0       0       0       0       0
       0       0       0       0       0       0       0       0       0       0
       0       0       0       0       0       0       0       0       0       0
       0       0       0       0       0       0       0       0       0       0
       0       0       0       0       0       0       0       0       0       0
       0       0       0       0       0       0       0       0       0       0
       0       0       0       0       0       0       0       0       0       0
       0       0       0       0       0       0       0       0       0       0
       0       0       0       0       0       0       0       0       0       0
       0       0       0       0       0       0       0       0       0       0
       0       0       0       0       0       0       0       0       0       0
       0       0       0       0       0       0       0       0       0       0
       0       0       0       0       0       0       0       0       0       0
       0       0       0       0       0       0       0       0       0       0
       0       0       0       0       0       0       0       0       0       0
       0       0       0       0       0       0       0       0       0       0
       0       0       0       0       0       0       0       0       0       0
       0       0       0       0       0       0       0       0       0       0
       0       0       0       0       0       0       0       0       0       0
       0       0       0       0       0       0       0       0       0       0
       0       0       0       0       0       0       0       0       0       0
       0       0       0       0       0       0       0       0       0       0
       0       0       0       0       0       0       0       0       0       0
       0       0       0       0       0       0       0       0       0       0
       0       0       0       0       0       0       0       0       0       0
       0       0       0       0       0       0       0       0       0       0
       0       0       0       0       0       0       0       0       0       0
       0       0       0       0       0       0       0       0       0       0
       0       0       0       0       0       0       0       0       0       0
       0       0       0       0       0       0       0       0       0       0
       0       0       0       0       0       0       0       0       0       0
       0       0       0       0       0       0       0       0       0       0
       0       0       0       0       0       0       0       0       0       0
       0       0       0       0       0       0       0       0       0       0
       0       0       0       0       0       0       0       0       0       0
       0       0       0       0       0       0       0       0       0       0
       0       0       0       0       0       0       0       0       0       0
       0       0       0       0       0       0       0       0       0       0
       0       0       0       0       0       0       0       0       0       0
       0       0       0       0       0       0       0       0       0       0
       0       0       0       0       0       0       0       0       0       0
       0       0       0       0       0       0       0       0       0       0
       0       0       0       0       0       0       0       0       0       0
       0       0       0       0       0       0       0       0       0       0
       0       0       0       0       0       0       0       0       0       0
       0       0       0       0       0       0       0       0       0       0
       0       0       0       0       0       0       0       0       0       0
       0       0       0       0       0       0       0       0       0       0
       0       0       0       0       0       0       0       0       0       0
       0       0       0       0       0       0       0       0       0       0
       0       0       0       0       0       0       0       0       0       0
       0       0       0       0       0       0       0       0       0       0
       0       0       0       0       0       0       0       0       0       0
       0       0       0       0       0       0       0       0       0       0
       0       0       0       0       0       0       0       0       0       0
       0       0       0       0       0       0       0       0       0       0
       0       0       0       0       0       0       0       0       0       0
       0       0       0       0       0       0       0       0       0       0
       0       0       0       0       0       0       0       0       0       0
       0       0       0       0       0       0       0       0       0       0
       0       0       0       0       0       0       0       0       0       0
       0       0       0       0       0       0       0       0       0       0
       0       0       0       0       0       0       0       0       0       0
       0       0       0       0       0       0       0       0       0       0
       0       0       0       0       0       0       0       0       0       0
       0       0       0       0       0       0       0       0       0       0
       0       0       0       0       0       0       0       0       0       0
       0       0       0       0       0       0       0       0       0       0
       0       0       0       0       0       0       0       0       0       0
       0       0       0       0       0       0       0       0       0       0
       0       0       0       0       0       0       0       0       0       0
       0       0       0       0       0       0       0       0       0       0
       0       0       0       0       0       0       0       0       0       0
       0       0       0       0       0       0       0       0       0       0
       0       0       0       0       0       0       0       0       0       0
       0       0       0       0       0       0       0       0       0       0
       0       0       0       0       0       0       0       0       0       0
       0       0       0       0       0       0       0       0       0       0
       0       0       0       0       0       0       0       0       0       0
       0       0       0       0       0       0       0       0       0       0
       0       0       0       0       0       0       0       0       0       0
       0       0       0       0       0       0       0       0       0       0
       0       0       0       0       0       0       0       0       0       0
       0       0       0       0       0       0       0       0       0       0
       0       0       0       0       0       0       0       0       0       0
       0       0       0       0       0       0       0       0       0       0
       0       0       0       0       0       0       0       0       0       0
       0       0       0       0       0       0       0       0       0       0
       0       0       0       0       0       0       0       0       0       0
       0       0       0       0       0       0       0       0       0       0
       0       0       0       0       0       0       0       0       0       0
       0       0       0       0       0       0       0       0       0       0
       0       0       0       0       0       0       0       0       0       0
       0       0       0       0       0       0       0       0       0       0
       0       0       0       0       0       0       0       0       0       0
       0       0       0       0       0       0       0       0       0       0
       0       0       0       0       0       0       0       0       0       0
       0       0       0       0       0       0       0       0       0       0
       0       0       0       0       0       0       0       0       0       0
       0       0       0       0       0       0       0       0       0       0
       0       0       0       0       0       0       0       0       0       0
       0       0       0       0       0       0       0       0       0       0
       0       0       0       0       0       0       0       0       0       0
       0       0       0       0       0       0       0       0       0       0
       0       0       0       0       0       0       0       0       0       0
       0       0       0       0       0       0       0       0       0       0
       0       0       0       0       0       0       0       0       0       0
       0       0       0       0       0       0       0       0       0       0
       0       0       0       0       0       0       0       0       0       0
       0       0       0       0       0       0       0       0       0       0
       0       0       0       0       0       0       0       0       0       0
       0       0       0       0       0       0       0       0       0       0
       0       0       0       0       0       0       0       0       0       0
       0       0       0       0       0       0       0       0       0       0
       0       0       0       0       0       0       0       0       0       0
       0       0       0       0       0       0       0       0       0       0
       0       0       0       0       0       0       0       0       0       0
       0       0       0       0       0       0       0       0       0       0
       0       0       0       0       0       0       0       0       0       0
       0       0       0       0       0       0       0       0       0       0
       0       0       0       0       0       0       0       0       0       0
       0       0       0       0       0       0       0       0       0       0
       0       0       0       0       0       0       0       0       0       0
       0       0       0       0       0       0       0       0       0       0
       0       0       0       0       0       0       0       0       0       0
       0       0       0       0       0       0       0       0       0       0
       0       0       0       0       0       0       0       0       0       0
       0       0       0       0       0       0       0       0       0       0
       0       0       0       0       0       0       0       0       0       0
       0       0       0       0       0       0       0       0       0       0
       0       0       0       0       0       0       0       0       0       0
       0       0       0       0       0       0       0       0       0       0
       0       0       0       0       0       0       0       0       0       0
       0       0       0       0       0       0       0       0       0       0
       0       0       0       0       0       0       0       0       0       0
       0       0       0       0       0       0       0       0       0       0
       0       0       0       0       0       0       0       0       0       0
       0       0       0       0       0       0       0       0       0       0
       0       0       0       0       0       0       0       0       0       0
       0       0       0       0       0       0       0       0       0       0
       0       0       0       0       0       0       0       0       0       0
       0       0       0       0       0       0       0       0       0       0
       0       0       0       0       0       0       0       0       0       0
       0       0       0       0       0       0       0       0       0       0
       0       0       0       0       0       0       0       0       0       0
       0       0       0       0       0       0       0       0       0       0
       0       0       0       0       0       0       0       0       0       0
       0       0       0       0       0       0       0       0       0       0
       0       0       0       0       0       0       0       0       0       0
       0       0       0       0       0       0       0       0       0       0
       0       0       0       0       0       0       0       0       0       0
       0       0       0       0       0       0       0       0       0       0
       0       0       0       0       0       0       0       0       0       0
       0       0       0       0       0       0       0       0       0       0
       0       0       0       0       0       0       0       0       0       0
       0       0       0       0       0       0       0       0       0       0
       0       0       0       0       0       0       0       0       0       0
       0       0       0       0       0       0       0       0       0       0
       0       0       0       0       0       0       0       0       0       0
       0       0       0       0       0       0       0       0       0       0
       0       0       0       0       0       0       0       0       0       0
       0       0       0       0       0       0       0       0       0       0
       0       0       0       0       0       0       0       0       0       0
       0       0       0       0       0       0       0       0       0       0
       0       0       0       0       0       0       0       0       0       0
       0       0       0       0       0       0       0       0       0       0
       0       0       0       0       0       0       0       0       0       0
       0       0       0       0       0       0       0       0       0       0
       0       0       0       0       0       0       0       0       0       0
       0       0       0       0       0       0       0       0       0       0
       0       0       0       0       0       0       0       0       0       0
       0       0       0       0       0       0       0       0       0       0
       0       0       0       0       0       0       0       0       0       0
       0       0       0       0       0       0       0       0       0       0
       0       0       0       0       0       0       0       0       0       0
       0       0       0       0       0       0       0       0       0       0
       0       0       0       0       0       0       0       0       0       0
       0       0       0       0       0       0       0       0       0       0
       0       0       0       0       0       0       0       0       0       0
       0       0       0       0       0       0       0       0       0       0
       0       0       0       0       0       0       0       0       0       0
       0       0       0       0       0       0       0       0       0       0
       0       0       0       0       0       0       0       0       0       0
       0       0       0       0       0       0       0       0       0       0
       0       0       0       0       0       0       0       0       0       0
       0       0       0       0       0       0       0       0       0       0
       0       0       0       0       0       0       0       0       0       0
       0       0       0       0       0       0       0       0       0       0
       0       0       0       0       0       0       0       0       0       0
       0       0       0       0       0       0       0       0       0       0
       0       0       0       0       0       0       0       0       0       0
       0       0       0       0       0       0       0       0       0       0
       0       0       0       0       0       0       0       0       0       0
       0       0       0       0       0       0       0       0       0       0
       0       0       0       0       0       0       0       0       0       0
       0       0       0       0       0       0       0       0       0       0
       0       0       0       0       0       0       0       0       0       0
       0       0       0       0       0       0       0       0       0       0
       0       0       0       0       0       0       0       0       0       0
       0       0       0       0       0       0       0       0       0       0
       0       0       0       0       0       0       0       0       0       0
       0       0       0       0       0       0       0       0       0       0
       0       0       0       0       0       0       0       0       0       0
       0       0       0       0       0       0       0       0       0       0
       0       0       0       0       0       0       0       0       0       0
       0       0       0       0       0       0       0       0       0       0
       0       0       0       0       0       0       0       0       0       0
       0       0       0       0       0       0       0       0       0       0
       0       0       0       0       0       0       0       0       0       0
       0       0       0       0       0       0       0       0       0       0
       0       0       0       0       0       0       0       0       0       0
       0       0       0       0       0       0       0       0       0       0
       0       0       0       0       0       0       0       0       0       0
       0       0       0       0       0       0       0       0       0       0
       0       0       0       0       0       0       0       0       0       0
       0       0       0       0       0       0       0       0       0       0
       0       0       0       0       0       0       0       0       0       0
       0       0       0       0       0       0       0       0       0       0
       0       0       0       0       0       0       0       0       0       0
       0       0       0       0       0       0       0       0       0       0
       0       0       0       0       0       0       0       0       0       0
       0       0       0       0       0       0       0       0       0       0
       0       0       0       0       0       0       0       0       0       0
       0       0       0       0       0       0       0       0       0       0
       0       0       0       0       0       0       0       0       0       0
       0       0       0       0       0       0       0       0       0       0
       0       0       0       0       0       0       0       0       0       0
       0       0       0       0       0       0       0       0       0       0
       0       0       0       0       0       0       0       0       0       0
       0       0       0       0       0       0       0       0       0       0
       0       0       0       0       0       0       0       0       0       0
       0       0       0       0       0       0       0       0       0       0
       0       0       0       0       0       0       0       0       0       0
       0       0       0       0       0       0       0       0       0       0
       0       0       0       0       0       0       0       0       0       0
       0       0       0       0       0       0       0       0       0       0
       0       0       0       0       0       0       0       0       0       0
       0       0       0       0       0       0       0       0       0       0
       0       0       0       0       0       0       0       0       0       0
       0       0       0       0       0       0       0       0       0       0
       0       0       0       0       0       0       0       0       0       0
       0       0       0       0       0       0       0       0       0       0
       0       0       0       0       0       0       0       0       0       0
       0       0       0       0       0       0       0       0       0       0
       0       0       0       0       0       0       0       0       0       0
       0       0       0       0       0       0       0       0       0       0
       0       0       0       0       0       0       0       0       0       0
       0       0       0       0       0       0       0       0       0       0
       0       0       0       0       0       0       0       0       0       0
       0       0       0       0       0       0       0       0       0       0
       0       0       0       0       0       0       0       0       0       0
       0       0       0       0       0       0       0       0       0       0
       0       0       0       0       0       0       0       0       0       0
       0       0       0       0       0       0       0       0       0       0
       0       0       0       0       0       0       0       0       0       0
       0       0       0       0       0       0       0       0       0       0
       0       0       0       0       0       0       0       0       0       0
       0       0       0       0       0       0       0       0       0       0
       0       0       0       0       0       0       0       0       0       0
       0       0       0       0       0       0       0       0       0       0
       0       0       0       0       0       0       0       0       0       0
       0       0       0       0       0       0       0       0       0       0
       0       0       0       0       0       0       0       0       0       0
       0       0       0       0       0       0       0       0       0       0
       0       0       0       0       0       0       0       0       0       0
       0       0       0       0       0       0       0       0       0       0
       0       0       0       0       0       0       0       0       0       0
       0       0       0       0       0       0       0       0       0       0
       0       0       0       0       0       0       0       0       0       0
       0       0       0       0       0       0       0       0       0       0
       0       0       0       0       0       0       0       0       0       0
       0       0       0       0       0       0       0       0       0       0
       0       0       0       0       0       0       0       0       0       0
       0       0       0       0       0       0       0       0       0       0
       0       0       0       0       0       0       0       0       0       0
       0       0       0       0       0       0       0       0       0       0
       0       0       0       0       0       0       0       0       0       0
       0       0       0       0       0       0       0       0       0       0
       0       0       0       0       0       0       0       0       0       0
       0       0       0       0       0       0       0       0       0       0
       0       0       0       0       0       0       0       0       0       0
       0       0       0       0       0       0       0       0       0       0
       0       0       0       0       0       0       0       0       0       0
       0       0       0       0       0       0       0       0       0       0
       0       0       0       0       0       0       0       0       0       0
       0       0       0       0       0       0       0       0       0       0
       0       0       0       0       0       0       0       0       0       0
       0       0       0       0       0       0       0       0       0       0
       0       0       0       0       0       0       0       0       0       0
       0       0       0       0       0       0       0       0       0       0
       0       0       0       0       0       0       0       0       0       0
       0       0       0       0       0       0       0       0       0       0
       0       0       0       0       0       0       0       0       0       0
       0       0       0       0       0       0       0       0       0       0
       0       0       0       0       0       0       0       0       0       0
       0       0       0       0       0       0       0       0       0       0
       0       0       0       0       0       0       0       0       0       0
       0       0       0       0       0       0       0       0       0       0
       0       0       0       0       0       0       0       0       0       0
       0       0       0       0       0       0       0       0       0       0
       0       0       0       0       0       0       0       0       0       0
       0       0       0       0       0       0       0       0       0       0
       0       0       0       0       0       0       0       0       0       0
       0       0       0       0       0       0       0       0       0       0
       0       0       0       0       0       0       0       0       0       0
       0       0       0       0       0       0       0       0       0       0
       0       0       0       0       0       0       0       0       0       0
       0       0       0       0       0       0       0       0       0       0
       0       0       0       0       0       0       0       0       0       0
       0       0       0       0       0       0       0       0       0       0
       0       0       0       0       0       0       0       0       0       0
       0       0       0       0       0       0       0       0       0       0
       0       0       0       0       0       0       0       0       0       0
       0       0       0       0       0       0       0       0       0       0
       0       0       0       0       0       0       0       0       0       0
       0       0       0       0       0       0       0       0       0       0
       0       0       0       0       0       0       0       0       0       0
       0       0       0       0       0       0       0       0       0       0
       0       0       0       0       0       0       0       0       0       0
       0       0       0       0       0       0       0       0       0       0
       0       0       0       0       0       0       0       0       0       0
       0       0       0       0       0       0       0       0       0       0
       0       0       0       0       0       0       0       0       0       0
       0       0       0       0       0       0       0       0       0       0
       0       0       0       0       0       0       0       0       0       0
       0       0       0       0       0       0       0       0       0       0
       0       0       0       0       0       0       0       0       0       0
       0       0       0       0       0       0       0       0       0       0
       0       0       0       0       0       0       0       0       0       0
       0       0       0       0       0       0       0       0       0       0
       0       0       0       0       0       0       0       0       0       0
       0       0       0       0       0       0       0       0       0       0
       0       0       0       0       0       0       0       0       0       0
       0       0       0       0       0       0       0       0       0       0
       0       0       0       0       0       0       0       0       0       0
       0       0       0       0       0       0       0       0       0       0
       0       0       0       0       0       0       0       0       0       0
       0       0       0       0       0       0       0       0       0       0
       0       0       0       0       0       0       0       0       0       0
       0       0       0       0       0       0       0       0       0       0
       0       0       0       0       0       0       0       0       0       0
       0       0       0       0       0       0       0       0       0       0
       0       0       0       0       0       0       0       0       0       0
       0       0       0       0       0       0       0       0       0       0
       0       0       0       0       0       0       0       0       0       0
       0       0       0       0       0       0       0       0       0       0
       0       0       0       0       0       0       0       0       0       0
       0       0       0       0       0       0       0       0       0       0
       0       0       0       0       0       0       0       0       0       0
       0       0       0       0       0       0       0       0       0       0
       0       0       0       0       0       0       0       0       0       0
       0       0       0       0       0       0       0       0       0       0
       0       0       0       0       0       0       0       0       0       0
       0       0       0       0       0       0       0       0       0       0
       0       0       0       0       0       0       0       0       0       0
       0       0       0       0       0       0       0       0       0       0
       0       0       0       0       0       0       0       0       0       0
       0       0       0       0       0       0       0       0       0       0
       0       0       0       0       0       0       0       0       0       0
       0       0       0       0       0       0       0       0       0       0
       0       0       0       0       0       0       0       0       0       0
       0       0       0       0       0       0       0       0       0       0
       0       0       0       0       0       0       0       0       0       0
       0       0       0       0       0       0       0       0       0       0
       0       0       0       0       0       0       0       0       0       0
       0       0       0       0       0       0       0       0       0       0
       0       0       0       0       0       0       0       0       0       0
       0       0       0       0       0       0       0       0       0       0
       0       0       0       0       0       0       0       0       0       0
       0       0       0       0       0       0       0       0       0       0
       0       0       0       0       0       0       0       0       0       0
       0       0       0       0       0       0       0       0       0       0
       0       0       0       0       0       0       0       0       0       0
       0       0       0       0       0       0       0       0       0       0
       0       0       0       0       0       0       0       0       0       0
       0       0       0       0       0       0       0       0       0       0
       0       0       0       0       0       0       0       0       0       0
       0       0       0       0       0       0       0       0       0       0
       0       0       0       0       0       0       0       0       0       0
       0       0       0       0       0       0       0       0       0       0
       0       0       0       0       0       0       0       0       0       0
       0       0       0       0       0       0       0       0       0       0
       0       0       0       0       0       0       0       0       0       0
       0       0       0       0       0       0       0       0       0       0
       0       0       0       0       0       0       0       0       0       0
       0       0       0       0       0       0       0       0       0       0
       0       0       0       0       0       0       0       0       0       0
       0       0       0       0       0       0       0       0       0       0
       0       0       0       0       0       0       0       0       0       0
       0       0       0       0       0       0       0       0       0       0
       0       0       0       0       0       0       0       0       0       0
       0       0       0       0       0       0       0       0       0       0
       0       0       0       0       0       0       0       0       0       0
       0       0       0       0       0       0       0       0       0       0
       0       0       0       0       0       0       0       0       0       0
       0       0       0       0       0       0       0       0       0       0
       0       0       0       0       0       0       0       0       0       0
       0       0       0       0       0       0       0       0       0       0
       0       0       0       0       0       0       0       0       0       0
       0       0       0       0       0       0       0       0       0       0
       0       0       0       0       0       0       0       0       0       0
       0       0       0       0       0       0       0       0       0       0
       0       0       0       0       0       0       0       0       0       0
       0       0       0       0       0       0       0       0       0       0
       0       0       0       0       0       0       0       0       0       0
       0       0       0       0       0       0       0       0       0       0
       0       0       0       0       0       0       0       0       0       0
       0       0       0       0       0       0       0       0       0       0
       0       0       0       0       0       0       0       0       0       0
       0       0       0       0       0       0       0       0       0       0
       0       0       0       0       0       0       0       0       0       0
       0       0       0       0       0       0       0       0       0       0
       0       0       0       0       0       0       0       0       0       0
       0       0       0       0       0       0       0       0       0       0
       0       0       0       0       0       0       0       0       0       0
       0       0       0       0       0       0       0       0       0       0
       0       0       0       0       0       0       0       0       0       0
       0       0       0       0       0       0       0       0       0       0
       0       0       0       0       0       0       0       0       0       0
       0       0       0       0       0       0       0       0       0       0
       0       0       0       0       0       0       0       0       0       0
       0       0       0       0       0       0       0       0       0       0
       0       0       0       0       0       0       0       0       0       0
       0       0       0       0       0       0       0       0       0       0
       0       0       0       0       0       0       0       0       0       0
       0       0       0       0       0       0       0       0       0       0
       0       0       0       0       0       0       0       0       0       0
       0       0       0       0       0       0       0       0       0       0
       0       0       0       0       0       0       0       0       0       0
       0       0       0       0       0       0       0       0       0       0
       0       0       0       0       0       0       0       0       0       0
       0       0       0       0       0       0       0       0       0       0
       0       0       0       0       0       0       0       0       0       0
       0       0       0       0       0       0       0       0       0       0
       0       0       0       0       0       0       0       0       0       0
       0       0       0       0       0       0       0       0       0       0
       0       0       0       0       0       0       0       0       0       0
       0       0       0       0       0       0       0       0       0       0
       0       0       0       0       0       0       0       0       0       0
       0       0       0       0       0       0       0       0       0       0
       0       0       0       0       0       0       0       0       0       0
       0       0       0       0       0       0       0       0       0       0
       0       0       0       0       0       0       0       0       0       0
       0       0       0       0       0       0       0       0       0       0
       0       0       0       0       0       0       0       0       0       0
       0       0       0       0       0       0       0       0       0       0
       0       0       0       0       0       0       0       0       0       0
       0       0       0       0       0       0       0       0       0       0
       0       0       0       0       0       0       0       0       0       0
       0       0       0       0       0       0       0       0       0       0
       0       0       0       0       0       0       0       0       0       0
       0       0       0       0       0       0       0       0       0       0
       0       0       0       0       0       0       0       0       0       0
       0       0       0       0       0       0       0       0       0       0
       0       0       0       0       0       0       0       0       0       0
       0       0       0       0       0       0       0       0       0       0
       0       0       0       0       0       0       0       0       0       0
       0       0       0       0       0       0       0       0       0       0
       0       0       0       0       0       0       0       0       0       0
       0       0       0       0       0       0       0       0       0       0
       0       0       0       0       0       0       0       0       0       0
       0       0       0       0       0       0       0       0       0       0
       0       0       0       0       0       0       0       0       0       0
       0       0       0       0       0       0       0       0       0       0
       0       0       0       0       0       0       0       0       0       0
       0       0       0       0       0       0       0       0       0       0
       0       0       0       0       0       0       0       0       0       0
       0       0       0       0       0       0       0       0       0       0
       0       0       0       0       0       0       0       0       0       0
       0       0       0       0       0       0       0       0       0       0
       0       0       0       0       0       0       0       0       0       0
       0       0       0       0       0       0       0       0       0       0
       0       0       0       0       0       0       0       0       0       0
       0       0       0       0       0       0       0       0       0       0
       0       0       0       0       0       0       0       0       0       0
       0       0       0       0       0       0       0       0       0       0
       0       0       0       0       0       0       0       0       0       0
       0       0       0       0       0       0       0       0       0       0
       0       0       0       0       0       0       0       0       0       0
       0       0       0       0       0       0       0       0       0       0
       0       0       0       0       0       0       0       0       0       0
       0       0       0       0       0       0       0       0       0       0
       0       0       0       0       0       0       0       0       0       0
       0       0       0       0       0       0       0       0       0       0
       0       0       0       0       0       0       0       0       0       0
       0       0       0       0       0       0       0       0       0       0
       0       0       0       0       0       0       0       0       0       0
       0       0       0       0       0       0       0       0       0       0
       0       0       0       0       0       0       0       0       0       0
       0       0       0       0       0       0       0       0       0       0
       0       0       0       0       0       0       0       0       0       0
       0       0       0       0       0       0       0       0       0       0
       0       0       0       0       0       0       0       0       0       0
       0       0       0       0       0       0       0       0       0       0
       0       0       0       0       0       0       0       0       0       0
       0       0       0       0       0       0       0       0       0       0
       0       0       0       0       0       0       0       0       0       0
       0       0       0       0       0       0       0       0       0       0
       0       0       0       0       0       0       0       0       0       0
       0       0       0       0       0       0       0       0       0       0
       0       0       0       0       0       0       0       0       0       0
       0       0       0       0       0       0       0       0       0       0
       0       0       0       0       0       0       0       0       0       0
       0       0       0       0       0       0       0       0       0       0
       0       0       0       0       0       0       0       0       0       0
       0       0       0       0       0       0       0       0       0       0
       0       0       0       0       0       0       0       0       0       0
       0       0       0       0       0       0       0       0       0       0
       0       0       0       0       0       0       0       0       0       0
       0       0       0       0       0       0       0       0       0       0
       0       0       0       0       0       0       0       0       0       0
       0       0       0       0       0       0       0       0       0       0
       0       0       0       0       0       0       0       0       0       0
       0       0       0       0       0       0       0       0       0       0
       0       0       0       0       0       0       0       0       0       0
       0       0       0       0       0       0       0       0       0       0
       0       0       0       0       0       0       0       0       0       0
       0       0       0       0       0       0       0       0       0       0
       0       0       0       0       0       0       0       0       0       0
       0       0       0       0       0       0       0       0       0       0
       0       0       0       0       0       0       0       0       0       0
       0       0       0       0       0       0       0       0       0       0
       0       0       0       0       0       0       0       0       0       0
       0       0       0       0       0       0       0       0       0       0
       0       0       0       0       0       0       0       0       0       0
       0       0       0       0       0       0       0       0       0       0
       0       0       0       0       0       0       0       0       0       0
       0       0       0       0       0       0       0       0       0       0
       0       0       0       0       0       0       0       0       0       0
       0       0       0       0       0       0       0       0       0       0
       0       0       0       0       0       0       0       0       0       0
       0       0       0       0       0       0       0       0       0       0
       0       0       0       0       0       0       0       0       0       0
       0       0       0       0       0       0       0       0       0       0
       0       0       0       0       0       0       0       0       0       0
       0       0       0       0       0       0       0       0       0       0
       0       0       0       0       0       0       0       0       0       0
       0       0       0       0       0       0       0       0       0       0
       0       0       0       0       0       0       0       0       0       0
       0       0       0       0       0       0       0       0       0       0
       0       0       0       0       0       0       0       0       0       0
       0       0       0       0       0       0       0       0       0       0
       0       0       0       0       0       0       0       0       0       0
       0       0       0       0       0       0       0       0       0       0
       0       0       0       0       0       0       0       0       0       0
       0       0       0       0       0       0       0       0       0       0
       0       0       0       0       0       0       0       0       0       0
       0       0       0       0       0       0       0       0       0       0
       0       0       0       0       0       0       0       0       0       0
       0       0       0       0       0       0       0       0       0       0
       0       0       0       0       0       0       0       0       0       0
       0       0       0       0       0       0       0       0       0       0
       0       0       0       0       0       0       0       0       0       0
       0       0       0       0       0       0       0       0       0       0
       0       0       0       0       0       0       0       0       0       0
       0       0       0       0       0       0       0       0       0       0
       0       0       0       0       0       0       0       0       0       0
       0       0       0       0       0       0       0       0       0       0
       0       0       0       0       0       0       0       0       0       0
       0       0       0       0       0       0       0       0       0       0
       0       0       0       0       0       0       0       0       0       0
       0       0       0       0       0       0       0       0       0       0
       0       0       0       0       0       0       0       0       0       0
       0       0       0       0       0       0       0       0       0       0
       0       0       0       0       0       0       0       0       0       0
       0       0       0       0       0       0       0       0       0       0
       0       0       0       0       0       0       0       0       0       0
       0       0       0       0       0       0       0       0       0       0
       0       0       0       0       0       0       0       0       0       0
       0       0       0       0       0       0       0       0       0       0
       0       0       0       0       0       0       0       0       0       0
       0       0       0       0       0       0       0       0       0       0
       0       0       0       0       0       0       0       0       0       0
       0       0       0       0       0       0       0       0       0       0
       0       0       0       0       0       0       0       0       0       0
       0       0       0       0       0       0       0       0       0       0
       0       0       0       0       0       0       0       0       0       0
       0       0       0       0       0       0       0       0       0       0
       0       0       0       0       0       0       0       0       0       0
       0       0       0       0       0       0       0       0       0       0
       0       0       0       0       0       0       0       0       0       0
       0       0       0       0       0       0       0       0       0       0
       0       0       0       0       0       0       0       0       0       0
       0       0       0       0       0       0       0       0       0       0
       0       0       0       0       0       0       0       0       0       0
       0       0       0       0       0       0       0       0       0       0
       0       0       0       0       0       0       0       0       0       0
       0       0       0       0       0       0       0       0       0       0
       0       0       0       0       0       0       0       0       0       0
       0       0       0       0       0       0       0       0       0       0
       0       0       0       0       0       0       0       0       0       0
       0       0       0       0       0       0       0       0       0       0
       0       0       0       0       0       0       0       0       0       0
       0       0       0       0       0       0       0       0       0       0
       0       0       0       0       0       0       0       0       0       0
       0       0       0       0       0       0       0       0       0       0
       0       0       0       0       0       0       0       0       0       0
       0       0       0       0       0       0       0       0       0       0
       0       0       0       0       0       0       0       0       0       0
       0       0       0       0       0       0       0       0       0       0
       0       0       0       0       0       0       0       0       0       0
       0       0       0       0       0       0       0       0       0       0
       0       0       0       0       0       0       0       0       0       0
       0       0       0       0       0       0       0       0       0       0
       0       0       0       0       0       0       0       0       0       0
       0       0       0       0       0       0       0       0       0       0
       0       0       0       0       0       0       0       0       0       0
       0       0       0       0       0       0       0       0       0       0
       0       0       0       0       0       0       0       0       0       0
       0       0       0       0       0       0       0       0       0       0
       0       0       0       0       0       0       0       0       0       0
       0       0       0       0       0       0       0       0       0       0
       0       0       0       0       0       0       0       0       0       0
       0       0       0       0       0       0       0       0       0       0
       0       0       0       0       0       0       0       0       0       0
       0       0       0       0       0       0       0       0       0       0
       0       0       0       0       0       0       0       0       0       0
       0       0       0       0       0       0       0       0       0       0
       0       0       0       0       0       0       0       0       0       0
       0       0       0       0       0       0       0       0       0       0
       0       0       0       0       0       0       0       0       0       0
       0       0       0       0       0       0       0       0       0       0
       0       0       0       0       0       0       0       0       0       0
       0       0       0       0       0       0       0       0       0       0
       0       0       0       0       0       0       0       0       0       0
       0       0       0       0       0       0       0       0       0       0
       0       0       0       0       0       0       0       0       0       0
       0       0       0       0       0       0       0       0       0       0
       0       0       0       0       0       0       0       0       0       0
       0       0       0       0       0       0       0       0       0       0
       0       0       0       0       0       0       0       0       0       0
       0       0       0       0       0       0       0       0       0       0
       0       0       0       0       0       0       0       0       0       0
       0       0       0       0       0       0       0       0       0       0
       0       0       0       0       0       0       0       0       0       0
       0       0       0       0       0       0       0       0       0       0
       0       0       0       0       0       0       0       0       0       0
       0       0       0       0       0       0       0       0       0       0
       0       0       0       0       0       0       0       0       0       0
       0       0       0       0       0       0       0       0       0       0
       0       0       0       0       0       0       0       0       0       0
       0       0       0       0       0       0       0       0       0       0
       0       0       0       0       0       0       0       0       0       0
       0       0       0       0       0       0       0       0       0       0
       0       0       0       0       0       0       0       0       0       0
       0       0       0       0       0       0       0       0       0       0
       0       0       0       0       0       0       0       0       0       0
       0       0       0       0       0       0       0       0       0       0
       0       0       0       0       0       0       0       0       0       0
       0       0       0       0       0       0       0       0       0       0
       0       0       0       0       0       0       0       0       0       0
       0       0       0       0       0       0       0       0       0       0
       0       0       0       0       0       0       0       0       0       0
       0       0       0       0       0       0       0       0       0       0
       0       0       0       0       0       0       0       0       0       0
       0       0       0       0       0       0       0       0       0       0
       0       0       0       0       0       0       0       0       0       0
       0       0       0       0       0       0       0       0       0       0
       0       0       0       0       0       0       0       0       0       0
       0       0       0       0       0       0       0       0       0       0
       0       0       0       0       0       0       0       0       0       0
       0       0       0       0       0       0       0       0       0       0
       0       0       0       0       0       0       0       0       0       0
       0       0       0       0       0       0       0       0       0       0
       0       0       0       0       0       0       0       0       0       0
       0       0       0       0       0       0       0       0       0       0
       0       0       0       0       0       0       0       0       0       0
       0       0       0       0       0       0       0       0       0       0
       0       0       0       0       0       0       0       0       0       0
       0       0       0       0       0       0       0       0       0       0
       0       0       0       0       0       0       0       0       0       0
       0       0       0       0       0       0       0       0       0       0
       0       0       0       0       0       0       0       0       0       0
       0       0       0       0       0       0       0       0       0       0
       0       0       0       0       0       0       0       0       0       0
       0       0       0       0       0       0       0       0       0       0
       0       0       0       0       0       0       0       0       0       0
       0       0       0       0       0       0       0       0       0       0
       0       0       0       0       0       0       0       0       0       0
       0       0       0       0       0       0       0       0       0       0
       0       0       0       0       0       0       0       0       0       0
       0       0       0       0       0       0       0       0       0       0
       0       0       0       0       0       0       0       0       0       0
       0       0       0       0       0       0       0       0       0       0
       0       0       0       0       0       0       0       0       0       0
       0       0       0       0       0       0       0       0       0       0
       0       0       0       0       0       0       0       0       0       0
       0       0       0       0       0       0       0       0       0       0
       0       0       0       0       0       0       0       0       0       0
       0       0       0       0       0       0       0       0       0       0
       0       0       0       0       0       0       0       0       0       0
       0       0       0       0       0       0       0       0       0       0
       0       0       0       0       0       0       0       0       0       0
       0       0       0       0       0       0       0       0       0       0
       0       0       0       0       0       0       0       0       0       0
       0       0       0       0       0       0       0       0       0       0
       0       0       0       0       0       0       0       0       0       0
       0       0       0       0       0       0       0       0       0       0
       0       0       0       0       0       0       0       0       0       0
       0       0       0       0       0       0       0       0       0       0
       0       0       0       0       0       0       0       0       0       0
       0       0       0       0       0       0       0       0       0       0
       0       0       0       0       0       0       0       0       0       0
       0       0       0       0       0       0       0       0       0       0
       0       0       0       0       0       0       0       0       0       0
       0       0       0       0       0       0       0       0       0       0
       0       0       0       0       0       0       0       0       0       0
       0       0       0       0       0       0       0       0       0       0
       0       0       0       0       0       0       0       0       0       0
       0       0       0       0       0       0       0       0       0       0
       0       0       0       0       0       0       0       0       0       0
       0       0       0       0       0       0       0       0       0       0
       0       0       0       0       0       0       0       0       0       0
       0       0       0       0       0       0       0       0       0       0
       0       0       0       0       0       0       0       0       0       0
       0       0       0       0       0       0       0       0       0       0
       0       0       0       0       0       0       0       0       0       0
       0       0       0       0       0       0       0       0       0       0
       0       0       0       0       0       0       0       0       0       0
       0       0       0       0       0       0       0       0       0       0
       0       0       0       0       0       0       0       0       0       0
       0       0       0       0       0       0       0       0       0       0
       0       0       0       0       0       0       0       0       0       0
       0       0       0       0       0       0       0       0       0       0
       0       0       0       0       0       0       0       0       0       0
       0       0       0       0       0       0       0       0       0       0
       0       0       0       0       0       0       0       0       0       0
       0       0       0       0       0       0       0       0       0       0
       0       0       0       0       0       0       0       0       0       0
       0       0       0       0       0       0       0       0       0       0
       0       0       0       0       0       0       0       0       0       0
       0       0       0       0       0       0       0       0       0       0
       0       0       0       0       0       0       0       0       0       0
       0       0       0       0       0       0       0       0       0       0
       0       0       0       0       0       0       0       0       0       0
       0       0       0       0       0       0       0       0       0       0
       0       0       0       0       0       0       0       0       0       0
       0       0       0       0       0       0       0       0       0       0
       0       0       0       0       0       0       0       0       0       0
       0       0       0       0       0       0       0       0       0       0
       0       0       0       0       0       0       0       0       0       0
       0       0       0       0       0       0       0       0       0       0
       0       0       0       0       0       0       0       0       0       0
       0       0       0       0       0       0       0       0       0       0
       0       0       0       0       0       0       0       0       0       0
       0       0       0       0       0       0       0       0       0       0
       0       0       0       0       0       0       0       0       0       0
       0       0       0       0       0       0       0       0       0       0
       0       0       0       0       0       0       0       0       0       0
       0       0       0       0       0       0       0       0       0       0
       0       0       0       0       0       0       0       0       0       0
       0       0       0       0       0       0       0       0       0       0
       0       0       0       0       0       0       0       0       0       0
       0       0       0       0       0       0       0       0       0       0
       0       0       0       0       0       0       0       0       0       0
       0       0       0       0       0       0       0       0       0       0
       0       0       0       0       0       0       0       0       0       0
       0       0       0       0       0       0       0       0       0       0
       0       0       0       0       0       0       0       0       0       0
       0       0       0       0       0       0       0       0       0       0
       0       0       0       0       0       0       0       0       0       0
       0       0       0       0       0       0       0       0       0       0
       0       0       0       0       0       0       0       0       0       0
       0       0       0       0       0       0       0       0       0       0
       0       0       0       0       0       0       0       0       0       0
       0       0       0       0       0       0       0       0       0       0
       0       0       0       0       0       0       0       0       0       0
       0       0       0       0       0       0       0       0       0       0
       0       0       0       0       0       0       0       0       0       0
       0       0       0       0       0       0       0       0       0       0
       0       0       0       0       0       0       0       0       0       0
       0       0       0       0       0       0       0       0       0       0
       0       0       0       0       0       0       0       0       0       0
       0       0       0       0       0       0       0       0       0       0
       0       0       0       0       0       0       0       0       0       0
       0       0       0       0       0       0       0       0       0       0
       0       0       0       0       0       0       0       0       0       0
       0       0       0       0       0       0       0       0       0       0
       0       0       0       0       0       0       0       0       0       0
       0       0       0       0       0       0       0       0       0       0
       0       0       0       0       0       0       0       0       0       0
       0       0       0       0       0       0       0       0       0       0
       0       0       0       0       0       0       0       0       0       0
       0       0       0       0       0       0       0       0       0       0
       0       0       0       0       0       0       0       0       0       0
       0       0       0       0       0       0       0       0       0       0
       0       0       0       0       0       0       0       0       0       0
       0       0       0       0       0       0       0       0       0       0
       0       0       0       0       0       0       0       0       0       0
       0       0       0       0       0       0       0       0       0       0
       0       0       0       0       0       0       0       0       0       0
       0       0       0       0       0       0       0       0       0       0
       0       0       0       0       0       0       0       0       0       0
       0       0       0       0       0       0       0       0       0       0
       0       0       0       0       0       0       0       0       0       0
       0       0       0       0       0       0       0       0       0       0
       0       0       0       0       0       0       0       0       0       0
       0       0       0       0       0       0       0       0       0       0
       0       0       0       0       0       0       0       0       0       0
       0       0       0       0       0       0       0       0       0       0
       0       0       0       0       0       0       0       0       0       0
       0       0       0       0       0       0       0       0       0       0
       0       0       0       0       0       0       0       0       0       0
       0       0       0       0       0       0       0       0       0       0
       0       0       0       0       0       0       0       0       0       0
       0       0       0       0       0       0       0       0       0       0
       0       0       0       0       0       0       0       0       0       0
       0       0       0       0       0       0       0       0       0       0
       0       0       0       0       0       0       0       0       0       0
       0       0       0       0       0       0       0       0       0       0
       0       0       0       0       0       0       0       0       0       0
       0       0       0       0       0       0       0       0       0       0
       0       0       0       0       0       0       0       0       0       0
       0       0       0       0       0       0       0       0       0       0
       0       0       0       0       0       0       0       0       0       0
       0       0       0       0       0       0       0       0       0       0
       0       0       0       0       0       0       0       0       0       0
       0       0       0       0       0       0       0       0       0       0
       0       0       0       0       0       0       0       0       0       0
       0       0       0       0       0       0       0       0       0       0
       0       0       0       0       0       0       0       0       0       0
       0       0       0       0       0       0       0       0       0       0
       0       0       0       0       0       0       0       0       0       0
       0       0       0       0       0       0       0       0       0       0
       0       0       0       0       0       0       0       0       0       0
       0       0       0       0       0       0       0       0       0       0
       0       0       0       0       0       0       0       0       0       0
       0       0       0       0       0       0       0       0       0       0
       0       0       0       0       0       0       0       0       0       0
       0       0       0       0       0       0       0       0       0       0
       0       0       0       0       0       0       0       0       0       0
       0       0       0       0       0       0       0       0       0       0
       0       0       0       0       0       0       0       0       0       0
       0       0       0       0       0       0       0       0       0       0
       0       0       0       0       0       0       0       0       0       0
       0       0       0       0       0       0       0       0       0       0
       0       0       0       0       0       0       0       0       0       0
       0       0       0       0       0       0       0       0       0       0
       0       0       0       0       0       0       0       0       0       0
       0       0       0       0       0       0       0       0       0       0
       0       0       0       0       0       0       0       0       0       0
       0       0       0       0       0       0       0       0       0       0
       0       0       0       0       0       0       0       0       0       0
       0       0       0       0       0       0       0       0       0       0
       0       0       0       0       0       0       0       0       0       0
       0       0       0       0       0       0       0       0       0       0
       0       0       0       0       0       0       0       0       0       0
       0       0       0       0       0       0       0       0       0       0
       0       0       0       0       0       0       0       0       0       0
       0       0       0       0       0       0       0       0       0       0
       0       0       0       0       0       0       0       0       0       0
       0       0       0       0       0       0       0       0       0       0
       0       0       0       0       0       0       0       0       0       0
       0       0       0       0       0       0       0       0       0       0
       0       0       0       0       0       0       0       0       0       0
       0       0       0       0       0       0       0       0       0       0
       0       0       0       0       0       0       0       0       0       0
       0       0       0       0       0       0       0       0       0       0
       0       0       0       0       0       0       0       0       0       0
       0       0       0       0       0       0       0       0       0       0
       0       0       0       0       0       0       0       0       0       0
       0       0       0       0       0       0       0       0       0       0
       0       0       0       0       0       0       0       0       0       0
       0       0       0       0       0       0       0       0       0       0
       0       0       0       0       0       0       0       0       0       0
       0       0       0       0       0       0       0       0       0       0
       0       0       0       0       0       0       0       0       0       0
       0       0       0       0       0       0       0       0       0       0
       0       0       0       0       0       0       0       0       0       0
       0       0       0       0       0       0       0       0       0       0
       0       0       0       0       0       0       0       0       0       0
       0       0       0       0       0       0       0       0       0       0
       0       0       0       0       0       0       0       0       0       0
       0       0       0       0       0       0       0       0       0       0
       0       0       0       0       0       0       0       0       0       0
       0       0       0       0       0       0       0       0       0       0
       0       0       0       0       0       0       0       0       0       0
       0       0       0       0       0       0       0       0       0       0
       0       0       0       0       0       0       0       0       0       0
       0       0       0       0       0       0       0       0       0       0
       0       0       0       0       0       0       0       0       0       0
       0       0       0       0       0       0       0       0       0       0
       0       0       0       0       0       0       0       0       0       0
       0       0       0       0       0       0       0       0       0       0
       0       0       0       0       0       0       0       0       0       0
       0       0       0       0       0       0       0       0       0       0
       0       0       0       0       0       0       0       0       0       0
       0       0       0       0       0       0       0       0       0       0
       0       0       0       0       0       0       0       0       0       0
       0       0       0       0       0       0       0       0       0       0
       0       0       0       0       0       0       0       0       0       0
       0       0       0       0       0       0       0       0       0       0
       0       0       0       0       0       0       0       0       0       0
       0       0       0       0       0       0       0       0       0       0
       0       0       0       0       0       0       0       0       0       0
       0       0       0       0       0       0       0       0       0       0
       0       0       0       0       0       0       0       0       0       0
       0       0       0       0       0       0       0       0       0       0
       0       0       0       0       0       0       0       0       0       0
       0       0       0       0       0       0       0       0       0       0
       0       0       0       0       0       0       0       0       0       0
       0       0       0       0       0       0       0       0       0       0
       0       0       0       0       0       0       0       0       0       0
       0       0       0       0       0       0       0       0       0       0
       0       0       0       0       0       0       0       0       0       0
       0       0       0       0       0       0       0       0       0       0
       0       0       0       0       0       0       0       0       0       0
       0       0       0       0       0       0       0       0       0       0
       0       0       0       0       0       0       0       0       0       0
       0       0       0       0       0       0       0       0       0       0
       0       0       0       0       0       0       0       0       0       0
       0       0       0       0       0       0       0       0       0       0
       0       0       0       0       0       0       0       0       0       0
       0       0       0       0       0       0       0       0       0       0
       0       0       0       0       0       0       0       0       0       0
       0       0       0       0       0       0       0       0       0       0
       0       0       0       0       0       0       0       0       0       0
       0       0       0       0       0       0       0       0       0       0
       0       0       0       0       0       0       0       0       0       0
       0       0       0       0       0       0       0       0       0       0
       0       0       0       0       0       0       0       0       0       0
       0       0       0       0       0       0       0       0       0       0
       0       0       0       0       0       0       0       0       0       0
       0       0       0       0       0       0       0       0       0       0
       0       0       0       0       0       0       0       0       0       0
       0       0       0       0       0       0       0       0       0       0
       0       0       0       0       0       0       0       0       0       0
       0       0       0       0       0       0       0       0       0       0
       0       0       0       0       0       0       0       0       0       0
       0       0       0       0       0       0       0       0       0       0
       0       0       0       0       0       0       0       0       0       0
       0       0       0       0       0       0       0       0       0       0
       0       0       0       0       0       0       0       0       0       0
       0       0       0       0       0       0       0       0       0       0
       0       0       0       0       0       0       0       0       0       0
       0       0       0       0       0       0       0       0       0       0
       0       0       0       0       0       0       0       0       0       0
       0       0       0       0       0       0       0       0       0       0
       0       0       0       0       0       0       0       0       0       0
       0       0       0       0       0       0       0       0       0       0
       0       0       0       0       0       0       0       0       0       0
       0       0       0       0       0       0       0       0       0       0
       0       0       0       0       0       0       0       0       0       0
       0       0       0       0       0       0       0       0       0       0
       0       0       0       0       0       0       0       0       0       0
       0       0       0       0       0       0       0       0       0       0
       0       0       0       0       0       0       0       0       0       0
       0       0       0       0       0       0       0       0       0       0
       0       0       0       0       0       0       0       0       0       0
       0       0       0       0       0       0       0       0       0       0
       0       0       0       0       0       0       0       0       0       0
       0       0       0       0       0       0       0       0       0       0
       0       0       0       0       0       0       0       0       0       0
       0       0       0       0       0       0       0       0       0       0
       0       0       0       0       0       0       0       0       0       0
       0       0       0       0       0       0       0       0       0       0
       0       0       0       0       0       0       0       0       0       0
       0       0       0       0       0       0       0       0       0       0
       0       0       0       0       0       0       0       0       0       0
       0       0       0       0       0       0       0       0       0       0
       0       0       0       0       0       0       0       0       0       0
       0       0       0       0       0       0       0       0       0       0
       0       0       0       0       0       0       0       0       0       0
       0       0       0       0       0       0       0       0       0       0
       0       0       0       0       0       0       0       0       0       0
       0       0       0       0       0       0       0       0       0       0
       0       0       0       0       0       0       0       0       0       0
       0       0       0       0       0       0       0       0       0       0
       0       0       0       0       0       0       0       0       0       0
       0       0       0       0       0       0       0       0       0       0
       0       0       0       0       0       0       0       0       0       0
       0       0       0       0       0       0       0       0       0       0
       0       0       0       0       0       0       0       0       0       0
       0       0       0       0       0       0       0       0       0       0
       0       0       0       0       0       0       0       0       0       0
       0       0       0       0       0       0       0       0       0       0
       0       0       0       0       0       0       0       0       0       0
       0       0       0       0       0       0       0       0       0       0
       0       0       0       0       0       0       0       0       0       0
       0       0       0       0       0       0       0       0       0       0
       0       0       0       0       0       0       0       0       0       0
       0       0       0       0       0       0       0       0       0       0
       0       0       0       0       0       0       0       0       0       0
       0       0       0       0       0       0       0       0       0       0
       0       0       0       0       0       0       0       0       0       0
       0       0       0       0       0       0       0       0       0       0
       0       0       0       0       0       0       0       0       0       0
       0       0       0       0       0       0       0       0       0       0
       0       0       0       0       0       0       0       0       0       0
       0       0       0       0       0       0       0       0       0       0
       0       0       0       0       0       0       0       0       0       0
       0       0       0       0       0       0       0       0       0       0
       0       0       0       0       0       0       0       0       0       0
       0       0       0       0       0       0       0       0       0       0
       0       0       0       0       0       0       0       0       0       0
       0       0       0       0       0       0       0       0       0       0
       0       0       0       0       0       0       0       0       0       0
       0       0       0       0       0       0       0       0       0       0
       0       0       0       0       0       0       0       0       0       0
       0       0       0       0       0       0       0       0       0       0
       0       0       0       0       0       0       0       0       0       0
       0       0       0       0       0       0       0       0       0       0
       0       0       0       0       0       0       0       0       0       0
       0       0       0       0       0       0       0       0       0       0
       0       0       0       0       0       0       0       0       0       0
       0       0       0       0       0       0       0       0       0       0
       0       0       0       0       0       0       0       0       0       0
       0       0       0       0       0       0       0       0       0       0
       0       0       0       0       0       0       0       0       0       0
       0       0       0       0       0       0       0       0       0       0
       0       0       0       0       0       0       0       0       0       0
       0       0       0       0       0       0       0       0       0       0
       0       0       0       0       0       0       0       0       0       0
       0       0       0       0       0       0       0       0       0       0
       0       0       0       0       0       0       0       0       0       0
       0       0       0       0       0       0       0       0       0       0
       0       0       0       0       0       0       0       0       0       0
       0       0       0       0       0       0       0       0       0       0
       0       0       0       0       0       0       0       0       0       0
       0       0       0       0       0       0       0       0       0       0
       0       0       0       0       0       0       0       0       0       0
       0       0       0       0       0       0       0       0       0       0
       0       0       0       0       0       0       0       0       0       0
       0       0       0       0       0       0       0       0       0       0
       0       0       0       0       0       0       0       0       0       0
       0       0       0       0       0       0       0       0       0       0
       0       0       0       0       0       0       0       0       0       0
       0       0       0       0       0       0       0       0       0       0
       0       0       0       0       0       0       0       0       0       0
       0       0       0       0       0       0       0       0       0       0
       0       0       0       0       0       0       0       0       0       0
       0       0       0       0       0       0       0       0       0       0
       0       0       0       0       0       0       0       0       0       0
       0       0       0       0       0       0       0       0       0       0
       0       0       0       0       0       0       0       0       0       0
       0       0       0       0       0       0       0       0       0       0
       0       0       0       0       0       0       0       0       0       0
       0       0       0       0       0       0       0       0       0       0
       0       0       0       0       0       0       0       0       0       0
       0       0       0       0       0       0       0       0       0       0
       0       0       0       0       0       0       0       0       0       0
       0       0       0       0       0       0       0       0       0       0
       0       0       0       0       0       0       0       0       0       0
       0       0       0       0       0       0       0       0       0       0
       0       0       0       0       0       0       0       0       0       0
       0       0       0       0       0       0       0       0       0       0
       0       0       0       0       0       0       0       0       0       0
       0       0       0       0       0       0       0       0       0       0
       0       0       0       0       0       0       0       0       0       0
       0       0       0       0       0       0       0       0       0       0
       0       0       0       0       0       0       0       0       0       0
       0       0       0       0       0       0       0       0       0       0
       0       0       0       0       0       0       0       0       0       0
       0       0       0       0       0       0       0       0       0       0
       0       0       0       0       0       0       0       0       0       0
       0       0       0       0       0       0       0       0       0       0
       0       0       0       0       0       0       0       0       0       0
       0       0       0       0       0       0       0       0       0       0
       0       0       0       0       0       0       0       0       0       0
       0       0       0       0       0       0       0       0       0       0
       0       0       0       0       0       0       0       0       0       0
       0       0       0       0       0       0       0       0       0       0
       0       0       0       0       0       0       0       0       0       0
       0       0       0       0       0       0       0       0       0       0
       0       0       0       0       0       0       0       0       0       0
       0       0       0       0       0       0       0       0       0       0
       0       0       0       0       0       0       0       0       0       0
       0       0       0       0       0       0       0       0       0       0
       0       0       0       0       0       0       0       0       0       0
       0       0       0       0       0       0       0       0       0       0
       0       0       0       0       0       0       0       0       0       0
       0       0       0       0       0       0       0       0       0       0
       0       0       0       0       0       0       0       0       0       0
       0       0       0       0       0       0       0       0       0       0
       0       0       0       0       0       0       0       0       0       0
       0       0       0       0       0       0       0       0       0       0
       0       0       0       0       0       0       0       0       0       0
       0       0       0       0       0       0       0       0       0       0
       0       0       0       0       0       0       0       0       0       0
       0       0       0       0       0       0       0       0       0       0
       0       0       0       0       0       0       0       0       0       0
       0       0       0       0       0       0       0       0       0       0
       0       0       0       0       0       0       0       0       0       0
       0       0       0       0       0       0       0       0       0       0
       0       0       0       0       0       0       0       0       0       0
       0       0       0       0       0       0       0       0       0       0
       0       0       0       0       0       0       0       0       0       0
       0       0       0       0       0       0       0       0       0       0
       0       0       0       0       0       0       0       0       0       0
       0       0       0       0       0       0       0       0       0       0
       0       0       0       0       0       0       0       0       0       0
       0       0       0       0       0       0       0       0       0       0
       0       0       0       0       0       0       0       0       0       0
       0       0       0       0       0       0       0       0       0       0
       0       0       0       0       0       0       0       0       0       0
       0       0       0       0       0       0       0       0       0       0
       0       0       0       0       0       0       0       0       0       0
       0       0       0       0       0       0       0       0       0       0
       0       0       0       0       0       0       0       0       0       0
       0       0       0       0       0       0       0       0       0       0
       0       0       0       0       0       0       0       0       0       0
       0       0       0       0       0       0       0       0       0       0
       0       0       0       0       0       0       0       0       0       0
       0       0       0       0       0       0       0       0       0       0
       0       0       0       0       0       0       0       0       0       0
       0       0       0       0       0       0       0       0       0       0
       0       0       0       0       0       0       0       0       0       0
       0       0       0       0       0       0       0       0       0       0
       0       0       0       0       0       0       0       0       0       0
       0       0       0       0       0       0       0       0       0       0
       0       0       0       0       0       0       0       0       0       0
       0       0       0       0       0       0       0       0       0       0
       0       0       0       0       0       0       0       0       0       0
       0       0       0       0       0       0       0       0       0       0
       0       0       0       0       0       0       0       0       0       0
       0       0       0       0       0       0       0       0       0       0
       0       0       0       0       0       0       0       0       0       0
       0       0       0       0       0       0       0       0       0       0
       0       0       0       0       0       0       0       0       0       0
       0       0       0       0       0       0       0       0       0       0
       0       0       0       0       0       0       0       0       0       0
       0       0       0       0       0       0       0       0       0       0
       0       0       0       0       0       0       0       0       0       0
       0       0       0       0       0       0       0       0       0       0
       0       0       0       0       0       0       0       0       0       0
       0       0       0       0       0       0       0       0       0       0
       0       0       0       0       0       0       0       0       0       0
       0       0       0       0       0       0       0       0       0       0
       0       0       0       0       0       0       0       0       0       0
       0       0       0       0       0       0       0       0       0       0
       0       0       0       0       0       0       0       0       0       0
       0       0       0       0       0       0       0       0       0       0
       0       0       0       0       0       0       0       0       0       0
       0       0       0       0       0       0       0       0       0       0
       0       0       0       0       0       0       0       0       0       0
       0       0       0       0       0       0       0       0       0       0
       0       0       0       0       0       0       0       0       0       0
       0       0       0       0       0       0       0       0       0       0
       0       0       0       0       0       0       0       0       0       0
       0       0       0       0       0       0       0       0       0       0
       0       0       0       0       0       0       0       0       0       0
       0       0       0       0       0       0       0       0       0       0
       0       0       0       0       0       0       0       0       0       0
       0       0       0       0       0       0       0       0       0       0
       0       0       0       0       0       0       0       0       0       0
       0       0       0       0       0       0       0       0       0       0
       0       0       0       0       0       0       0       0       0       0
       0       0       0       0       0       0       0       0       0       0
       0       0       0       0       0       0       0       0       0       0
       0       0       0       0       0       0       0       0       0       0
       0       0       0       0       0       0       0       0       0       0
       0       0       0       0       0       0       0       0       0       0
       0       0       0       0       0       0       0       0       0       0
       0       0       0       0       0       0       0       0       0       0
       0       0       0       0       0       0       0       0       0       0
       0       0       0       0       0       0       0       0       0       0
       0       0       0       0       0       0       0       0       0       0
       0       0       0       0       0       0       0       0       0       0
       0       0       0       0       0       0       0       0       0       0
       0       0       0       0       0       0       0       0       0       0
       0       0       0       0       0       0       0       0       0       0
       0       0       0       0       0       0       0       0       0       0
       0       0       0       0       0       0       0       0       0       0
       0       0       0       0       0       0       0       0       0       0
       0       0       0       0       0       0       0       0       0       0
       0       0       0       0       0       0       0       0       0       0
       0       0       0       0       0       0       0       0       0       0
       0       0       0       0       0       0       0       0       0       0
       0       0       0       0       0       0       0       0       0       0
       0       0       0       0       0       0       0       0       0       0
       0       0       0       0       0       0       0       0       0       0
       0       0       0       0       0       0       0       0       0       0
       0       0       0       0       0       0       0       0       0       0
       0       0       0       0       0       0       0       0       0       0
       0       0       0       0       0       0       0       0       0       0
       0       0       0       0       0       0       0       0       0       0
       0       0       0       0       0       0       0       0       0       0
       0       0       0       0       0       0       0       0       0       0
       0       0       0       0       0       0       0       0       0       0
       0       0       0       0       0       0       0       0       0       0
       0       0       0       0       0       0       0       0       0       0
       0       0       0       0       0       0       0       0       0       0
       0       0       0       0       0       0       0       0       0       0
       0       0       0       0       0       0       0       0       0       0
       0       0       0       0       0       0       0       0       0       0
       0       0       0       0       0       0       0       0       0       0
       0       0       0       0       0       0       0       0       0       0
       0       0       0       0       0       0       0       0       0       0
       0       0       0       0       0       0       0       0       0       0
       0       0       0       0       0       0       0       0       0       0
       0       0       0       0       0       0       0       0       0       0
       0       0       0       0       0       0       0       0       0       0
       0       0       0       0       0       0       0       0       0       0
       0       0       0       0       0       0       0       0       0       0
       0       0       0       0       0       0       0       0       0       0
       0       0       0       0       0       0       0       0       0       0
       0       0       0       0       0       0       0       0       0       0
       0       0       0       0       0       0       0       0       0       0
       0       0       0       0       0       0       0       0       0       0
       0       0       0       0       0       0       0       0       0       0
       0       0       0       0       0       0       0       0       0       0
       0       0       0       0       0       0       0       0       0       0
       0       0       0       0       0       0       0       0       0       0
       0       0       0       0       0       0       0       0       0       0
       0       0       0       0       0       0       0       0       0       0
       0       0       0       0       0       0       0       0       0       0
       0       0       0       0       0       0       0       0       0       0
       0       0       0       0       0       0       0       0       0       0
       0       0       0       0       0       0       0       0       0       0
       0       0       0       0       0       0       0       0       0       0
       0       0       0       0       0       0       0       0       0       0
       0       0       0       0       0       0       0       0       0       0
       0       0       0       0       0       0       0       0       0       0
       0       0       0       0       0       0       0       0       0       0
       0       0       0       0       0       0       0       0       0       0
       0       0       0       0       0       0       0       0       0       0
       0       0       0       0       0       0       0       0       0       0
       0       0       0       0       0       0       0       0       0       0
       0       0       0       0       0       0       0       0       0       0
       0       0       0       0       0       0       0       0       0       0
       0       0       0       0       0       0       0       0       0       0
       0       0       0       0       0       0       0       0       0       0
       0       0       0       0       0       0       0       0       0       0
       0       0       0       0       0       0       0       0       0       0
       0       0       0       0       0       0       0       0       0       0
       0       0       0       0       0       0       0       0       0       0
       0       0       0       0       0       0       0       0       0       0
       0       0       0       0       0       0       0       0       0       0
       0       0       0       0       0       0       0       0       0       0
       0       0       0       0       0       0       0       0       0       0
       0       0       0       0       0       0       0       0       0       0
       0       0       0       0       0       0       0       0       0       0
       0       0       0       0       0       0       0       0       0       0
       0       0       0       0       0       0       0       0       0       0
       0       0       0       0       0       0       0       0       0       0
       0       0       0       0       0       0       0       0       0       0
       0       0       0       0       0       0       0       0       0       0
       0       0       0       0       0       0       0       0       0       0
       0       0       0       0       0       0       0       0       0       0
       0       0       0       0       0       0       0       0       0       0
       0       0       0       0       0       0       0       0       0       0
       0       0       0       0       0       0       0       0       0       0
       0       0       0       0       0       0       0       0       0       0
       0       0       0       0       0       0       0       0       0       0
       0       0       0       0       0       0       0       0       0       0
       0       0       0       0       0       0       0       0       0       0
       0       0       0       0       0       0       0       0       0       0
       0       0       0       0       0       0       0       0       0       0
       0       0       0       0       0       0       0       0       0       0
       0       0       0       0       0       0       0       0       0       0
       0       0       0       0       0       0       0       0       0       0
       0       0       0       0       0       0       0       0       0       0
       0       0       0       0       0       0       0       0       0       0
       0       0       0       0       0       0       0       0       0       0
       0       0       0       0       0       0       0       0       0       0
       0       0       0       0       0       0       0       0       0       0
       0       0       0       0       0       0       0       0       0       0
       0       0       0       0       0       0       0       0       0       0
       0       0       0       0       0       0       0       0       0       0
       0       0       0       0       0       0       0       0       0       0
       0       0       0       0       0       0       0       0       0       0
       0       0       0       0       0       0       0       0       0       0
       0       0       0       0       0       0       0       0       0       0
       0       0       0       0       0       0       0       0       0       0
       0       0       0       0       0       0       0       0       0       0
       0       0       0       0       0       0       0       0       0       0
       0       0       0       0       0       0       0       0       0       0
       0       0       0       0       0       0       0       0       0       0
       0       0       0       0       0       0       0       0       0       0
       0       0       0       0       0       0       0       0       0       0
       0       0       0       0       0       0       0       0       0       0
       0       0       0       0       0       0       0       0       0       0
       0       0       0       0       0       0       0       0       0       0
       0       0       0       0       0       0       0       0       0       0
       0       0       0       0       0       0       0       0       0       0
       0       0       0       0       0       0       0       0       0       0
       0       0       0       0       0       0       0       0       0       0
       0       0       0       0       0       0       0       0       0       0
       0       0       0       0       0       0       0       0       0       0
       0       0       0       0       0       0       0       0       0       0
       0       0       0       0       0       0       0       0       0       0
       0       0       0       0       0       0       0       0       0       0
       0       0       0       0       0       0       0       0       0       0
       0       0       0       0       0       0       0       0       0       0
       0       0       0       0       0       0       0       0       0       0
       0       0       0       0       0       0       0       0       0       0
       0       0       0       0       0       0       0       0       0       0
       0       0       0       0       0       0       0       0       0       0
       0       0       0       0       0       0       0       0       0       0
       0       0       0       0       0       0       0       0       0       0
       0       0       0       0       0       0       0       0       0       0
       0       0       0       0       0       0       0       0       0       0
       0       0       0       0       0       0       0       0       0       0
       0       0       0       0       0       0       0       0       0       0
       0       0       0       0       0       0       0       0       0       0
       0       0       0       0       0       0       0       0       0       0
       0       0       0       0       0       0       0       0       0       0
       0       0       0       0       0       0       0       0       0       0
       0       0       0       0       0       0       0       0       0       0
       0       0       0       0       0       0       0       0       0       0
       0       0       0       0       0       0       0       0       0       0
       0       0       0       0       0       0       0       0       0       0
       0       0       0       0       0       0       0       0       0       0
       0       0       0       0       0       0       0       0       0       0
       0       0       0       0       0       0       0       0       0       0
       0       0       0       0       0       0       0       0       0       0
       0       0       0       0       0       0       0       0       0       0
       0       0       0       0       0       0       0       0       0       0
       0       0       0       0       0       0       0       0       0       0
       0       0       0       0       0       0       0       0       0       0
       0       0       0       0       0       0       0       0       0       0
       0       0       0       0       0       0       0       0       0       0
       0       0       0       0       0       0       0       0       0       0
       0       0       0       0       0       0       0       0       0       0
       0       0       0       0       0       0       0       0       0       0
       0       0       0       0       0       0       0       0       0       0
       0       0       0       0       0       0       0       0       0       0
       0       0       0       0       0       0       0       0       0       0
       0       0       0       0       0       0       0       0       0       0
       0       0       0       0       0       0       0       0       0       0
       0       0       0       0       0       0       0       0       0       0
       0       0       0       0       0       0       0       0       0       0
       0       0       0       0       0       0       0       0       0       0
       0       0       0       0       0       0       0       0       0       0
       0       0       0       0       0       0       0       0       0       0
       0       0       0       0       0       0       0       0       0       0
       0       0       0       0       0       0       0       0       0       0
       0       0       0       0       0       0       0       0       0       0
       0       0       0       0       0       0       0       0       0       0
       0       0       0       0       0       0       0       0       0       0
       0       0       0       0       0       0       0       0       0       0
       0       0       0       0       0       0       0       0       0       0
       0       0       0       0       0       0       0       0       0       0
       0       0       0       0       0       0       0       0       0       0
       0       0       0       0       0       0       0       0       0       0
       0       0       0       0       0       0       0       0       0       0
       0       0       0       0       0       0       0       0       0       0
       0       0       0       0       0       0       0       0       0       0
       0       0       0       0       0       0       0       0       0       0
       0       0       0       0       0       0       0       0       0       0
       0       0       0       0       0       0       0       0       0       0
       0       0       0       0       0       0       0       0       0       0
       0       0       0       0       0       0       0       0       0       0
       0       0       0       0       0       0       0       0       0       0
       0       0       0       0       0       0       0       0       0       0
       0       0       0       0       0       0       0       0       0       0
       0       0       0       0       0       0       0       0       0       0
       0       0       0       0       0       0       0       0       0       0
       0       0       0       0       0       0       0       0       0       0
       0       0       0       0       0       0       0       0       0       0
       0       0       0       0       0       0       0       0       0       0
       0       0       0       0       0       0       0       0       0       0
       0       0       0       0       0       0       0       0       0       0
       0       0       0       0       0       0       0       0       0       0
       0       0       0       0       0       0       0       0       0       0
       0       0       0       0       0       0       0       0       0       0
       0       0       0       0       0       0       0       0       0       0
       0       0       0       0       0       0       0       0       0       0
       0       0       0       0       0       0       0       0       0       0
       0       0       0       0       0       0       0       0       0       0
       0       0       0       0       0       0       0       0       0       0
       0       0       0       0       0       0       0       0       0       0
       0       0       0       0       0       0       0       0       0       0
       0       0       0       0       0       0       0       0       0       0
       0       0       0       0       0       0       0       0       0       0
       0       0       0       0       0       0       0       0       0       0
       0       0       0       0       0       0       0       0       0       0
       0       0       0       0       0       0       0       0       0       0
       0       0       0       0       0       0       0       0       0       0
       0       0       0       0       0       0       0       0       0       0
       0       0       0       0       0       0       0       0       0       0
       0       0       0       0       0       0       0       0       0       0
       0       0       0       0       0       0       0       0       0       0
       0       0       0       0       0       0       0       0       0       0
       0       0       0       0       0       0       0       0       0       0
       0       0       0       0       0       0       0       0       0       0
       0       0       0       0       0       0       0       0       0       0
       0       0       0       0       0       0       0       0       0       0
       0       0       0       0       0       0       0       0       0       0
       0       0       0       0       0       0       0       0       0       0
       0       0       0       0       0       0       0       0       0       0
       0       0       0       0       0       0       0       0       0       0
       0       0       0       0       0       0       0       0       0       0
       0       0       0       0       0       0       0       0       0       0
       0       0       0       0       0       0       0       0       0       0
       0       0       0       0       0       0       0       0       0       0
       0       0       0       0       0       0       0       0       0       0
       0       0       0       0       0       0       0       0       0       0
       0       0       0       0       0       0       0       0       0       0
       0       0       0       0       0       0       0       0       0       0
       0       0       0       0       0       0       0       0       0       0
       0       0       0       0       0       0       0       0       0       0
       0       0       0       0       0       0       0       0       0       0
       0       0       0       0       0       0       0       0       0       0
       0       0       0       0       0       0       0       0       0       0
       0       0       0       0       0       0       0       0       0       0
       0       0       0       0       0       0       0       0       0       0
       0       0       0       0       0       0       0       0       0       0
       0       0       0       0       0       0       0       0       0       0
       0       0       0       0       0       0       0       0       0       0
       0       0       0       0       0       0       0       0       0       0
       0       0       0       0       0       0       0       0       0       0
       0       0       0       0       0       0       0       0       0       0
       0       0       0       0       0       0       0       0       0       0
       0       0       0       0       0       0       0       0       0       0
       0       0       0       0       0       0       0       0       0       0
       0       0       0       0       0       0       0       0       0       0
       0       0       0       0       0       0       0       0       0       0
       0       0       0       0       0       0       0       0       0       0
       0       0       0       0       0       0       0       0       0       0
       0       0       0       0       0       0       0       0       0       0
       0       0       0       0       0       0       0       0       0       0
       0       0       0       0       0       0       0       0       0       0
       0       0       0       0       0       0       0       0       0       0
       0       0       0       0       0       0       0       0       0       0
       0       0       0       0       0       0       0       0       0       0
       0       0       0       0       0       0       0       0       0       0
       0       0       0       0       0       0       0       0       0       0
       0       0       0       0       0       0       0       0       0       0
       0       0       0       0       0       0       0       0       0       0
       0       0       0       0       0       0       0       0       0       0
       0       0       0       0       0       0       0       0       0       0
       0       0       0       0       0       0       0       0       0       0
       0       0       0       0       0       0       0       0       0       0
       0       0       0       0       0       0       0       0       0       0
       0       0       0       0       0       0       0       0       0       0
       0       0       0       0       0       0       0       0       0       0
       0       0       0       0       0       0       0       0       0       0
       0       0       0       0       0       0       0       0       0       0
       0       0       0       0       0       0       0       0       0       0
       0       0       0       0       0       0       0       0       0       0
       0       0       0       0       0       0       0       0       0       0
       0       0       0       0       0       0       0       0       0       0
       0       0       0       0       0       0       0       0       0       0
       0       0       0       0       0       0       0       0       0       0
       0       0       0       0       0       0       0       0       0       0
       0       0       0       0       0       0       0       0       0       0
       0       0       0       0       0       0       0       0       0       0
       0       0       0       0       0       0       0       0       0       0
       0       0       0       0       0       0       0       0       0       0
       0       0       0       0       0       0       0       0       0       0
       0       0       0       0       0       0       0       0       0       0
       0       0       0       0       0       0       0       0       0       0
       0       0       0       0       0       0       0       0       0       0
       0       0       0       0       0       0       0       0       0       0
       0       0       0       0       0       0       0       0       0       0
       0       0       0       0       0       0       0       0       0       0
       0       0       0       0       0       0       0       0       0       0
       0       0       0       0       0       0       0       0       0       0
       0       0       0       0       0       0       0       0       0       0
       0       0       0       0       0       0       0       0       0       0
       0       0       0       0       0       0       0       0       0       0
       0       0       0       0       0       0       0       0       0       0
       0       0       0       0       0       0       0       0       0       0
       0       0       0       0       0       0       0       0       0       0
       0       0       0       0       0       0       0       0       0       0
       0       0       0       0       0       0       0       0       0       0
       0       0       0       0       0       0       0       0       0       0
       0       0       0       0       0       0       0       0       0       0
       0       0       0       0       0       0       0       0       0       0
       0       0       0       0       0       0       0       0       0       0
       0       0       0       0       0       0       0       0       0       0
       0       0       0       0       0       0       0       0       0       0
       0       0       0       0       0       0       0       0       0       0
       0       0       0       0       0       0       0       0       0       0
       0       0       0       0       0       0       0       0       0       0
       0       0       0       0       0       0       0       0       0       0
       0       0       0       0       0       0       0       0       0       0
       0       0       0       0       0       0       0       0       0       0
       0       0       0       0       0       0       0       0       0       0
       0       0       0       0       0       0       0       0       0       0
       0       0       0       0       0       0       0       0       0       0
       0       0       0       0       0       0       0       0       0       0
       0       0       0       0       0       0       0       0       0       0
       0       0       0       0       0       0       0       0       0       0
       0       0       0       0       0       0       0       0       0       0
       0       0       0       0       0       0       0       0       0       0
       0       0       0       0       0       0       0       0       0       0
       0       0       0       0       0       0       0       0       0       0
       0       0       0       0       0       0       0       0       0       0
       0       0       0       0       0       0       0       0       0       0
       0       0       0       0       0       0       0       0       0       0
       0       0       0       0       0       0       0       0       0       0
       0       0       0       0       0       0       0       0       0       0
       0       0       0       0       0       0       0       0       0       0
       0       0       0       0       0       0       0       0       0       0
       0       0       0       0       0       0       0       0       0       0
       0       0       0       0       0       0       0       0       0       0
       0       0       0       0       0       0       0       0       0       0
       0       0       0       0       0       0       0       0       0       0
       0       0       0       0       0       0       0       0       0       0
       0       0       0       0       0       0       0       0       0       0
       0       0       0       0       0       0       0       0       0       0
       0       0       0       0       0       0       0       0       0       0
       0       0       0       0       0       0       0       0       0       0
       0       0       0       0       0       0       0       0       0       0
       0       0       0       0       0       0       0       0       0       0
       0       0       0       0       0       0       0       0       0       0
       0       0       0       0       0       0       0       0       0       0
       0       0       0       0       0       0       0       0       0       0
       0       0       0       0       0       0       0       0       0       0
       0       0       0       0       0       0       0       0       0       0
       0       0       0       0       0       0       0       0       0       0
       0       0       0       0       0       0       0       0       0       0
       0       0       0       0       0       0       0       0       0       0
       0       0       0       0       0       0       0       0       0       0
       0       0       0       0       0       0       0       0       0       0
       0       0       0       0       0       0       0       0       0       0
       0       0       0       0       0       0       0       0       0       0
       0       0       0       0       0       0       0       0       0       0
       0       0       0       0       0       0       0       0       0       0
       0       0       0       0       0       0       0       0       0       0
       0       0       0       0       0       0       0       0       0       0
       0       0       0       0       0       0       0       0       0       0
       0       0       0       0       0       0       0       0       0       0
       0       0       0       0       0       0       0       0       0       0
       0       0       0       0       0       0       0       0       0       0
       0       0       0       0       0       0       0       0       0       0
       0       0       0       0       0       0       0       0       0       0
       0       0       0       0       0       0       0       0       0       0
       0       0       0       0       0       0       0       0       0       0
       0       0       0       0       0       0       0       0       0       0
       0       0       0       0       0       0       0       0       0       0
       0       0       0       0       0       0       0       0       0       0
       0       0       0       0       0       0       0       0       0       0
       0       0       0       0       0       0       0       0       0       0
       0       0       0       0       0       0       0       0       0       0
       0       0       0       0       0       0       0       0       0       0
       0       0       0       0       0       0       0       0       0       0
       0       0       0       0       0       0       0       0       0       0
       0       0       0       0       0       0       0       0       0       0
       0       0       0       0       0       0       0       0       0       0
       0       0       0       0       0       0       0       0       0       0
       0       0       0       0       0       0       0       0       0       0
       0       0       0       0       0       0       0       0       0       0
       0       0       0       0       0       0       0       0       0       0
       0       0       0       0       0       0       0       0       0       0
       0       0       0       0       0       0       0       0       0       0
       0       0       0       0       0       0       0       0       0       0
       0       0       0       0       0       0       0       0       0       0
       0       0       0       0       0       0       0       0       0       0
       0       0       0       0       0       0       0       0       0       0
       0       0       0       0       0       0       0       0       0       0
       0       0       0       0       0       0       0       0       0       0
       0       0       0       0       0       0       0       0       0       0
       0       0       0       0       0       0       0       0       0       0
       0       0       0       0       0       0       0       0       0       0
       0       0       0       0       0       0       0       0       0       0
       0       0       0       0       0       0       0       0       0       0
       0       0       0       0       0       0       0       0       0       0
       0       0       0       0       0       0       0       0       0       0
       0       0       0       0       0       0       0       0       0       0
       0       0       0       0       0       0       0       0       0       0
       0       0       0       0       0       0       0       0       0       0
       0       0       0       0       0       0       0       0       0       0
       0       0       0       0       0       0       0       0       0       0
       0       0       0       0       0       0       0       0       0       0
       0       0       0       0       0       0       0       0       0       0
       0       0       0       0       0       0       0       0       0       0
       0       0       0       0       0       0       0       0       0       0
       0       0       0       0       0       0       0       0       0       0
       0       0       0       0       0       0       0       0       0       0
       0       0       0       0       0       0       0       0       0       0
       0       0       0       0       0       0       0       0       0       0
       0       0       0       0       0       0       0       0       0       0
       0       0       0       0       0       0       0       0       0       0
       0       0       0       0       0       0       0       0       0       0
       0       0       0       0       0       0       0       0       0       0
       0       0       0       0       0       0       0       0       0       0
       0       0       0       0       0       0       0       0       0       0
       0       0       0       0       0       0       0       0       0       0
       0       0       0       0       0       0       0       0       0       0
       0       0       0       0       0       0       0       0       0       0
       0       0       0       0       0       0       0       0       0       0
       0       0       0       0       0       0       0       0       0       0
       0       0       0       0       0       0       0       0       0       0
       0       0       0       0       0       0       0       0       0       0
       0       0       0       0       0       0       0       0       0       0
       0       0       0       0       0       0       0       0       0       0
       0       0       0       0       0       0       0       0       0       0
       0       0       0       0       0       0       0       0       0       0
       0       0       0       0       0       0       0       0       0       0
       0       0       0       0       0       0       0       0       0       0
       0       0       0       0       0       0       0       0       0       0
       0       0       0       0       0       0       0       0       0       0
       0       0       0       0       0       0       0       0       0       0
       0       0       0       0       0       0       0       0       0       0
       0       0       0       0       0       0       0       0       0       0
       0       0       0       0       0       0       0       0       0       0
       0       0       0       0       0       0       0       0       0       0
       0       0       0       0       0       0       0       0       0       0
       0       0       0       0       0       0       0       0       0       0
       0       0       0       0       0       0       0       0       0       0
       0       0       0       0       0       0       0       0       0       0
       0       0       0       0       0       0       0       0       0       0
       0       0       0       0       0       0       0       0       0       0
       0       0       0       0       0       0       0       0       0       0
       0       0       0       0       0       0       0       0       0       0
       0       0       0       0       0       0       0       0       0       0
       0       0       0       0       0       0       0       0       0       0
       0       0       0       0       0       0       0       0       0       0
       0       0       0       0       0       0       0       0       0       0
       0       0       0       0       0       0       0       0       0       0
       0       0       0       0       0       0       0       0       0       0
       0       0       0       0       0       0       0       0       0       0
       0       0       0       0       0       0       0       0       0       0
       0       0       0       0       0       0       0       0       0       0
       0       0       0       0       0       0       0       0       0       0
       0       0       0       0       0       0       0       0       0       0
       0       0       0       0       0       0       0       0       0       0
       0       0       0       0       0       0       0       0       0       0
       0       0       0       0       0       0       0       0       0       0
       0       0       0       0       0       0       0       0       0       0
       0       0       0       0       0       0       0       0       0       0
       0       0       0       0       0       0       0       0       0       0
       0       0       0       0       0       0       0       0       0       0
       0       0       0       0       0       0       0       0       0       0
       0       0       0       0       0       0       0       0       0       0
       0       0       0       0       0       0       0       0       0       0
       0       0       0       0       0       0       0       0       0       0
       0       0       0       0       0       0       0       0       0       0
       0       0       0       0       0       0       0       0       0       0
       0       0       0       0       0       0       0       0       0       0
       0       0       0       0       0       0       0       0       0       0
       0       0       0       0       0       0       0       0       0       0
       0       0       0       0       0       0       0       0       0       0
       0       0       0       0       0       0       0       0       0       0
       0       0       0       0       0       0       0       0       0       0
       0       0       0       0       0       0       0       0       0       0
       0       0       0       0       0       0       0       0       0       0
       0       0       0       0       0       0       0       0       0       0
       0       0       0       0       0       0       0       0       0       0
       0       0       0       0       0       0       0       0       0       0
       0       0       0       0       0       0       0       0       0       0
       0       0       0       0       0       0       0       0       0       0
       0       0       0       0       0       0       0       0       0       0
       0       0       0       0       0       0       0       0       0       0
       0       0       0       0       0       0       0       0       0       0
       0       0       0       0       0       0       0       0       0       0
       0       0       0       0       0       0       0       0       0       0
       0       0       0       0       0       0       0       0       0       0
       0       0       0       0       0       0       0       0       0       0
       0       0       0       0       0       0       0       0       0       0
       0       0       0       0       0       0       0       0       0       0
       0       0       0       0       0       0       0       0       0       0
       0       0       0       0       0       0       0       0       0       0
       0       0       0       0       0       0       0       0       0       0
       0       0       0       0       0       0       0       0       0       0
       0       0       0       0       0       0       0       0       0       0
       0       0       0       0       0       0       0       0       0       0
       0       0       0       0       0       0       0       0       0       0
       0       0       0       0       0       0       0       0       0       0
       0       0       0       0       0       0       0       0       0       0
       0       0       0       0       0       0       0       0       0       0
       0       0       0       0       0       0       0       0       0       0
       0       0       0       0       0       0       0       0       0       0
       0       0       0       0       0       0       0       0       0       0
       0       0       0       0       0       0       0       0       0       0
       0       0       0       0       0       0       0       0       0       0
       0       0       0       0       0       0       0       0       0       0
       0       0       0       0       0       0       0       0       0       0
       0       0       0       0       0       0       0       0       0       0
       0       0       0       0       0       0       0       0       0       0
       0       0       0       0       0       0       0       0       0       0
       0       0       0       0       0       0       0       0       0       0
       0       0       0       0       0       0       0       0       0       0
       0       0       0       0       0       0       0       0       0       0
       0       0       0       0       0       0       0       0       0       0
       0       0       0       0       0       0       0       0       0       0
       0       0       0       0       0       0       0       0       0       0
       0       0       0       0       0       0       0       0       0       0
       0       0       0       0       0       0       0       0       0       0
       0       0       0       0       0       0       0       0       0       0
       0       0       0       0       0       0       0       0       0       0
       0       0       0       0       0       0       0       0       0       0
       0       0       0       0       0       0       0       0       0       0
       0       0       0       0       0       0       0       0       0       0
       0       0       0       0       0       0       0       0       0       0
       0       0       0       0       0       0       0       0       0       0
       0       0       0       0       0       0       0       0       0       0
       0       0       0       0       0       0       0       0       0       0
       0       0       0       0       0       0       0       0       0       0
       0       0       0       0       0       0       0       0       0       0
       0       0       0       0       0       0       0       0       0       0
       0       0       0       0       0       0       0       0       0       0
       0       0       0       0       0       0       0       0       0       0
       0       0       0       0       0       0       0       0       0       0
       0       0       0       0       0       0       0       0       0       0
       0       0       0       0       0       0       0       0       0       0
       0       0       0       0       0       0       0       0       0       0
       0       0       0       0       0       0       0       0       0       0
       0       0       0       0       0       0       0       0       0       0
       0       0       0       0       0       0       0       0       0       0
       0       0       0       0       0       0       0       0       0       0
       0       0       0       0       0       0       0       0       0       0
       0       0       0       0       0       0       0       0       0       0
       0       0       0       0       0       0       0       0       0       0
       0       0       0       0       0       0       0       0       0       0
       0       0       0       0       0       0       0       0       0       0
       0       0       0       0       0       0       0       0       0       0
       0       0       0       0       0       0       0       0       0       0
       0       0       0       0       0       0       0       0       0       0
       0       0       0       0       0       0       0       0       0       0
       0       0       0       0       0       0       0       0       0       0
       0       0       0       0       0       0       0       0       0       0
       0       0       0       0       0       0       0       0       0       0
       0       0       0       0       0       0       0       0       0       0
       0       0       0       0       0       0       0       0       0       0
       0       0       0       0       0       0       0       0       0       0
       0       0       0       0       0       0       0       0       0       0
       0       0       0       0       0       0       0       0       0       0
       0       0       0       0       0       0       0       0       0       0
       0       0       0       0       0       0       0       0       0       0
       0       0       0       0       0       0       0       0       0       0
       0       0       0       0       0       0       0       0       0       0
       0       0       0       0       0       0       0       0       0       0
       0       0       0       0       0       0       0       0       0       0
       0       0       0       0       0       0       0       0       0       0
       0       0       0       0       0       0       0       0       0       0
       0       0       0       0       0       0       0       0       0       0
       0       0       0       0       0       0       0       0       0       0
       0       0       0       0       0       0       0       0       0       0
       0       0       0       0       0       0       0       0       0       0
       0       0       0       0       0       0       0       0       0       0
       0       0       0       0       0       0       0       0       0       0
       0       0       0       0       0       0       0       0       0       0
       0       0       0       0       0       0       0       0       0       0
       0       0       0       0       0       0       0       0       0       0
       0       0       0       0       0       0       0       0       0       0
       0       0       0       0       0       0       0       0       0       0
       0       0       0       0       0       0       0       0       0       0
       0       0       0       0       0       0       0       0       0       0
       0       0       0       0       0       0       0       0       0       0
       0       0       0       0       0       0       0       0       0       0
       0       0       0       0       0       0       0       0       0       0
       0       0       0       0       0       0       0       0       0       0
       0       0       0       0       0       0       0       0       0       0
       0       0       0       0       0       0       0       0       0       0
       0       0       0       0       0       0       0       0       0       0
       0       0       0       0       0       0       0       0       0       0
       0       0       0       0       0       0       0       0       0       0
       0       0       0       0       0       0       0       0       0       0
       0       0       0       0       0       0       0       0       0       0
       0       0       0       0       0       0       0       0       0       0
       0       0       0       0       0       0       0       0       0       0
       0       0       0       0       0       0       0       0       0       0
       0       0       0       0       0       0       0       0       0       0
       0       0       0       0       0       0       0       0       0       0
       0       0       0       0       0       0       0       0       0       0
       0       0       0       0       0       0       0       0       0       0
       0       0       0       0       0       0       0       0       0       0
       0       0       0       0       0       0       0       0       0       0
       0       0       0       0       0       0       0       0       0       0
       0       0       0       0       0       0       0       0       0       0
       0       0       0       0       0       0       0       0       0       0
       0       0       0       0       0       0       0       0       0       0
       0       0       0       0       0       0       0       0       0       0
       0       0       0       0       0       0       0       0       0       0
       0       0       0       0       0       0       0       0       0       0
       0       0       0       0       0       0       0       0       0       0
       0       0       0       0       0       0       0       0       0       0
       0       0       0       0       0       0       0       0       0       0
       0       0       0       0       0       0       0       0       0       0
       0       0       0       0       0       0       0       0       0       0
       0       0       0       0       0       0       0       0       0       0
       0       0       0       0       0       0       0       0       0       0
       0       0       0       0       0       0       0       0       0       0
       0       0       0       0       0       0       0       0       0       0
       0       0       0       0       0       0       0       0       0       0
       0       0       0       0       0       0       0       0       0       0
       0       0       0       0       0       0       0       0       0       0
       0       0       0       0       0       0       0       0       0       0
       0       0       0       0       0       0       0       0       0       0
       0       0       0       0       0       0       0       0       0       0
       0       0       0       0       0       0       0       0       0       0
       0       0       0       0       0       0       0       0       0       0
       0       0       0       0       0       0       0       0       0       0
       0       0       0       0       0       0       0       0       0       0
       0       0       0       0       0       0       0       0       0       0
       0       0       0       0       0       0       0       0       0       0
       0       0       0       0       0       0       0       0       0       0
       0       0       0       0       0       0       0       0       0       0
       0       0       0       0       0       0       0       0       0       0
       0       0       0       0       0       0       0       0       0       0
       0       0       0       0       0       0       0       0       0       0
       0       0       0       0       0       0       0       0       0       0
       0       0       0       0       0       0       0       0       0       0
       0       0       0       0       0       0       0       0       0       0
       0       0       0       0       0       0       0       0       0       0
       0       0       0       0       0       0       0       0       0       0
       0       0       0       0       0       0       0       0       0       0
       0       0       0       0       0       0       0       0       0       0
       0       0       0       0       0       0       0       0       0       0
       0       0       0       0       0       0       0       0       0       0
       0       0       0       0       0       0       0       0       0       0
       0       0       0       0       0       0       0       0       0       0
       0       0       0       0       0       0       0       0       0       0
       0       0       0       0       0       0       0       0       0       0
       0       0       0       0       0       0       0       0       0       0
       0       0       0       0       0       0       0       0       0       0
       0       0       0       0       0       0       0       0       0       0
       0       0       0       0       0       0       0       0       0       0
       0       0       0       0       0       0       0       0       0       0
       0       0       0       0       0       0       0       0       0       0
       0       0       0       0       0       0       0       0       0       0
       0       0       0       0       0       0       0       0       0       0
       0       0       0       0       0       0       0       0       0       0
       0       0       0       0       0       0       0       0       0       0
       0       0       0       0       0       0       0       0       0       0
       0       0       0       0       0       0       0       0       0       0
       0       0       0       0       0       0       0       0       0       0
       0       0       0       0       0       0       0       0       0       0
       0       0       0       0       0       0       0       0       0       0
       0       0       0       0       0       0       0       0       0       0
       0       0       0       0       0       0       0       0       0       0
       0       0       0       0       0       0       0       0       0       0
       0       0       0       0       0       0       0       0       0       0
       0       0       0       0       0       0       0       0       0       0
       0       0       0       0       0       0       0       0       0       0
       0       0       0       0       0       0       0       0       0       0
       0       0       0       0       0       0       0       0       0       0
       0       0       0       0       0       0       0       0       0       0
       0       0       0       0       0       0       0       0       0       0
       0       0       0       0       0       0       0       0       0       0
       0       0       0       0       0       0       0       0       0       0
       0       0       0       0       0       0       0       0       0       0
       0       0       0       0       0       0       0       0       0       0
       0       0       0       0       0       0       0       0       0       0
       0       0       0       0       0       0       0       0       0       0
       0       0       0       0       0       0       0       0       0       0
       0       0       0       0       0       0       0       0       0       0
       0       0       0       0       0       0       0       0       0       0
       0       0       0       0       0       0       0       0       0       0
       0       0       0       0       0       0       0       0       0       0
       0       0       0       0       0       0       0       0       0       0
       0       0       0       0       0       0       0       0       0       0
       0       0       0       0       0       0       0       0       0       0
       0       0       0       0       0       0       0       0       0       0
       0       0       0       0       0       0       0       0       0       0
       0       0       0       0       0       0       0       0       0       0
       0       0       0       0       0       0       0       0       0       0
       0       0       0       0       0       0       0       0       0       0
       0       0       0       0       0       0       0       0       0       0
       0       0       0       0       0       0       0       0       0       0
       0       0       0       0       0       0       0       0       0       0
       0       0       0       0       0       0       0       0       0       0
       0       0       0       0       0       0       0       0       0       0
       0       0       0       0       0       0       0       0       0       0
       0       0       0       0       0       0       0       0       0       0
       0       0       0       0       0       0       0       0       0       0
       0       0       0       0       0       0       0       0       0       0
       0       0       0       0       0       0       0       0       0       0
       0       0       0       0       0       0       0       0       0       0
       0       0       0       0       0       0       0       0       0       0
       0       0       0       0       0       0       0       0       0       0
       0       0       0       0       0       0       0       0       0       0
       0       0       0       0       0       0       0       0       0       0
       0       0       0       0       0       0       0       0       0       0
       0       0       0       0       0       0       0       0       0       0
       0       0       0       0       0       0       0       0       0       0
       0       0       0       0       0       0       0       0       0       0
       0       0       0       0       0       0       0       0       0       0
       0       0       0       0       0       0       0       0       0       0
       0       0       0       0       0       0       0       0       0       0
       0       0       0       0       0       0       0       0       0       0
       0       0       0       0       0       0       0       0       0       0
       0       0       0       0       0       0       0       0       0       0
       0       0       0       0       0       0       0       0       0       0
       0       0       0       0       0       0       0       0       0       0
       0       0       0       0       0       0       0       0       0       0
       0       0       0       0       0       0       0       0       0       0
       0       0       0       0       0       0       0       0       0       0
       0       0       0       0       0       0       0       0       0       0
       0       0       0       0       0       0       0       0       0       0
       0       0       0       0       0       0       0       0       0       0
       0       0       0       0       0       0       0       0       0       0
       0       0       0       0       0       0       0       0       0       0
       0       0       0       0       0       0       0       0       0       0
       0       0       0       0       0       0       0       0       0       0
       0       0       0       0       0       0       0       0       0       0
       0       0       0       0       0       0       0       0       0       0
       0       0       0       0       0       0       0       0       0       0
       0       0       0       0       0       0       0       0       0       0
       0       0       0       0       0       0       0       0       0       0
       0       0       0       0       0       0       0       0       0       0
       0       0       0       0       0       0       0       0       0       0
       0       0       0       0       0       0       0       0       0       0
       0       0       0       0       0       0       0       0       0       0
       0       0       0       0       0       0       0       0       0       0
       0       0       0       0       0       0       0       0       0       0
       0       0       0       0       0       0       0       0       0       0
       0       0       0       0       0       0       0       0       0       0
       0       0       0       0       0       0       0       0       0       0
       0       0       0       0       0       0       0       0       0       0
       0       0       0       0       0       0       0       0       0       0
       0       0       0       0       0       0       0       0       0       0
       0       0       0       0       0       0       0       0       0       0
       0       0       0       0       0       0       0       0       0       0
       0       0       0       0       0       0       0       0       0       0
       0       0       0       0       0       0       0       0       0       0
       0       0       0       0       0       0       0       0       0       0
       0       0       0       0       0       0       0       0       0       0
       0       0       0       0       0       0       0       0       0       0
       0       0       0       0       0       0       0       0       0       0
       0       0       0       0       0       0       0       0       0       0
       0       0       0       0       0       0       0       0       0       0
       0       0       0       0       0       0       0       0       0       0
       0       0       0       0       0       0       0       0       0       0
       0       0       0       0       0       0       0       0       0       0
       0       0       0       0       0       0       0       0       0       0
       0       0       0       0       0       0       0       0       0       0
       0       0       0       0       0       0       0       0       0       0
       0       0       0       0       0       0       0       0       0       0
       0       0       0       0       0       0       0       0       0       0
       0       0       0       0       0       0       0       0       0       0
       0       0       0       0       0       0       0       0       0       0
       0       0       0       0       0       0       0       0       0       0
       0       0       0       0       0       0       0       0       0       0
       0       0       0       0       0       0       0       0       0       0
       0       0       0       0       0       0       0       0       0       0
       0       0       0       0       0       0       0       0       0       0
       0       0       0       0       0       0       0       0       0       0
       0       0       0       0       0       0       0       0       0       0
       0       0       0       0       0       0       0       0       0       0
       0       0       0       0       0       0       0       0       0       0
       0       0       0       0       0       0       0       0       0       0
       0       0       0       0       0       0       0       0       0       0
       0       0       0       0       0       0       0       0       0       0
       0       0       0       0       0       0       0       0       0       0
       0       0       0       0       0       0       0       0       0       0
       0       0       0       0       0       0       0       0       0       0
       0       0       0       0       0       0       0       0       0       0
       0       0       0       0       0       0       0       0       0       0
       0       0       0       0       0       0       0       0       0       0
       0       0       0       0       0       0       0       0       0       0
       0       0       0       0       0       0       0       0       0       0
       0       0       0       0       0       0       0       0       0       0
       0       0       0       0       0       0       0       0       0       0
       0       0       0       0       0       0       0       0       0       0
       0       0       0       0       0       0       0       0       0       0
       0       0       0       0       0       0       0       0       0       0
       0       0       0       0       0       0       0       0       0       0
       0       0       0       0       0       0       0       0       0       0
       0       0       0       0       0       0       0       0       0       0
       0       0       0       0       0       0       0       0       0       0
       0       0       0       0       0       0       0       0       0       0
       0       0       0       0       0       0       0       0       0       0
       0       0       0       0       0       0       0       0       0       0
       0       0       0       0       0       0       0       0       0       0
       0       0       0       0       0       0       0       0       0       0
       0       0       0       0       0       0       0       0       0       0
       0       0       0       0       0       0       0       0       0       0
       0       0       0       0       0       0       0       0       0       0
       0       0       0       0       0       0       0       0       0       0
       0       0       0       0       0       0       0       0       0       0
       0       0       0       0       0       0       0       0       0       0
       0       0       0       0       0       0       0       0       0       0
       0       0       0       0       0       0       0       0       0       0
       0       0       0       0       0       0       0       0       0       0
       0       0       0       0       0       0       0       0       0       0
       0       0       0       0       0       0       0       0       0       0
       0       0       0       0       0       0       0       0       0       0
       0       0       0       0       0       0       0       0       0       0
       0       0       0       0       0       0       0       0       0       0
       0       0       0       0       0       0       0       0       0       0
       0       0       0       0       0       0       0       0       0       0
       0       0       0       0       0       0       0       0       0       0
       0       0       0       0       0       0       0       0       0       0
       0       0       0       0       0       0       0       0       0       0
       0       0       0       0       0       0       0       0       0       0
       0       0       0       0       0       0       0       0       0       0
       0       0       0       0       0       0       0       0       0       0
       0       0       0       0       0       0       0       0       0       0
       0       0       0       0       0       0       0       0       0       0
       0       0       0       0       0       0       0       0       0       0
       0       0       0       0       0       0       0       0       0       0
       0       0       0       0       0       0       0       0       0       0
       0       0       0       0       0       0       0       0       0       0
       0       0       0       0       0       0       0       0       0       0
       0       0       0       0       0       0       0       0       0       0
       0       0       0       0       0       0       0       0       0       0
       0       0       0       0       0       0       0       0       0       0
       0       0       0       0       0       0       0       0       0       0
       0       0       0       0       0       0       0       0       0       0
       0       0       0       0       0       0       0       0       0       0
       0       0       0       0       0       0       0       0       0       0
       0       0       0       0       0       0       0       0       0       0
       0       0       0       0       0       0       0       0       0       0
       0       0       0       0       0       0       0       0       0       0
       0       0       0       0       0       0       0       0       0       0
       0       0       0       0       0       0       0       0       0       0
       0       0       0       0       0       0       0       0       0       0
       0       0       0       0       0       0       0       0       0       0
       0       0       0       0       0       0       0       0       0       0
       0       0       0       0       0       0       0       0       0       0
       0       0       0       0       0       0       0       0       0       0
       0       0       0       0       0       0       0       0       0       0
       0       0       0       0       0       0       0       0       0       0
       0       0       0       0       0       0       0       0       0       0
       0       0       0       0       0       0       0       0       0       0
       0       0       0       0       0       0       0       0       0       0
       0       0       0       0       0       0       0       0       0       0
       0       0       0       0       0       0       0       0       0       0
       0       0       0       0       0       0       0       0       0       0
       0       0       0       0       0       0       0       0       0       0
       0       0       0       0       0       0       0       0       0       0
       0       0       0       0       0       0       0       0       0       0
       0       0       0       0       0       0       0       0       0       0
       0       0       0       0       0       0       0       0       0       0
       0       0       0       0       0       0       0       0       0       0
       0       0       0       0       0       0       0       0       0       0
       0       0       0       0       0       0       0       0       0       0
       0       0       0       0       0       0       0       0       0       0
       0       0       0       0       0       0       0       0       0       0
       0       0       0       0       0       0       0       0       0       0
       0       0       0       0       0       0       0       0       0       0
       0       0       0       0       0       0       0       0       0       0
       0       0       0       0       0       0       0       0       0       0
       0       0       0       0       0       0       0       0       0       0
       0       0       0       0       0       0       0       0       0       0
       0       0       0       0       0       0       0       0       0       0
       0       0       0       0       0       0       0       0       0       0
       0       0       0       0       0       0       0       0       0       0
       0       0       0       0       0       0       0       0       0       0
       0       0       0       0       0       0       0       0       0       0
       0       0       0       0       0       0       0       0       0       0
       0       0       0       0       0       0       0       0       0       0
       0       0       0       0       0       0       0       0       0       0
       0       0       0       0       0       0       0       0       0       0
       0       0       0       0       0       0       0       0       0       0
       0       0       0       0       0       0       0       0       0       0
       0       0       0       0       0       0       0       0       0       0
       0       0       0       0       0       0       0       0       0       0
       0       0       0       0       0       0       0       0       0       0
       0       0       0       0       0       0       0       0       0       0
       0       0       0       0       0       0       0       0       0       0
       0       0       0       0       0       0       0       0       0       0
       0       0       0       0       0       0       0       0       0       0
       0       0       0       0       0       0       0       0       0       0
       0       0       0       0       0       0       0       0       0       0
       0       0       0       0       0       0       0       0       0       0
       0       0       0       0       0       0       0       0       0       0
       0       0       0       0       0       0       0       0       0       0
       0       0       0       0       0       0       0       0       0       0
       0       0       0       0       0       0       0       0       0       0
       0       0       0       0       0       0       0       0       0       0
       0       0       0       0       0       0       0       0       0       0
       0       0       0       0       0       0       0       0       0       0
       0       0       0       0       0       0       0       0       0       0
       0       0       0       0       0       0       0       0       0       0
       0       0       0       0       0       0       0       0       0       0
       0       0       0       0       0       0       0       0       0       0
       0       0       0       0       0       0       0       0       0       0
       0       0       0       0       0       0       0       0       0       0
       0       0       0       0       0       0       0       0       0       0
       0       0       0       0       0       0       0       0       0       0
       0       0       0       0       0       0       0       0       0       0
       0       0       0       0       0       0       0       0       0       0
       0       0       0       0       0       0       0       0       0       0
       0       0       0       0       0       0       0       0       0       0
       0       0       0       0       0       0       0       0       0       0
       0       0       0       0       0       0       0       0       0       0
       0       0       0       0       0       0       0       0       0       0
       0       0       0       0       0       0       0       0       0       0
       0       0       0       0       0       0       0       0       0       0
       0       0       0       0       0       0       0       0       0       0
       0       0       0       0       0       0       0       0       0       0
       0       0       0       0       0       0       0       0       0       0
       0       0       0       0       0       0       0       0       0       0
       0       0       0       0       0       0       0       0       0       0
       0       0       0       0       0       0       0       0       0       0
       0       0       0       0       0       0       0       0       0       0
       0       0       0       0       0       0       0       0       0       0
       0       0       0       0       0       0       0       0       0       0
       0       0       0       0       0       0       0       0       0       0
       0       0       0       0       0       0       0       0       0       0
       0       0       0       0       0       0       0       0       0       0
       0       0       0       0       0       0       0       0       0       0
       0       0       0       0       0       0       0       0       0       0
       0       0       0       0       0       0       0       0       0       0
       0       0       0       0       0       0       0       0       0       0
       0       0       0       0       0       0       0       0       0       0
       0       0       0       0       0       0       0       0       0       0
       0       0       0       0       0       0       0       0       0       0
       0       0       0       0       0       0       0       0       0       0
       0       0       0       0       0       0       0       0       0       0
       0       0       0       0       0       0       0       0       0       0
       0       0       0       0       0       0       0       0       0       0
       0       0       0       0       0       0       0       0       0       0
       0       0       0       0       0       0       0       0       0       0
       0       0       0       0       0       0       0       0       0       0
       0       0       0       0       0       0       0       0       0       0
       0       0       0       0       0       0       0       0       0       0
       0       0       0       0       0       0       0       0       0       0
       0       0       0       0       0       0       0       0       0       0
       0       0       0       0       0       0       0       0       0       0
       0       0       0       0       0       0       0       0       0       0
       0       0       0       0       0       0       0       0       0       0
       0       0       0       0       0       0       0       0       0       0
       0       0       0       0       0       0       0       0       0       0
       0       0       0       0       0       0       0       0       0       0
       0       0       0       0       0       0       0       0       0       0
       0       0       0       0       0       0       0       0       0       0
       0       0       0       0       0       0       0       0       0       0
       0       0       0       0       0       0       0       0       0       0
       0       0       0       0       0       0       0       0       0       0
       0       0       0       0       0       0       0       0       0       0
       0       0       0       0       0       0       0       0       0       0
       0       0       0       0       0       0       0       0       0       0
       0       0       0       0       0       0       0       0       0       0
       0       0       0       0       0       0       0       0       0       0
       0       0       0       0       0       0       0       0       0       0
       0       0       0       0       0       0       0       0       0       0
       0       0       0       0       0       0       0       0       0       0
       0       0       0       0       0       0       0       0       0       0
       0       0       0       0       0       0       0       0       0       0
       0       0       0       0       0       0       0       0       0       0
       0       0       0       0       0       0       0       0       0       0
       0       0       0       0       0       0       0       0       0       0
       0       0       0       0       0       0       0       0       0       0
       0       0       0       0       0       0       0       0       0       0
       0       0       0       0       0       0       0       0       0       0
       0       0       0       0       0       0       0       0       0       0
       0       0       0       0       0       0       0       0       0       0
       0       0       0       0       0       0       0       0       0       0
       0       0       0       0       0       0       0       0       0       0
       0       0       0       0       0       0       0       0       0       0
       0       0       0       0       0       0       0       0       0       0
       0       0       0       0       0       0       0       0       0       0
       0       0       0       0       0       0       0       0       0       0
       0       0       0       0       0       0       0       0       0       0
       0       0       0       0       0       0       0       0       0       0
       0       0       0       0       0       0       0       0       0       0
       0       0       0       0       0       0       0       0       0       0
       0       0       0       0       0       0       0       0       0       0
       0       0       0       0       0       0       0       0       0       0
       0       0       0       0       0       0       0       0       0       0
       0       0       0       0       0       0       0       0       0       0
       0       0       0       0       0       0       0       0       0       0
       0       0       0       0       0       0       0       0       0       0
       0       0       0       0       0       0       0       0       0       0
       0       0       0       0       0       0       0       0       0       0
       0       0       0       0       0       0       0       0       0       0
       0       0       0       0       0       0       0       0       0       0
       0       0       0       0       0       0       0       0       0       0
       0       0       0       0       0       0       0       0       0       0
       0       0       0       0       0       0       0       0       0       0
       0       0       0       0       0       0       0       0       0       0
       0       0       0       0       0       0       0       0       0       0
       0       0       0       0       0       0       0       0       0       0
       0       0       0       0       0       0       0       0       0       0
       0       0       0       0       0       0       0       0       0       0
       0       0       0       0       0       0       0       0       0       0
       0       0       0       0       0       0       0       0       0       0
       0       0       0       0       0       0       0       0       0       0
       0       0       0       0       0       0       0       0       0       0
       0       0       0       0       0       0       0       0       0       0
       0       0       0       0       0       0       0       0       0       0
       0       0       0       0       0       0       0       0       0       0
       0       0       0       0       0       0       0       0       0       0
       0       0       0       0       0       0       0       0       0       0
       0       0       0       0       0       0       0       0       0       0
       0       0       0       0       0       0       0       0       0       0
       0       0       0       0       0       0       0       0       0       0
       0       0       0       0       0       0       0       0       0       0
       0       0       0       0       0       0       0       0       0       0
       0       0       0       0       0       0       0       0       0       0
       0       0       0       0       0       0       0       0       0       0
       0       0       0       0       0       0       0       0       0       0
       0       0       0       0       0       0       0       0       0       0
       0       0       0       0       0       0       0       0       0       0
       0       0       0       0       0       0       0       0       0       0
       0       0       0       0       0       0       0       0       0       0
       0       0       0       0       0       0       0       0       0       0
       0       0       0       0       0       0       0       0       0       0
       0       0       0       0       0       0       0       0       0       0
       0       0       0       0       0       0       0       0       0       0
       0       0       0       0       0       0       0       0       0       0
       0       0       0       0       0       0       0       0       0       0
       0       0       0       0       0       0       0       0       0       0
       0       0       0       0       0       0       0       0       0       0
       0       0       0       0       0       0       0       0       0       0
       0       0       0       0       0       0       0       0       0       0
       0       0       0       0       0       0       0       0       0       0
       0       0       0       0       0       0       0       0       0       0
       0       0       0       0       0       0       0       0       0       0
       0       0       0       0       0       0       0       0       0       0
       0       0       0       0       0       0       0       0       0       0
       0       0       0       0       0       0       0       0       0       0
       0       0       0       0       0       0       0       0       0       0
       0       0       0       0       0       0       0       0       0       0
       0       0       0       0       0       0       0       0       0       0
       0       0       0       0       0       0       0       0       0       0
       0       0       0       0       0       0       0       0       0       0
       0       0       0       0       0       0       0       0       0       0
       0       0       0       0       0       0       0       0       0       0
       0       0       0       0       0       0       0       0       0       0
       0       0       0       0       0       0       0       0       0       0
       0       0       0       0       0       0       0       0       0       0
       0       0       0       0       0       0       0       0       0       0
       0       0       0       0       0       0       0       0       0       0
       0       0       0       0       0       0       0       0       0       0
       0       0       0       0       0       0       0       0       0       0
       0       0       0       0       0       0       0       0       0       0
       0       0       0       0       0       0       0       0       0       0
       0       0       0       0       0       0       0       0       0       0
       0       0       0       0       0       0       0       0       0       0
       0       0       0       0       0       0       0       0       0       0
       0       0       0       0       0       0       0       0       0       0
       0       0       0       0       0       0       0       0       0       0
       0       0       0       0       0       0       0       0       0       0
       0       0       0       0       0       0       0       0       0       0
       0       0       0       0       0       0       0       0       0       0
       0       0       0       0       0       0       0       0       0       0
       0       0       0       0       0       0       0       0       0       0
       0       0       0       0       0       0       0       0       0       0
       0       0       0       0       0       0       0       0       0       0
       0       0       0       0       0       0       0       0       0       0
       0       0       0       0       0       0       0       0       0       0
       0       0       0       0       0       0       0       0       0       0
       0       0       0       0       0       0       0       0       0       0
       0       0       0       0       0       0       0       0       0       0
       0       0       0       0       0       0       0       0       0       0
       0       0       0       0       0       0       0       0       0       0
       0       0       0       0       0       0       0       0       0       0
       0       0       0       0       0       0       0       0       0       0
       0       0       0       0       0       0       0       0       0       0
       0       0       0       0       0       0       0       0       0       0
       0       0       0       0       0       0       0       0       0       0
       0       0       0       0       0       0       0       0       0       0
       0       0       0       0       0       0       0       0       0       0
       0       0       0       0       0       0       0       0       0       0
       0       0       0       0       0       0       0       0       0       0
       0       0       0       0       0       0       0       0       0       0
       0       0       0       0       0       0       0       0       0       0
       0       0       0       0       0       0       0       0       0       0
       0       0       0       0       0       0       0       0       0       0
       0       0       0       0       0       0       0       0       0       0
       0       0       0       0       0       0       0       0       0       0
       0       0       0       0       0       0       0       0       0       0
       0       0       0       0       0       0       0       0       0       0
       0       0       0       0       0       0       0       0       0       0
       0       0       0       0       0       0       0       0       0       0
       0       0       0       0       0       0       0       0       0       0
       0       0       0       0       0       0       0       0       0       0
       0       0       0       0       0       0       0       0       0       0
       0       0       0       0       0       0       0       0       0       0
       0       0       0       0       0       0       0       0       0       0
       0       0       0       0       0       0       0       0       0       0
       0       0       0       0       0       0       0       0       0       0
       0       0       0       0       0       0       0       0       0       0
       0       0       0       0       0       0       0       0       0       0
       0       0       0       0       0       0       0       0       0       0
       0       0       0       0       0       0       0       0       0       0
       0       0       0       0       0       0       0       0       0       0
       0       0       0       0       0       0       0       0       0       0
       0       0       0       0       0       0       0       0       0       0
       0       0       0       0       0       0       0       0       0       0
       0       0       0       0       0       0       0       0       0       0
       0       0       0       0       0       0       0       0       0       0
       0       0       0       0       0       0       0       0       0       0
       0       0       0       0       0       0       0       0       0       0
       0       0       0       0       0       0       0       0       0       0
       0       0       0       0       0       0       0       0       0       0
       0       0       0       0       0       0       0       0       0       0
       0       0       0       0       0       0       0       0       0       0
       0       0       0       0       0       0       0       0       0       0
       0       0       0       0       0       0       0       0       0       0
       0       0       0       0       0       0       0       0       0       0
       0       0       0       0       0       0       0       0       0       0
       0       0       0       0       0       0       0       0       0       0
       0       0       0       0       0       0       0       0       0       0
       0       0       0       0       0       0       0       0       0       0
       0       0       0       0       0       0       0       0       0       0
       0       0       0       0       0       0       0       0       0       0
       0       0       0       0       0       0       0       0       0       0
       0       0       0       0       0       0       0       0       0       0
       0       0       0       0       0       0       0       0       0       0
       0       0       0       0       0       0       0       0       0       0
       0       0       0       0       0       0       0       0       0       0
       0       0       0       0       0       0       0       0       0       0
       0       0       0       0       0       0       0       0       0       0
       0       0       0       0       0       0       0       0       0       0
       0       0       0       0       0       0       0       0       0       0
       0       0       0       0       0       0       0       0       0       0
       0       0       0       0       0       0       0       0       0       0
       0       0       0       0       0       0       0       0       0       0
       0       0       0       0       0       0       0       0       0       0
       0       0       0       0       0       0       0       0       0       0
       0       0       0       0       0       0       0       0       0       0
       0       0       0       0       0       0       0       0       0       0
       0       0       0       0       0       0       0       0       0       0
       0       0       0       0       0       0       0       0       0       0
       0       0       0       0       0       0       0       0       0       0
       0       0       0       0       0       0       0       0       0       0
       0       0       0       0       0       0       0       0       0       0
       0       0       0       0       0       0       0       0       0       0
       0       0       0       0       0       0       0       0       0       0
       0       0       0       0       0       0       0       0       0       0
       0       0       0       0       0       0       0       0       0       0
       0       0       0       0       0       0       0       0       0       0
       0       0       0       0       0       0       0       0       0       0
       0       0       0       0       0       0       0       0       0       0
       0       0       0       0       0       0       0       0       0       0
       0       0       0       0       0       0       0       0       0       0
       0       0       0       0       0       0       0       0       0       0
       0       0       0       0       0       0       0       0       0       0
       0       0       0       0       0       0       0       0       0       0
       0       0       0       0       0       0       0       0       0       0
       0       0       0       0       0       0       0       0       0       0
       0       0       0       0       0       0       0       0       0       0
       0       0       0       0       0       0       0       0       0       0
       0       0       0       0       0       0       0       0       0       0
       0       0       0       0       0       0       0       0       0       0
       0       0       0       0       0       0       0       0       0       0
       0       0       0       0       0       0       0       0       0       0
       0       0       0       0       0       0       0       0       0       0
       0       0       0       0       0       0       0       0       0       0
       0       0       0       0       0       0       0       0       0       0
       0       0       0       0       0       0       0       0       0       0
       0       0       0       0       0       0       0       0       0       0
       0       0       0       0       0       0       0       0       0       0
       0       0       0       0       0       0       0       0       0       0
       0       0       0       0       0       0       0       0       0       0
       0       0       0       0       0       0       0       0       0       0
       0       0       0       0       0       0       0       0       0       0
       0       0       0       0       0       0       0       0       0       0
       0       0       0       0       0       0       0       0       0       0
       0       0       0       0       0       0       0       0       0       0
       0       0       0       0       0       0       0       0       0       0
       0       0       0       0       0       0       0       0       0       0
       0       0       0       0       0       0       0       0       0       0
       0       0       0       0       0       0       0       0       0       0
       0       0       0       0       0       0       0       0       0       0
       0       0       0       0       0       0       0       0       0       0
       0       0       0       0       0       0       0       0       0       0
       0       0       0       0       0       0       0       0       0       0
       0       0       0       0       0       0       0       0       0       0
       0       0       0       0       0       0       0       0       0       0
       0       0       0       0       0       0       0       0       0       0
       0       0       0       0       0       0       0       0       0       0
       0       0       0       0       0       0       0       0       0       0
       0       0       0       0       0       0       0       0       0       0
       0       0       0       0       0       0       0       0       0       0
       0       0       0       0       0       0       0       0       0       0
       0       0       0       0       0       0       0       0       0       0
       0       0       0       0       0       0       0       0       0       0
       0       0       0       0       0       0       0       0       0       0
       0       0       0       0       0       0       0       0       0       0
       0       0       0       0       0       0       0       0       0       0
       0       0       0       0       0       0       0       0       0       0
       0       0       0       0       0       0       0       0       0       0
       0       0       0       0       0       0       0       0       0       0
       0       0       0       0       0       0       0       0       0       0
       0       0       0       0       0       0       0       0       0       0
       0       0       0       0       0       0       0       0       0       0
       0       0       0       0       0       0       0       0       0       0
       0       0       0       0       0       0       0       0       0       0
       0       0       0       0       0       0       0       0       0       0
       0       0       0       0       0       0       0       0       0       0
       0       0       0       0       0       0       0       0       0       0
       0       0       0       0       0       0       0       0       0       0
       0       0       0       0       0       0       0       0       0       0
       0       0       0       0       0       0       0       0       0       0
       0       0       0       0       0       0       0       0       0       0
       0       0       0       0       0       0       0       0       0       0
       0       0       0       0       0       0       0       0       0       0
       0       0       0       0       0       0       0       0       0       0
       0       0       0       0       0       0       0       0       0       0
       0       0       0       0       0       0       0       0       0       0
       0       0       0       0       0       0       0       0       0       0
       0       0       0       0       0       0       0       0       0       0
       0       0       0       0       0       0       0       0       0       0
       0       0       0       0       0       0       0       0       0       0
       0       0       0       0       0       0       0       0       0       0
       0       0       0       0       0       0       0       0       0       0
       0       0       0       0       0       0       0       0       0       0
       0       0       0       0       0       0       0       0       0       0
       0       0       0       0       0       0       0       0       0       0
       0       0       0       0       0       0       0       0       0       0
       0       0       0       0       0       0       0       0       0       0
       0       0       0       0       0       0       0       0       0       0
       0       0       0       0       0       0       0       0       0       0
       0       0       0       0       0       0       0       0       0       0
       0       0       0       0       0       0       0       0       0       0
       0       0       0       0       0       0       0       0       0       0
       0       0       0       0       0       0       0       0       0       0
       0       0       0       0       0       0       0       0       0       0
       0       0       0       0       0       0       0       0       0       0
       0       0       0       0       0       0       0       0       0       0
       0       0       0       0       0       0       0       0       0       0
       0       0       0       0       0       0       0       0       0       0
       0       0       0       0       0       0       0       0       0       0
       0       0       0       0       0       0       0       0       0       0
       0       0       0       0       0       0       0       0       0       0
       0       0       0       0       0       0       0       0       0       0
       0       0       0       0       0       0       0       0       0       0
       0       0       0       0       0       0       0       0       0       0
       0       0       0       0       0       0       0       0       0       0
       0       0       0       0       0       0       0       0       0       0
       0       0       0       0       0       0       0       0       0       0
       0       0       0       0       0       0       0       0       0       0
       0       0       0       0       0       0       0       0       0       0
       0       0       0       0       0       0       0       0       0       0
       0       0       0       0       0       0       0       0       0       0
       0       0       0       0       0       0       0       0       0       0
       0       0       0       0       0       0       0       0       0       0
       0       0       0       0       0       0       0       0       0       0
       0       0       0       0       0       0       0       0       0       0
       0       0       0       0       0       0       0       0       0       0
       0       0       0       0       0       0       0       0       0       0
       0       0       0       0       0       0       0       0       0       0
       0       0       0       0       0       0       0       0       0       0
       0       0       0       0       0       0       0       0       0       0
       0       0       0       0       0       0       0       0       0       0
       0       0       0       0       0       0       0       0       0       0
       0       0       0       0       0       0       0       0       0       0
       0       0       0       0       0       0       0       0       0       0
       0       0       0       0       0       0       0       0       0       0
       0       0       0       0       0       0       0       0       0       0
       0       0       0       0       0       0       0       0       0       0
       0       0       0       0       0       0       0       0       0       0
       0       0       0       0       0       0       0       0       0       0
       0       0       0       0       0       0       0       0       0       0
       0       0       0       0       0       0       0       0       0       0
       0       0       0       0       0       0       0       0       0       0
       0       0       0       0       0       0       0       0       0       0
       0       0       0       0       0       0       0       0       0       0
       0       0       0       0       0       0       0       0       0       0
       0       0       0       0       0       0       0       0       0       0
       0       0       0       0       0       0       0       0       0       0
       0       0       0       0       0       0       0       0       0       0
       0       0       0       0       0       0       0       0       0       0
       0       0       0       0       0       0       0       0       0       0
       0       0       0       0       0       0       0       0       0       0
       0       0       0       0       0       0       0       0       0       0
       0       0       0       0       0       0       0       0       0       0
       0       0       0       0       0       0       0       0       0       0
       0       0       0       0       0       0       0       0       0       0
       0       0       0       0       0       0       0       0       0       0
       0       0       0       0       0       0       0       0       0       0
       0       0       0       0       0       0       0       0       0       0
       0       0       0       0       0       0       0       0       0       0
       0       0       0       0       0       0       0       0       0       0
       0       0       0       0       0       0       0       0       0       0
       0       0       0       0       0       0       0       0       0       0
       0       0       0       0       0       0       0       0       0       0
       0       0       0       0       0       0       0       0       0       0
       0       0       0       0       0       0       0       0       0       0
       0       0       0       0       0       0       0       0       0       0
       0       0       0       0       0       0       0       0       0       0
       0       0       0       0       0       0       0       0       0       0
       0       0       0       0       0       0       0       0       0       0
       0       0       0       0       0       0       0       0       0       0
       0       0       0       0       0       0       0       0       0       0
       0       0       0       0       0       0       0       0       0       0
       0       0       0       0       0       0       0       0       0       0
       0       0       0       0       0       0       0       0       0       0
       0       0       0       0       0       0       0       0       0       0
       0       0       0       0       0       0       0       0       0       0
       0       0       0       0       0       0       0       0       0       0
       0       0       0       0       0       0       0       0       0       0
       0       0       0       0       0       0       0       0       0       0
       0       0       0       0       0       0       0       0       0       0
       0       0       0       0       0       0       0       0       0       0
       0       0       0       0       0       0       0       0       0       0
       0       0       0       0       0       0       0       0       0       0
       0       0       0       0       0       0       0       0       0       0
       0       0       0       0       0       0       0       0       0       0
       0       0       0       0       0       0       0       0       0       0
       0       0       0       0       0       0       0       0       0       0
       0       0       0       0       0       0       0       0       0       0
       0       0       0       0       0       0       0       0       0       0
       0       0       0       0       0       0       0       0       0       0
       0       0       0       0       0       0       0       0       0       0
       0       0       0       0       0       0       0       0       0       0
       0       0       0       0       0       0       0       0       0       0
       0       0       0       0       0       0       0       0       0       0
       0       0       0       0       0       0       0       0       0       0
       0       0       0       0       0       0       0       0       0       0
       0       0       0       0       0       0       0       0       0       0
       0       0       0       0       0       0       0       0       0       0
       0       0       0       0       0       0       0       0       0       0
       0       0       0       0       0       0       0       0       0       0
       0       0       0       0       0       0       0       0       0       0
       0       0       0       0       0       0       0       0       0       0
       0       0       0       0       0       0       0       0       0       0
       0       0       0       0       0       0       0       0       0       0
       0       0       0       0       0       0       0       0       0       0
       0       0       0       0       0       0       0       0       0       0
       0       0       0       0       0       0       0       0       0       0
       0       0       0       0       0       0       0       0       0       0
       0       0       0       0       0       0       0       0       0       0
       0       0       0       0       0       0       0       0       0       0
       0       0       0       0       0       0       0       0       0       0
       0       0       0       0       0       0       0       0       0       0
       0       0       0       0       0       0       0       0       0       0
       0       0       0       0       0       0       0       0       0       0
       0       0       0       0       0       0       0       0       0       0
       0       0       0       0       0       0       0       0       0       0
       0       0       0       0       0       0       0       0       0       0
       0       0       0       0       0       0       0       0       0       0
       0       0       0       0       0       0       0       0       0       0
       0       0       0       0       0       0       0       0       0       0
       0       0       0       0       0       0       0       0       0       0
       0       0       0       0       0       0       0       0       0       0
       0       0       0       0       0       0       0       0       0       0
       0       0       0       0       0       0       0       0       0       0
       0       0       0       0       0       0       0       0       0       0
       0       0       0       0       0       0       0       0       0       0
       0       0       0       0       0       0       0       0       0       0
       0       0       0       0       0       0       0       0       0       0
       0       0       0       0       0       0       0       0       0       0
       0       0       0       0       0       0       0       0       0       0
       0       0       0       0       0       0       0       0       0       0
       0       0       0       0       0       0       0       0       0       0
       0       0       0       0       0       0       0       0       0       0
       0       0       0       0       0       0       0       0       0       0
       0       0       0       0       0       0       0       0       0       0
       0       0       0       0       0       0       0       0       0       0
       0       0       0       0       0       0       0       0       0       0
       0       0       0       0       0       0       0       0       0       0
       0       0       0       0       0       0       0       0       0       0
       0       0       0       0       0       0       0       0       0       0
       0       0       0       0       0       0       0       0       0       0
       0       0       0       0       0       0       0       0       0       0
       0       0       0       0       0       0       0       0       0       0
       0       0       0       0       0       0       0       0       0       0
       0       0       0       0       0       0       0       0       0       0
       0       0       0       0       0       0       0       0       0       0
       0       0       0       0       0       0       0       0       0       0
       0       0       0       0       0       0       0       0       0       0
       0       0       0       0       0       0       0       0       0       0
       0       0       0       0       0       0       0       0       0       0
       0       0       0       0       0       0       0       0       0       0
       0       0       0       0       0       0       0       0       0       0
       0       0       0       0       0       0       0       0       0       0
       0       0       0       0       0       0       0       0       0       0
       0       0       0       0       0       0       0       0       0       0
       0       0       0       0       0       0       0       0       0       0
       0       0       0       0       0       0       0       0       0       0
       0       0       0       0       0       0       0       0       0       0
       0       0       0       0       0       0       0       0       0       0
       0       0       0       0       0       0       0       0       0       0
       0       0       0       0       0       0       0       0       0       0
       0       0       0       0       0       0       0       0       0       0
       0       0       0       0       0       0       0       0       0       0
       0       0       0       0       0       0       0       0       0       0
       0       0       0       0       0       0       0       0       0       0
       0       0       0       0       0       0       0       0       0       0
       0       0       0       0       0       0       0       0       0       0
       0       0       0       0       0       0       0       0       0       0
       0       0       0       0       0       0       0       0       0       0
       0       0       0       0       0       0       0       0       0       0
       0       0       0       0       0       0       0       0       0       0
       0       0       0       0       0       0       0       0       0       0
       0       0       0       0       0       0       0       0       0       0
       0       0       0       0       0       0       0       0       0       0
       0       0       0       0       0       0       0       0       0       0
       0       0       0       0       0       0       0       0       0       0
       0       0       0       0       0       0       0       0       0       0
       0       0       0       0       0       0       0       0       0       0
       0       0       0       0       0       0       0       0       0       0
       0       0       0       0       0       0       0       0       0       0
       0       0       0       0       0       0       0       0       0       0
       0       0       0       0       0       0       0       0       0       0
       0       0       0       0       0       0       0       0       0       0
       0       0       0       0       0       0       0       0       0       0
       0       0       0       0       0       0       0       0       0       0
       0       0       0       0       0       0       0       0       0       0
       0       0       0       0       0       0       0       0       0       0
       0       0       0       0       0       0       0       0       0       0
       0       0       0       0       0       0       0       0       0       0
       0       0       0       0       0       0       0       0       0       0
       0       0       0       0       0       0       0       0       0       0
       0       0       0       0       0       0       0       0       0       0
       0       0       0       0       0       0       0       0       0       0
       0       0       0       0       0       0       0       0       0       0
       0       0       0       0       0       0       0       0       0       0
       0       0       0       0       0       0       0       0       0       0
       0       0       0       0       0       0       0       0       0       0
       0       0       0       0       0       0       0       0       0       0
       0       0       0       0       0       0       0       0       0       0
       0       0       0       0       0       0       0       0       0       0
       0       0       0       0       0       0       0       0       0       0
       0       0       0       0       0       0       0       0       0       0
       0       0       0       0       0       0       0       0       0       0
       0       0       0       0       0       0       0       0       0       0
       0       0       0       0       0       0       0       0       0       0
       0       0       0       0       0       0       0       0       0       0
       0       0       0       0       0       0       0       0       0       0
       0       0       0       0       0       0       0       0       0       0
       0       0       0       0       0       0       0       0       0       0
       0       0       0       0       0       0       0       0       0       0
       0       0       0       0       0       0       0       0       0       0
       0       0       0       0       0       0       0       0       0       0
       0       0       0       0       0       0       0       0       0       0
       0       0       0       0       0       0       0       0       0       0
       0       0       0       0       0       0       0       0       0       0
       0       0       0       0       0       0       0       0       0       0
       0       0       0       0       0       0       0       0       0       0
       0       0       0       0       0       0       0       0       0       0
       0       0       0       0       0       0       0       0       0       0
       0       0       0       0       0       0       0       0       0       0
       0       0       0       0       0       0       0       0       0       0
       0       0       0       0       0       0       0       0       0       0
       0       0       0       0       0       0       0       0       0       0
       0       0       0       0       0       0       0       0       0       0
       0       0       0       0       0       0       0       0       0       0
       0       0       0       0       0       0       0       0       0       0
       0       0       0       0       0       0       0       0       0       0
       0       0       0       0       0       0       0       0       0       0
       0       0       0       0       0       0       0       0       0       0
       0       0       0       0       0       0       0       0       0       0
       0       0       0       0       0       0       0       0       0       0
       0       0       0       0       0       0       0       0       0       0
       0       0       0       0       0       0       0       0       0       0
       0       0       0       0       0       0       0       0       0       0
       0       0       0       0       0       0       0       0       0       0
       0       0       0       0       0       0       0       0       0       0
       0       0       0       0       0       0       0       0       0       0
       0       0       0       0       0       0       0       0       0       0
       0       0       0       0       0       0       0       0       0       0
       0       0       0       0       0       0       0       0       0       0
       0       0       0       0       0       0       0       0       0       0
       0       0       0       0       0       0       0       0       0       0
       0       0       0       0       0       0       0       0       0       0
       0       0       0       0       0       0       0       0       0       0
       0       0       0       0       0       0       0       0       0       0
       0       0       0       0       0       0       0       0       0       0
       0       0       0       0       0       0       0       0       0       0
       0       0       0       0       0       0       0       0       0       0
       0       0       0       0       0       0       0       0       0       0
       0       0       0       0       0       0       0       0       0       0
       0       0       0       0       0       0       0       0       0       0
       0       0       0       0       0       0       0       0       0       0
       0       0       0       0       0       0       0       0       0       0
       0       0       0       0       0       0       0       0       0       0
       0       0       0       0       0       0       0       0       0       0
       0       0       0       0       0       0       0       0       0       0
       0       0       0       0       0       0       0       0       0       0
       0       0       0       0       0       0       0       0       0       0
       0       0       0       0       0       0       0       0       0       0
       0       0       0       0       0       0       0       0       0       0
       0       0       0       0       0       0       0       0       0       0
       0       0       0       0       0       0       0       0       0       0
       0       0       0       0       0       0       0       0       0       0
       0       0       0       0       0       0       0       0       0       0
       0       0       0       0       0       0       0       0       0       0
       0       0       0       0       0       0       0       0       0       0
       0       0       0       0       0       0       0       0       0       0
       0       0       0       0       0       0       0       0       0       0
       0       0       0       0       0       0       0       0       0       0
       0       0       0       0       0       0       0       0       0       0
       0       0       0       0       0       0       0       0       0       0
       0       0       0       0       0       0       0       0       0       0
       0       0       0       0       0       0       0       0       0       0
       0       0       0       0       0       0       0       0       0       0
       0       0       0       0       0       0       0       0       0       0
       0       0       0       0       0       0       0       0       0       0
       0       0       0       0       0       0       0       0       0       0
       0       0       0       0       0       0       0       0       0       0
       0       0       0       0       0       0       0       0       0       0
       0       0       0       0       0       0       0       0       0       0
       0       0       0       0       0       0       0       0       0       0
       0       0       0       0       0       0       0       0       0       0
       0       0       0       0       0       0       0       0       0       0
       0       0       0       0       0       0       0       0       0       0
       0       0       0       0       0       0       0       0       0       0
       0       0       0       0       0       0       0       0       0       0
       0       0       0       0       0       0       0       0       0       0
       0       0       0       0       0       0       0       0       0       0
       0       0       0       0       0       0       0       0       0       0
       0       0       0       0       0       0       0       0       0       0
       0       0       0       0       0       0       0       0       0       0
       0       0       0       0       0       0       0       0       0       0
       0       0       0       0       0       0       0       0       0       0
       0       0       0       0       0       0       0       0       0       0
       0       0       0       0       0       0       0       0       0       0
       0       0       0       0       0       0       0       0       0       0
       0       0       0       0       0       0       0       0       0       0
       0       0       0       0       0       0       0       0       0       0
       0       0       0       0       0       0       0       0       0       0
       0       0       0       0       0       0       0       0       0       0
       0       0       0       0       0       0       0       0       0       0
       0       0       0       0       0       0       0       0       0       0
       0       0       0       0       0       0       0       0       0       0
       0       0       0       0       0       0       0       0       0       0
       0       0       0       0       0       0       0       0       0       0
       0       0       0       0       0       0       0       0       0       0
       0       0       0       0       0       0       0       0       0       0
       0       0       0       0       0       0       0       0       0       0
       0       0       0       0       0       0       0       0       0       0
       0       0       0       0       0       0       0       0       0       0
       0       0       0       0       0       0       0       0       0       0
       0       0       0       0       0       0       0       0       0       0
       0       0       0       0       0       0       0       0       0       0
       0       0       0       0       0       0       0       0       0       0
       0       0       0       0       0       0       0       0       0       0
       0       0       0       0       0       0       0       0       0       0
       0       0       0       0       0       0       0       0       0       0
       0       0       0       0       0       0       0       0       0       0
       0       0       0       0       0       0       0       0       0       0
       0       0       0       0       0       0       0       0       0       0
       0       0       0       0       0       0       0       0       0       0
       0       0       0       0       0       0       0       0       0       0
       0       0       0       0       0       0       0       0       0       0
       0       0       0       0       0       0       0       0       0       0
       0       0       0       0       0       0       0       0       0       0
       0       0       0       0       0       0       0       0       0       0
       0       0       0       0       0       0       0       0       0       0
       0       0       0       0       0       0       0       0       0       0
       0       0       0       0       0       0       0       0       0       0
       0       0       0       0       0       0       0       0       0       0
       0       0       0       0       0       0       0       0       0       0
       0       0       0       0       0       0       0       0       0       0
       0       0       0       0       0       0       0       0       0       0
       0       0       0       0       0       0       0       0       0       0
       0       0       0       0       0       0       0       0       0       0
       0       0       0       0       0       0       0       0       0       0
       0       0       0       0       0       0       0       0       0       0
       0       0       0       0       0       0       0       0       0       0
       0       0       0       0       0       0       0       0       0       0
       0       0       0       0       0       0       0       0       0       0
       0       0       0       0       0       0       0       0       0       0
       0       0       0       0       0       0       0       0       0       0
       0       0       0       0       0       0       0       0       0       0
       0       0       0       0       0       0       0       0       0       0
       0       0       0       0       0       0       0       0       0       0
       0       0       0       0       0       0       0       0       0       0
       0       0       0       0       0       0       0       0       0       0
       0       0       0       0       0       0       0       0       0       0
       0       0       0       0       0       0       0       0       0       0
       0       0       0       0       0       0       0       0       0       0
       0       0       0       0       0       0       0       0       0       0
       0       0       0       0       0       0       0       0       0       0
       0       0       0       0       0       0       0       0       0       0
       0       0       0       0       0       0       0       0       0       0
       0       0       0       0       0       0       0       0       0       0
       0       0       0       0       0       0       0       0       0       0
       0       0       0       0       0       0       0       0       0       0
       0       0       0       0       0       0       0       0       0       0
       0       0       0       0       0       0       0       0       0       0
       0       0       0       0       0       0       0       0       0       0
       0       0       0       0       0       0       0       0       0       0
       0       0       0       0       0       0       0       0       0       0
       0       0       0       0       0       0       0       0       0       0
       0       0       0       0       0       0       0       0       0       0
       0       0       0       0       0       0       0       0       0       0
       0       0       0       0       0       0       0       0       0       0
       0       0       0       0       0       0       0       0       0       0
       0       0       0       0       0       0       0       0       0       0
       0       0       0       0       0       0       0       0       0       0
       0       0       0       0       0       0       0       0       0       0
       0       0       0       0       0       0       0       0       0       0
       0       0       0       0       0       0       0       0       0       0
       0       0       0       0       0       0       0       0       0       0
       0       0       0       0       0       0       0       0       0       0
       0       0       0       0       0       0       0       0       0       0
       0       0       0       0       0       0       0       0       0       0
       0       0       0       0       0       0       0       0       0       0
       0       0       0       0       0       0       0       0       0       0
       0       0       0       0       0       0       0       0       0       0
       0       0       0       0       0       0       0       0       0       0
       0       0       0       0       0       0       0       0       0       0
       0       0       0       0       0       0       0       0       0       0
       0       0       0       0       0       0       0       0       0       0
       0       0       0       0       0       0       0       0       0       0
       0       0       0       0       0       0       0       0       0       0
       0       0       0       0       0       0       0       0       0       0
       0       0       0       0       0       0       0       0       0       0
       0       0       0       0       0       0       0       0       0       0
       0       0       0       0       0       0       0       0       0       0
       0       0       0       0       0       0       0       0       0       0
       0       0       0       0       0       0       0       0       0       0
       0       0       0       0       0       0       0       0       0       0
       0       0       0       0       0       0       0       0       0       0
       0       0       0       0       0       0       0       0       0       0
       0       0       0       0       0       0       0       0       0       0
       0       0       0       0       0       0       0       0       0       0
       0       0       0       0       0       0       0       0       0       0
       0       0       0       0       0       0       0       0       0       0
       0       0       0       0       0       0       0       0       0       0
       0       0       0       0       0       0       0       0       0       0
       0       0       0       0       0       0       0       0       0       0
       0       0       0       0       0       0       0       0       0       0
       0       0       0       0       0       0       0       0       0       0
       0       0       0       0       0       0       0       0       0       0
       0       0       0       0       0       0       0       0       0       0
       0       0       0       0       0       0       0       0       0       0
       0       0       0       0       0       0       0       0       0       0
       0       0       0       0       0       0       0       0       0       0
       0       0       0       0       0       0       0       0       0       0
       0       0       0       0       0       0       0       0       0       0
       0       0       0       0       0       0       0       0       0       0
       0       0       0       0       0       0       0       0       0       0
       0       0       0       0       0       0       0       0       0       0
       0       0       0       0       0       0       0       0       0       0
       0       0       0       0       0       0       0       0       0       0
       0       0       0       0       0       0       0       0       0       0
       0       0       0       0       0       0       0       0       0       0
       0       0       0       0       0       0       0       0       0       0
       0       0       0       0       0       0       0       0       0       0
       0       0       0       0       0       0       0       0       0       0
       0       0       0       0       0       0       0       0       0       0
       0       0       0       0       0       0       0       0       0       0
       0       0       0       0       0       0       0       0       0       0
       0       0       0       0       0       0       0       0       0       0
       0       0       0       0       0       0       0       0       0       0
       0       0       0       0       0       0       0       0       0       0
       0       0       0       0       0       0       0       0       0       0
       0       0       0       0       0       0       0       0       0       0
       0       0       0       0       0       0       0       0       0       0
       0       0       0       0       0       0       0       0       0       0
       0       0       0       0       0       0       0       0       0       0
       0       0       0       0       0       0       0       0       0       0
       0       0       0       0       0       0       0       0       0       0
       0       0       0       0       0       0       0       0       0       0
       0       0       0       0       0       0       0       0       0       0
       0       0       0       0       0       0       0       0       0       0
       0       0       0       0       0       0       0       0       0       0
       0       0       0       0       0       0       0       0       0       0
       0       0       0       0       0       0       0       0       0       0
       0       0       0       0       0       0       0       0       0       0
       0       0       0       0       0       0       0       0       0       0
       0       0       0       0       0       0       0       0       0       0
       0       0       0       0       0       0       0       0       0       0
       0       0       0       0       0       0       0       0       0       0
       0       0       0       0       0       0       0       0       0       0
       0       0       0       0       0       0       0       0       0       0
       0       0       0       0       0       0       0       0       0       0
       0       0       0       0       0       0       0       0       0       0
       0       0       0       0       0       0       0       0       0       0
       0       0       0       0       0       0       0       0       0       0
       0       0       0       0       0       0       0       0       0       0
       0       0       0       0       0       0       0       0       0       0
       0       0       0       0       0       0       0       0       0       0
       0       0       0       0       0       0       0       0       0       0
       0       0       0       0       0       0       0       0       0       0
       0       0       0       0       0       0       0       0       0       0
       0       0       0       0       0       0       0       0       0       0
       0       0       0       0       0       0       0       0       0       0
       0       0       0       0       0       0       0       0       0       0
       0       0       0       0       0       0       0       0       0       0
       0       0       0       0       0       0       0       0       0       0
       0       0       0       0       0       0       0       0       0       0
       0       0       0       0       0       0       0       0       0       0
       0       0       0       0       0       0       0       0       0       0
       0       0       0       0       0       0       0       0       0       0
       0       0       0       0       0       0       0       0       0       0
       0       0       0       0       0       0       0       0       0       0
       0       0       0       0       0       0       0       0       0       0
       0       0       0       0       0       0       0       0       0       0
       0       0       0       0       0       0       0       0       0       0
       0       0       0       0       0       0       0       0       0       0
       0       0       0       0       0       0       0       0       0       0
       0       0       0       0       0       0       0       0       0       0
       0       0       0       0       0       0       0       0       0       0
       0       0       0       0       0       0       0       0       0       0
       0       0       0       0       0       0       0       0       0       0
       0       0       0       0       0       0       0       0       0       0
       0       0       0       0       0       0       0       0       0       0
       0       0       0       0       0       0       0       0       0       0
       0       0       0       0       0       0       0       0       0       0
       0       0       0       0       0       0       0       0       0       0
       0       0       0       0       0       0       0       0       0       0
       0       0       0       0       0       0       0       0       0       0
       0       0       0       0       0       0       0       0       0       0
       0       0       0       0       0       0       0       0       0       0
       0       0       0       0       0       0       0       0       0       0
       0       0       0       0       0       0       0       0       0       0
       0       0       0       0       0       0       0       0       0       0
       0       0       0       0       0       0       0       0       0       0
       0       0       0       0       0       0       0       0       0       0
       0       0       0       0       0       0       0       0       0       0
       0       0       0       0       0       0       0       0       0       0
       0       0       0       0       0       0       0       0       0       0
       0       0       0       0       0       0       0       0       0       0
       0       0       0       0       0       0       0       0       0       0
       0       0       0       0       0       0       0       0       0       0
       0       0       0       0       0       0       0       0       0       0
       0       0       0       0       0       0       0       0       0       0
       0       0       0       0       0       0       0       0       0       0
       0       0       0       0       0       0       0       0       0       0
       0       0       0       0       0       0       0       0       0       0
       0       0       0       0       0       0       0       0       0       0
       0       0       0       0       0       0       0       0       0       0
       0       0       0       0       0       0       0       0       0       0
       0       0       0       0       0       0       0       0       0       0
       0       0       0       0       0       0       0       0       0       0
       0       0       0       0       0       0       0       0       0       0
       0       0       0       0       0       0       0       0       0       0
       0       0       0       0       0       0       0       0       0       0
       0       0       0       0       0       0       0       0       0       0
       0       0       0       0       0       0       0       0       0       0
       0       0       0       0       0       0       0       0       0       0
       0       0       0       0       0       0       0       0       0       0
       0       0       0       0       0       0       0       0       0       0
       0       0       0       0       0       0       0       0       0       0
       0       0       0       0       0       0       0       0       0       0
       0       0       0       0       0       0       0       0       0       0
       0       0       0       0       0       0       0       0       0       0
       0       0       0       0       0       0       0       0       0       0
       0       0       0       0       0       0       0       0       0       0
       0       0       0       0       0       0       0       0       0       0
       0       0       0       0       0       0       0       0       0       0
       0       0       0       0       0       0       0       0       0       0
       0       0       0       0       0       0       0       0       0       0
       0       0       0       0       0       0       0       0       0       0
       0       0       0       0       0       0       0       0       0       0
       0       0       0       0       0       0       0       0       0       0
       0       0       0       0       0       0       0       0       0       0
       0       0       0       0       0       0       0       0       0       0
       0       0       0       0       0       0       0       0       0       0
       0       0       0       0       0       0       0       0       0       0
       0       0       0       0       0       0       0       0       0       0
       0       0       0       0       0       0       0       0       0       0
       0       0       0       0       0       0       0       0       0       0
       0       0       0       0       0       0       0       0       0       0
       0       0       0       0       0       0       0       0       0       0
       0       0       0       0       0       0       0       0       0       0
       0       0       0       0       0       0       0       0       0       0
       0       0       0       0       0       0       0       0       0       0
       0       0       0       0       0       0       0       0       0       0
       0       0       0       0       0       0       0       0       0       0
       0       0       0       0       0       0       0       0       0       0
       0       0       0       0       0       0       0       0       0       0
       0       0       0       0       0       0       0       0       0       0
       0       0       0       0       0       0       0       0       0       0
       0       0       0       0       0       0       0       0       0       0
       0       0       0       0       0       0       0       0       0       0
       0       0       0       0       0       0       0       0       0       0
       0       0       0       0       0       0       0       0       0       0
       0       0       0       0       0       0       0       0       0       0
       0       0       0       0       0       0       0       0       0       0
       0       0       0       0       0       0       0       0       0       0
       0       0       0       0       0       0       0       0       0       0
       0       0       0       0       0       0       0       0       0       0
       0       0       0       0       0       0       0       0       0       0
       0       0       0       0       0       0       0       0       0       0
       0       0       0       0       0       0       0       0       0       0
       0       0       0       0       0       0       0       0       0       0
       0       0       0       0       0       0       0       0       0       0
       0       0       0       0       0       0       0       0       0       0
       0       0       0       0       0       0       0       0       0       0
       0       0       0       0       0       0       0       0       0       0
       0       0       0       0       0       0       0       0       0       0
       0       0       0       0       0       0       0       0       0       0
       0       0       0       0       0       0       0       0       0       0
       0       0       0       0       0       0       0       0       0       0
       0       0       0       0       0       0       0       0       0       0
       0       0       0       0       0       0       0       0       0       0
       0       0       0       0       0       0       0       0       0       0
       0       0       0       0       0       0       0       0       0       0
       0       0       0       0       0       0       0       0       0       0
       0       0       0       0       0       0       0       0       0       0
       0       0       0       0       0       0       0       0       0       0
       0       0       0       0       0       0       0       0       0       0
       0       0       0       0       0       0       0       0       0       0
       0       0       0       0       0       0       0       0       0       0
       0       0       0       0       0       0       0       0       0       0
       0       0       0       0       0       0       0       0       0       0
       0       0       0       0       0       0       0       0       0       0
       0       0       0       0       0       0       0       0       0       0
       0       0       0       0       0       0       0       0       0       0
       0       0       0       0       0       0       0       0       0       0
       0       0       0       0       0       0       0       0       0       0
       0       0       0       0       0       0       0       0       0       0
       0       0       0       0       0       0       0       0       0       0
       0       0       0       0       0       0       0       0       0       0
       0       0       0       0       0       0       0       0       0       0
       0       0       0       0       0       0       0       0       0       0
       0       0       0       0       0       0       0       0       0       0
       0       0       0       0       0       0       0       0       0       0
       0       0       0       0       0       0       0       0       0       0
       0       0       0       0       0       0       0       0       0       0
       0       0       0       0       0       0       0       0       0       0
       0       0       0       0       0       0       0       0       0       0
       0       0       0       0       0       0       0       0       0       0
       0       0       0       0       0       0       0       0       0       0
       0       0       0       0       0       0       0       0       0       0
       0       0       0       0       0       0       0       0       0       0
       0       0       0       0       0       0       0       0       0       0
       0       0       0       0       0       0       0       0       0       0
       0       0       0       0       0       0       0       0       0       0
       0       0       0       0       0       0       0       0       0       0
       0       0       0       0       0       0       0       0       0       0
       0       0       0       0       0       0       0       0       0       0
       0       0       0       0       0       0       0       0       0       0
       0       0       0       0       0       0       0       0       0       0
       0       0       0       0       0       0       0       0       0       0
       0       0       0       0       0       0       0       0       0       0
       0       0       0       0       0       0       0       0       0       0
       0       0       0       0       0       0       0       0       0       0
       0       0       0       0       0       0       0       0       0       0
       0       0       0       0       0       0       0       0       0       0
       0       0       0       0       0       0       0       0       0       0
       0       0       0       0       0       0       0       0       0       0
       0       0       0       0       0       0       0       0       0       0
       0       0       0       0       0       0       0       0       0       0
       0       0       0       0       0       0       0       0       0       0
       0       0       0       0       0       0       0       0       0       0
       0       0       0       0       0       0       0       0       0       0
       0       0       0       0       0       0       0       0       0       0
       0       0       0       0       0       0       0       0       0       0
       0       0       0       0       0       0       0       0       0       0
       0       0       0       0       0       0       0       0       0       0
       0       0       0       0       0       0       0       0       0       0
       0       0       0       0       0       0       0       0       0       0
       0       0       0       0       0       0       0       0       0       0
       0       0       0       0       0       0       0       0       0       0
       0       0       0       0       0       0       0       0       0       0
       0       0       0       0       0       0       0       0       0       0
       0       0       0       0       0       0       0       0       0       0
       0       0       0       0       0       0       0       0       0       0
       0       0       0       0       0       0       0       0       0       0
       0       0       0       0       0       0       0       0       0       0
       0       0       0       0       0       0       0       0       0       0
       0       0       0       0       0       0       0       0       0       0
       0       0       0       0       0       0       0       0       0       0
       0       0       0       0       0       0       0       0       0       0
       0       0       0       0       0       0       0       0       0       0
       0       0       0       0       0       0       0       0       0       0
       0       0       0       0       0       0       0       0       0       0
       0       0       0       0       0       0       0       0       0       0
       0       0       0       0       0       0       0       0       0       0
       0       0       0       0       0       0       0       0       0       0
       0       0       0       0       0       0       0       0       0       0
       0       0       0       0       0       0       0       0       0       0
       0       0       0       0       0       0       0       0       0       0
       0       0       0       0       0       0       0       0       0       0
       0       0       0       0       0       0       0       0       0       0
       0       0       0       0       0       0       0       0       0       0
       0       0       0       0       0       0       0       0       0       0
       0       0       0       0       0       0       0       0       0       0
       0       0       0       0       0       0       0       0       0       0
       0       0       0       0       0       0       0       0       0       0
       0       0       0       0       0       0       0       0       0       0
       0       0       0       0       0       0       0       0       0       0
       0       0       0       0       0       0       0       0       0       0
       0       0       0       0       0       0       0       0       0       0
       0       0       0       0       0       0       0       0       0       0
       0       0       0       0       0       0       0       0       0       0
       0       0       0       0       0       0       0       0       0       0
       0       0       0       0       0       0       0       0       0       0
       0       0       0       0       0       0       0       0       0       0
       0       0       0       0       0       0       0       0       0       0
       0       0       0       0       0       0       0       0       0       0
       0       0       0       0       0       0       0       0       0       0
       0       0       0       0       0       0       0       0       0       0
       0       0       0       0       0       0       0       0       0       0
       0       0       0       0       0       0       0       0       0       0
       0       0       0       0       0       0       0       0       0       0
       0       0       0       0       0       0       0       0       0       0
       0       0       0       0       0       0       0       0       0       0
       0       0       0       0       0       0       0       0       0       0
       0       0       0       0       0       0       0       0       0       0
       0       0       0       0       0       0       0       0       0       0
       0       0       0       0       0       0       0       0       0       0
       0       0       0       0       0       0       0       0       0       0
       0       0       0       0       0       0       0       0       0       0
       0       0       0       0       0       0       0       0       0       0
       0       0       0       0       0       0       0       0       0       0
       0       0       0       0       0       0       0       0       0       0
       0       0       0       0       0       0       0       0       0       0
       0       0       0       0       0       0       0       0       0       0
       0       0       0       0       0       0       0       0       0       0
       0       0       0       0       0       0       0       0       0       0
       0       0       0       0       0       0       0       0       0       0
       0       0       0       0       0       0       0       0       0       0
       0       0       0       0       0       0       0       0       0       0
       0       0       0       0       0       0       0       0       0       0
       0       0       0       0       0       0       0       0       0       0
       0       0       0       0       0       0       0       0       0       0
       0       0       0       0       0       0       0       0       0       0
       0       0       0       0       0       0       0       0       0       0
       0       0       0       0       0       0       0       0       0       0
       0       0       0       0       0       0       0       0       0       0
       0       0       0       0       0       0       0       0       0       0
       0       0       0       0       0       0       0       0       0       0
       0       0       0       0       0       0       0       0       0       0
       0       0       0       0       0       0       0       0       0       0
       0       0       0       0       0       0       0       0       0       0
       0       0       0       0       0       0       0       0       0       0
       0       0       0       0       0       0       0       0       0       0
       0       0       0       0       0       0       0       0       0       0
       0       0       0       0       0       0       0       0       0       0
       0       0       0       0       0       0       0       0       0       0
       0       0       0       0       0       0       0       0       0       0
       0       0       0       0       0       0       0       0       0       0
       0       0       0       0       0       0       0       0       0       0
       0       0       0       0       0       0       0       0       0       0
       0       0       0       0       0       0       0       0       0       0
       0       0       0       0       0       0       0       0       0       0
       0       0       0       0       0       0       0       0       0       0
       0       0       0       0       0       0       0       0       0       0
       0       0       0       0       0       0       0       0       0       0
       0       0       0       0       0       0       0       0       0       0
       0       0       0       0       0       0       0       0       0       0
       0       0       0       0       0       0       0       0       0       0
       0       0       0       0       0       0       0       0       0       0
       0       0       0       0       0       0       0       0       0       0
       0       0       0       0       0       0       0       0       0       0
       0       0       0       0       0       0       0       0       0       0
       0       0       0       0       0       0       0       0       0       0
       0       0       0       0       0       0       0       0       0       0
       0       0       0       0       0       0       0       0       0       0
       0       0       0       0       0       0       0       0       0       0
       0       0       0       0       0       0       0       0       0       0
       0       0       0       0       0       0       0       0       0       0
       0       0       0       0       0       0       0       0       0       0
       0       0       0       0       0       0       0       0       0       0
       0       0       0       0       0       0       0       0       0       0
       0       0       0       0       0       0       0       0       0       0
       0       0       0       0       0       0       0       0       0       0
       0       0       0       0       0       0       0       0       0       0
       0       0       0       0       0       0       0       0       0       0
       0       0       0       0       0       0       0       0       0       0
       0       0       0       0       0       0       0       0       0       0
       0       0       0       0       0       0       0       0       0       0
       0       0       0       0       0       0       0       0       0       0
       0       0       0       0       0       0       0       0       0       0
       0       0       0       0       0       0       0       0       0       0
       0       0       0       0       0       0       0       0       0       0
       0       0       0       0       0       0       0       0       0       0
       0       0       0       0       0       0       0       0       0       0
       0       0       0       0       0       0       0       0       0       0
       0       0       0       0       0       0       0       0       0       0
       0       0       0       0       0       0       0       0       0       0
       0       0       0       0       0       0       0       0       0       0
       0       0       0       0       0       0       0       0       0       0
       0       0       0       0       0       0       0       0       0       0
       0       0       0       0       0       0       0       0       0       0
       0       0       0       0       0       0       0       0       0       0
       0       0       0       0       0       0       0       0       0       0
       0       0       0       0       0       0       0       0       0       0
       0       0       0       0       0       0       0       0       0       0
       0       0       0       0       0       0       0       0       0       0
       0       0       0       0       0       0       0       0       0       0
       0       0       0       0       0       0       0       0       0       0
       0       0       0       0       0       0       0       0       0       0
       0       0       0       0       0       0       0       0       0       0
       0       0       0       0       0       0       0       0       0       0
       0       0       0       0       0       0       0       0       0       0
       0       0       0       0       0       0       0       0       0       0
       0       0       0       0       0       0       0       0       0       0
       0       0       0       0       0       0       0       0       0       0
       0       0       0       0       0       0       0       0       0       0
       0       0       0       0       0       0       0       0       0       0
       0       0       0       0       0       0       0       0       0       0
       0       0       0       0       0       0       0       0       0       0
       0       0       0       0       0       0       0       0       0       0
       0       0       0       0       0       0       0       0       0       0
       0       0       0       0       0       0       0       0       0       0
       0       0       0       0       0       0       0       0       0       0
       0       0       0       0       0       0       0       0       0       0
       0       0       0       0       0       0       0       0       0       0
       0       0       0       0       0       0       0       0       0       0
       0       0       0       0       0       0       0       0       0       0
       0       0       0       0       0       0       0       0       0       0
       0       0       0       0       0       0       0       0       0       0
       0       0       0       0       0       0       0       0       0       0
       0       0       0       0       0       0       0       0       0       0
       0       0       0       0       0       0       0       0       0       0
       0       0       0       0       0       0       0       0       0       0
       0       0       0       0       0       0       0       0       0       0
       0       0       0       0       0       0       0       0       0       0
       0       0       0       0       0       0       0       0       0       0
       0       0       0       0       0       0       0       0       0       0
       0       0       0       0       0       0       0       0       0       0
       0       0       0       0       0       0       0       0       0       0
       0       0       0       0       0       0       0       0       0       0
       0       0       0       0       0       0       0       0       0       0
       0       0       0       0       0       0       0       0       0       0
       0       0       0       0       0       0       0       0       0       0
       0       0       0       0       0       0       0       0       0       0
       0       0       0       0       0       0       0       0       0       0
       0       0       0       0       0       0       0       0       0       0
       0       0       0       0       0       0       0       0       0       0
       0       0       0       0       0       0       0       0       0       0
       0       0       0       0       0       0       0       0       0       0
       0       0       0       0       0       0       0       0       0       0
       0       0       0       0       0       0       0       0       0       0
       0       0       0       0       0       0       0       0       0       0
       0       0       0       0       0       0       0       0       0       0
       0       0       0       0       0       0       0       0       0       0
       0       0       0       0       0       0       0       0       0       0
       0       0       0       0       0       0       0       0       0       0
       0       0       0       0       0       0       0       0       0       0
       0       0       0       0       0       0       0       0       0       0
       0       0       0       0       0       0       0       0       0       0
       0       0       0       0       0       0       0       0       0       0
       0       0       0       0       0       0       0       0       0       0
       0       0       0       0       0       0       0       0       0       0
       0       0       0       0       0       0       0       0       0       0
       0       0       0       0       0       0       0       0       0       0
       0       0       0       0       0       0       0       0       0       0
       0       0       0       0       0       0       0       0       0       0
       0       0       0       0       0       0       0       0       0       0
       0       0       0       0       0       0       0       0       0       0
       0       0       0       0       0       0       0       0       0       0
       0       0       0       0       0       0       0       0       0       0
       0       0       0       0       0       0       0       0       0       0
       0       0       0       0       0       0       0       0       0       0
       0       0       0       0       0       0       0       0       0       0
       0       0       0       0       0       0       0       0       0       0
       0       0       0       0       0       0       0       0       0       0
       0       0       0       0       0       0       0       0       0       0
       0       0       0       0       0       0       0       0       0       0
       0       0       0       0       0       0       0       0       0       0
       0       0       0       0       0       0       0       0       0       0
       0       0       0       0       0       0       0       0       0       0
       0       0       0       0       0       0       0       0       0       0
       0       0       0       0       0       0       0       0       0       0
       0       0       0       0       0       0       0       0       0       0
       0       0       0       0       0       0       0       0       0       0
       0       0       0       0       0       0       0       0       0       0
       0       0       0       0       0       0       0       0       0       0
       0       0       0       0       0       0       0       0       0       0
       0       0       0       0       0       0       0       0       0       0
       0       0       0       0       0       0       0       0       0       0
       0       0       0       0       0       0       0       0       0       0
       0       0       0       0       0       0       0       0       0       0
       0       0       0       0       0       0       0       0       0       0
       0       0       0       0       0       0       0       0       0       0
       0       0       0       0       0       0       0       0       0       0
       0       0       0       0       0       0       0       0       0       0
       0       0       0       0       0       0       0       0       0       0
       0       0       0       0       0       0       0       0       0       0
       0       0       0       0       0       0       0       0       0       0
       0       0       0       0       0       0       0       0       0       0
       0       0       0       0       0       0       0       0       0       0
       0       0       0       0       0       0       0       0       0       0
       0       0       0       0       0       0       0       0       0       0
       0       0       0       0       0       0       0       0       0       0
       0       0       0       0       0       0       0       0       0       0
       0       0       0       0       0       0       0       0       0       0
       0       0       0       0       0       0       0       0       0       0
       0       0       0       0       0       0       0       0       0       0
       0       0       0       0       0       0       0       0       0       0
       0       0       0       0       0       0       0       0       0       0
       0       0       0       0       0       0       0       0       0       0
       0       0       0       0       0       0       0       0       0       0
       0       0       0       0       0       0       0       0       0       0
       0       0       0       0       0       0       0       0       0       0
       0       0       0       0       0       0       0       0       0       0
       0       0       0       0       0       0       0       0       0       0
       0       0       0       0       0       0       0       0       0       0
       0       0       0       0       0       0       0       0       0       0
       0       0       0       0       0       0       0       0       0       0
       0       0       0       0       0       0       0       0       0       0
       0       0       0       0       0       0       0       0       0       0
       0       0       0       0       0       0       0       0       0       0
       0       0       0       0       0       0       0       0       0       0
       0       0       0       0       0       0       0       0       0       0
       0       0       0       0       0       0       0       0       0       0
       0       0       0       0       0       0       0       0       0       0
       0       0       0       0       0       0       0       0       0       0
       0       0       0       0       0       0       0       0       0       0
       0       0       0       0       0       0       0       0       0       0
       0       0       0       0       0       0       0       0       0       0
       0       0       0       0       0       0       0       0       0       0
       0       0       0       0       0       0       0       0       0       0
       0       0       0       0       0       0       0       0       0       0
       0       0       0       0       0       0       0       0       0       0
       0       0       0       0       0       0       0       0       0       0
       0       0       0       0       0       0       0       0       0       0
       0       0       0       0       0       0       0       0       0       0
       0       0       0       0       0       0       0       0       0       0
       0       0       0       0       0       0       0       0       0       0
       0       0       0       0       0       0       0       0       0       0
       0       0       0       0       0       0       0       0       0       0
       0       0       0       0       0       0       0       0       0       0
       0       0       0       0       0       0       0       0       0       0
       0       0       0       0       0       0       0       0       0       0
       0       0       0       0       0       0       0       0       0       0
       0       0       0       0       0       0       0       0       0       0
       0       0       0       0       0       0       0       0       0       0
       0       0       0       0       0       0       0       0       0       0
       0       0       0       0       0       0       0       0       0       0
       0       0       0       0       0       0       0       0       0       0
       0       0       0       0       0       0       0       0       0       0
       0       0       0       0       0       0       0       0       0       0
       0       0       0       0       0       0       0       0       0       0
       0       0       0       0       0       0       0       0       0       0
       0       0       0       0       0       0       0       0       0       0
       0       0       0       0       0       0       0       0       0       0
       0       0       0       0       0       0       0       0       0       0
       0       0       0       0       0       0       0       0       0       0
       0       0       0       0       0       0       0       0       0       0
       0       0       0       0       0       0       0       0       0       0
       0       0       0       0       0       0       0       0       0       0
       0       0       0       0       0       0       0       0       0       0
       0       0       0       0       0       0       0       0       0       0
       0       0       0       0       0       0       0       0       0       0
       0       0       0       0       0       0       0       0       0       0
       0       0       0       0       0       0       0       0       0       0
       0       0       0       0       0       0       0       0       0       0
       0       0       0       0       0       0       0       0       0       0
       0       0       0       0       0       0       0       0       0       0
       0       0       0       0       0       0       0       0       0       0
       0       0       0       0       0       0       0       0       0       0
       0       0       0       0       0       0       0       0       0       0
       0       0       0       0       0       0       0       0       0       0
       0       0       0       0       0       0       0       0       0       0
       0       0       0       0       0       0       0       0       0       0
       0       0       0       0       0       0       0       0       0       0
       0       0       0       0       0       0       0       0       0       0
       0       0       0       0       0       0       0       0       0       0
       0       0       0       0       0       0       0       0       0       0
       0       0       0       0       0       0       0       0       0       0
       0       0       0       0       0       0       0       0       0       0
       0       0       0       0       0       0       0       0       0       0
       0       0       0       0       0       0       0       0       0       0
       0       0       0       0       0       0       0       0       0       0
       0       0       0       0       0       0       0       0       0       0
       0       0       0       0       0       0       0       0       0       0
       0       0       0       0       0       0       0       0       0       0
       0       0       0       0       0       0       0       0       0       0
       0       0       0       0       0       0       0       0       0       0
       0       0       0       0       0       0       0       0       0       0
       0       0       0       0       0       0       0       0       0       0
       0       0       0       0       0       0       0       0       0       0
       0       0       0       0       0       0       0       0       0       0
       0       0       0       0       0       0       0       0       0       0
       0       0       0       0       0       0       0       0       0       0
       0       0       0       0       0       0       0       0       0       0
       0       0       0       0       0       0       0       0       0       0
       0       0       0       0       0       0       0       0       0       0
       0       0       0       0       0       0       0       0       0       0
       0       0       0       0       0       0       0       0       0       0
       0       0       0       0       0       0       0       0       0       0
       0       0       0       0       0       0       0       0       0       0
       0       0       0       0       0       0       0       0       0       0
       0       0       0       0       0       0       0       0       0       0
       0       0       0       0       0       0       0       0       0       0
       0       0       0       0       0       0       0       0       0       0
       0       0       0       0       0       0       0       0       0       0
       0       0       0       0       0       0       0       0       0       0
       0       0       0       0       0       0       0       0       0       0
       0       0       0       0       0       0       0       0       0       0
       0       0       0       0       0       0       0       0       0       0
       0       0       0       0       0       0       0       0       0       0
       0       0       0       0       0       0       0       0       0       0
       0       0       0       0       0       0       0       0       0       0
       0       0       0       0       0       0       0       0       0       0
       0       0       0       0       0       0       0       0       0       0
       0       0       0       0       0       0       0       0       0       0
       0       0       0       0       0       0       0       0       0       0
       0       0       0       0       0       0       0       0       0       0
       0       0       0       0       0       0       0       0       0       0
       0       0       0       0       0       0       0       0       0       0
       0       0       0       0       0       0       0       0       0       0
       0       0       0       0       0       0       0       0       0       0
       0       0       0       0       0       0       0       0       0       0
       0       0       0       0       0       0       0       0       0       0
       0       0       0       0       0       0       0       0       0       0
       0       0       0       0       0       0       0       0       0       0
       0       0       0       0       0       0       0       0       0       0
       0       0       0       0       0       0       0       0       0       0
       0       0       0       0       0       0       0       0       0       0
       0       0       0       0       0       0       0       0       0       0
       0       0       0       0       0       0       0       0       0       0
       0       0       0       0       0       0       0       0       0       0
       0       0       0       0       0       0       0       0       0       0
       0       0       0       0       0       0       0       0       0       0
       0       0       0       0       0       0       0       0       0       0
       0       0       0       0       0       0       0       0       0       0
       0       0       0       0       0       0       0       0       0       0
       0       0       0       0       0       0       0       0       0       0
       0       0       0       0       0       0       0       0       0       0
       0       0       0       0       0       0       0       0       0       0
       0       0       0       0       0       0       0       0       0       0
       0       0       0       0       0       0       0       0       0       0
       0       0       0       0       0       0       0       0       0       0
       0       0       0       0       0       0       0       0       0       0
       0       0       0       0       0       0       0       0       0       0
       0       0       0       0       0       0       0       0       0       0
       0       0       0       0       0       0       0       0       0       0
       0       0       0       0       0       0       0       0       0       0
       0       0       0       0       0       0       0       0       0       0
       0       0       0       0       0       0       0       0       0       0
       0       0       0       0       0       0       0       0       0       0
       0       0       0       0       0       0       0       0       0       0
       0       0       0       0       0       0       0       0       0       0
       0       0       0       0       0       0       0       0       0       0
       0       0       0       0       0       0       0       0       0       0
       0       0       0       0       0       0       0       0       0       0
       0       0       0       0       0       0       0       0       0       0
       0       0       0       0       0       0       0       0       0       0
       0       0       0       0       0       0       0       0       0       0
       0       0       0       0       0       0       0       0       0       0
       0       0       0       0       0       0       0       0       0       0
       0       0       0       0       0       0       0       0       0       0
       0       0       0       0       0       0       0       0       0       0
       0       0       0       0       0       0       0       0       0       0
       0       0       0       0       0       0       0       0       0       0
       0       0       0       0       0       0       0       0       0       0
       0       0       0       0       0       0       0       0       0       0
       0       0       0       0       0       0       0       0       0       0
       0       0       0       0       0       0       0       0       0       0
       0       0       0       0       0       0       0       0       0       0
       0       0       0       0       0       0       0       0       0       0
       0       0       0       0       0       0       0       0       0       0
       0       0       0       0       0       0       0       0       0       0
       0       0       0       0       0       0       0       0       0       0
       0       0       0       0       0       0       0       0       0       0
       0       0       0       0       0       0       0       0       0       0
       0       0       0       0       0       0       0       0       0       0
       0       0       0       0       0       0       0       0       0       0
       0       0       0       0       0       0       0       0       0       0
       0       0       0       0       0       0       0       0       0       0
       0       0       0       0       0       0       0       0       0       0
       0       0       0       0       0       0       0       0       0       0
       0       0       0       0       0       0       0       0       0       0
       0       0       0       0       0       0       0       0       0       0
       0       0       0       0       0       0       0       0       0       0
       0       0       0       0       0       0       0       0       0       0
       0       0       0       0       0       0       0       0       0       0
       0       0       0       0       0       0       0       0       0       0
       0       0       0       0       0       0       0       0       0       0
       0       0       0       0       0       0       0       0       0       0
       0       0       0       0       0       0       0       0       0       0
       0       0       0       0       0       0       0       0       0       0
       0       0       0       0       0       0       0       0       0       0
       0       0       0       0       0       0       0       0       0       0
       0       0       0       0       0       0       0       0       0       0
       0       0       0       0       0       0       0       0       0       0
       0       0       0       0       0       0       0       0       0       0
       0       0       0       0       0       0       0       0       0       0
       0       0       0       0       0       0       0       0       0       0
       0       0       0       0       0       0       0       0       0       0
       0       0       0       0       0       0       0       0       0       0
       0       0       0       0       0       0       0       0       0       0
       0       0       0       0       0       0       0       0       0       0
       0       0       0       0       0       0       0       0       0       0
       0       0       0       0       0       0       0       0       0       0
       0       0       0       0       0       0       0       0       0       0
       0       0       0       0       0       0       0       0       0       0
       0       0       0       0       0       0       0       0       0       0
       0       0       0       0       0       0       0       0       0       0
       0       0       0       0       0       0       0       0       0       0
       0       0       0       0       0       0       0       0       0       0
       0       0       0       0       0       0       0       0       0       0
       0       0       0       0       0       0       0       0       0       0
       0       0       0       0       0       0       0       0       0       0
       0       0       0       0       0       0       0       0       0       0
       0       0       0       0       0       0       0       0       0       0
       0       0       0       0       0       0       0       0       0       0
       0       0       0       0       0       0       0       0       0       0
       0       0       0       0       0       0       0       0       0       0
       0       0       0       0       0       0       0       0       0       0
       0       0       0       0       0       0       0       0       0       0
       0       0       0       0       0       0       0       0       0       0
       0       0       0       0       0       0       0       0       0       0
       0       0       0       0       0       0       0       0       0       0
       0       0       0       0       0       0       0       0       0       0
       0       0       0       0       0       0       0       0       0       0
       0       0       0       0       0       0       0       0       0       0
       0       0       0       0       0       0       0       0       0       0
       0       0       0       0       0       0       0       0       0       0
       0       0       0       0       0       0       0       0       0       0
       0       0       0       0       0       0       0       0       0       0
       0       0       0       0       0       0       0       0       0       0
       0       0       0       0       0       0       0       0       0       0
       0       0       0       0       0       0       0       0       0       0
       0       0       0       0       0       0       0       0       0       0
       0       0       0       0       0       0       0       0       0       0
       0       0       0       0       0       0       0       0       0       0
       0       0       0       0       0       0       0       0       0       0
       0       0       0       0       0       0       0       0       0       0
       0       0       0       0       0       0       0       0       0       0
       0       0       0       0       0       0       0       0       0       0
       0       0       0       0       0       0       0       0       0       0
       0       0       0       0       0       0       0       0       0       0
       0       0       0       0       0       0       0       0       0       0
       0       0       0       0       0       0       0       0       0       0
       0       0       0       0       0       0       0       0       0       0
       0       0       0       0       0       0       0       0       0       0
       0       0       0       0       0       0       0       0       0       0
       0       0       0       0       0       0       0       0       0       0
       0       0       0       0       0       0       0       0       0       0
       0       0       0       0       0       0       0       0       0       0
       0       0       0       0       0       0       0       0       0       0
       0       0       0       0       0       0       0       0       0       0
       0       0       0       0       0       0       0       0       0       0
       0       0       0       0       0       0       0       0       0       0
       0       0       0       0       0       0       0       0       0       0
       0       0       0       0       0       0       0       0       0       0
       0       0       0       0       0       0       0       0       0       0
       0       0       0       0       0       0       0       0       0       0
       0       0       0       0       0       0       0       0       0       0
       0       0       0       0       0       0       0       0       0       0
       0       0       0       0       0       0       0       0       0       0
       0       0       0       0       0       0       0       0       0       0
       0       0       0       0       0       0       0       0       0       0
       0       0       0       0       0       0       0       0       0       0
       0       0       0       0       0       0       0       0       0       0
       0       0       0       0       0       0       0       0       0       0
       0       0       0       0       0       0       0       0       0       0
       0       0       0       0       0       0       0       0       0       0
       0       0       0       0       0       0       0       0       0       0
       0       0       0       0       0       0       0       0       0       0
       0       0       0       0       0       0       0       0       0       0
       0       0       0       0       0       0       0       0       0       0
       0       0       0       0       0       0       0       0       0       0
       0       0       0       0       0       0       0       0       0       0
       0       0       0       0       0       0       0       0       0       0
       0       0       0       0       0       0       0       0       0       0
       0       0       0       0       0       0       0       0       0       0
       0       0       0       0       0       0       0       0       0       0
       0       0       0       0       0       0       0       0       0       0
       0       0       0       0       0       0       0       0       0       0
       0       0       0       0       0       0       0       0       0       0
       0       0       0       0       0       0       0       0       0       0
       0       0       0       0       0       0       0       0       0       0
       0       0       0       0       0       0       0       0       0       0
       0       0       0       0       0       0       0       0       0       0
       0       0       0       0       0       0       0       0       0       0
       0       0       0       0       0       0       0       0       0       0
       0       0       0       0       0       0       0       0       0       0
       0       0       0       0       0       0       0       0       0       0
       0       0       0       0       0       0       0       0       0       0
       0       0       0       0       0       0       0       0       0       0
       0       0       0       0       0       0       0       0       0       0
       0       0       0       0       0       0       0       0       0       0
       0       0       0       0       0       0       0       0       0       0
       0       0       0       0       0       0       0       0       0       0
       0       0       0       0       0       0       0       0       0       0
       0       0       0       0       0       0       0       0       0       0
       0       0       0       0       0       0       0       0       0       0
       0       0       0       0       0       0       0       0       0       0
       0       0       0       0       0       0       0       0       0       0
       0       0       0       0       0       0       0       0       0       0
       0       0       0       0       0       0       0       0       0       0
       0       0       0       0       0       0       0       0       0       0
       0       0       0       0       0       0       0       0       0       0
       0       0       0       0       0       0       0       0       0       0
       0       0       0       0       0       0       0       0       0       0
       0       0       0       0       0       0       0       0       0       0
       0       0       0       0       0       0       0       0       0       0
       0       0       0       0       0       0       0       0       0       0
       0       0       0       0       0       0       0       0       0       0
       0       0       0       0       0       0       0       0       0       0
       0       0       0       0       0       0       0       0       0       0
       0       0       0       0       0       0       0       0       0       0
       0       0       0       0       0       0       0       0       0       0
       0       0       0       0       0       0       0       0       0       0
       0       0       0       0       0       0       0       0       0       0
       0       0       0       0       0       0       0       0       0       0
       0       0       0       0       0       0       0       0       0       0
       0       0       0       0       0       0       0       0       0       0
       0       0       0       0       0       0       0       0       0       0
       0       0       0       0       0       0       0       0       0       0
       0       0       0       0       0       0       0       0       0       0
       0       0       0       0       0       0       0       0       0       0
       0       0       0       0       0       0       0       0       0       0
       0       0       0       0       0       0       0       0       0       0
       0       0       0       0       0       0       0       0       0       0
       0       0       0       0       0       0       0       0       0       0
       0       0       0       0       0       0       0       0       0       0
       0       0       0       0       0       0       0       0       0       0
       0       0       0       0       0       0       0       0       0       0
       0       0       0       0       0       0       0       0       0       0
       0       0       0       0       0       0       0       0       0       0
       0       0       0       0       0       0       0       0       0       0
       0       0       0       0       0       0       0       0       0       0
       0       0       0       0       0       0       0       0       0       0
       0       0       0       0       0       0       0       0       0       0
       0       0       0       0       0       0       0       0       0       0
       0       0       0       0       0       0       0       0       0       0
       0       0       0       0       0       0       0       0       0       0
       0       0       0       0       0       0       0       0       0       0
       0       0       0       0       0       0       0       0       0       0
       0       0       0       0       0       0       0       0       0       0
       0       0       0       0       0       0       0       0       0       0
       0       0       0       0       0       0       0       0       0       0
       0       0       0       0       0       0       0       0       0       0
       0       0       0       0       0       0       0       0       0       0
       0       0       0       0       0       0       0       0       0       0
       0       0       0       0       0       0       0       0       0       0
       0       0       0       0       0       0       0       0       0       0
       0       0       0       0       0       0       0       0       0       0
       0       0       0       0       0       0       0       0       0       0
       0       0       0       0       0       0       0       0       0       0
       0       0       0       0       0       0       0       0       0       0
       0       0       0       0       0       0       0       0       0       0
       0       0       0       0       0       0       0       0       0       0
       0       0       0       0       0       0       0       0       0       0
       0       0       0       0       0       0       0       0       0       0
       0       0       0       0       0       0       0       0       0       0
       0       0       0       0       0       0       0       0       0       0
       0       0       0       0       0       0       0       0       0       0
       0       0       0       0       0       0       0       0       0       0
       0       0       0       0       0       0       0       0       0       0
       0       0       0       0       0       0       0       0       0       0
       0       0       0       0       0       0       0       0       0       0
       0       0       0       0       0       0       0       0       0       0
       0       0       0       0       0       0       0       0       0       0
       0       0       0       0       0       0       0       0       0       0
       0       0       0       0       0       0       0       0       0       0
       0       0       0       0       0       0       0       0       0       0
       0       0       0       0       0       0       0       0       0       0
       0       0       0       0       0       0       0       0       0       0
       0       0       0       0       0       0       0       0       0       0
       0       0       0       0       0       0       0       0       0       0
       0       0       0       0       0       0       0       0       0       0
       0       0       0       0       0       0       0       0       0       0
       0       0       0       0       0       0       0       0       0       0
       0       0       0       0       0       0       0       0       0       0
       0       0       0       0       0       0       0       0       0       0
       0       0       0       0       0       0       0       0       0       0
       0       0       0       0       0       0       0       0       0       0
       0       0       0       0       0       0       0       0       0       0
       0       0       0       0       0       0       0       0       0       0
       0       0       0       0       0       0       0       0       0       0
       0       0       0       0       0       0       0       0       0       0
       0       0       0       0       0       0       0       0       0       0
       0       0       0       0       0       0       0       0       0       0
       0       0       0       0       0       0       0       0       0       0
       0       0       0       0       0       0       0       0       0       0
       0       0       0       0       0       0       0       0       0       0
       0       0       0       0       0       0       0       0       0       0
       0       0       0       0       0       0       0       0       0       0
       0       0       0       0       0       0       0       0       0       0
       0       0       0       0       0       0       0       0       0       0
       0       0       0       0       0       0       0       0       0       0
       0       0       0       0       0       0       0       0       0       0
       0       0       0       0       0       0       0       0       0       0
       0       0       0       0       0       0       0       0       0       0
       0       0       0       0       0       0       0       0       0       0
       0       0       0       0       0       0       0       0       0       0
       0       0       0       0       0       0       0       0       0       0
       0       0       0       0       0       0       0       0       0       0
       0       0       0       0       0       0       0       0       0       0
       0       0       0       0       0       0       0       0       0       0
       0       0       0       0       0       0       0       0       0       0
       0       0       0       0       0       0       0       0       0       0
       0       0       0       0       0       0       0       0       0       0
       0       0       0       0       0       0       0       0       0       0
       0       0       0       0       0       0       0       0       0       0
       0       0       0       0       0       0       0       0       0       0
       0       0       0       0       0       0       0       0       0       0
       0       0       0       0       0       0       0       0       0       0
       0       0       0       0       0       0       0       0       0       0
       0       0       0       0       0       0       0       0       0       0
       0       0       0       0       0       0       0       0       0       0
       0       0       0       0       0       0       0       0       0       0
       0       0       0       0       0       0       0       0       0       0
       0       0       0       0       0       0       0       0       0       0
       0       0       0       0       0       0       0       0       0       0
       0       0       0       0       0       0       0       0       0       0
       0       0       0       0       0       0       0       0       0       0
       0       0       0       0       0       0       0       0       0       0
       0       0       0       0       0       0       0       0       0       0
       0       0       0       0       0       0       0       0       0       0
       0       0       0       0       0       0       0       0       0       0
       0       0       0       0       0       0       0       0       0       0
       0       0       0       0       0       0       0       0       0       0
       0       0       0       0       0       0       0       0       0       0
       0       0       0       0       0       0       0       0       0       0
       0       0       0       0       0       0       0       0       0       0
       0       0       0       0       0       0       0       0       0       0
       0       0       0       0       0       0       0       0       0       0
       0       0       0       0       0       0       0       0       0       0
       0       0       0       0       0       0       0       0       0       0
       0       0       0       0       0       0       0       0       0       0
       0       0       0       0       0       0       0       0       0       0
       0       0       0       0       0       0       0       0       0       0
       0       0       0       0       0       0       0       0       0       0
       0       0       0       0       0       0       0       0       0       0
       0       0       0       0       0       0       0       0       0       0
       0       0       0       0       0       0       0       0       0       0
       0       0       0       0       0       0       0       0       0       0
       0       0       0       0       0       0       0       0       0       0
       0       0       0       0       0       0       0       0       0       0
       0       0       0       0       0       0       0       0       0       0
       0       0       0       0       0       0       0       0       0       0
       0       0       0       0       0       0       0       0       0       0
       0       0       0       0       0       0       0       0       0       0
       0       0       0       0       0       0       0       0       0       0
       0       0       0       0       0       0       0       0       0       0
       0       0       0       0       0       0       0       0       0       0
       0       0       0       0       0       0       0       0       0       0
       0       0       0       0       0       0       0       0       0       0
       0       0       0       0       0       0       0       0       0       0
       0       0       0       0       0       0       0       0       0       0
       0       0       0       0       0       0       0       0       0       0
       0       0       0       0       0       0       0       0       0       0
       0       0       0       0       0       0       0       0       0       0
       0       0       0       0       0       0       0       0       0       0
       0       0       0       0       0       0       0       0       0       0
       0       0       0       0       0       0       0       0       0       0
       0       0       0       0       0       0       0       0       0       0
       0       0       0       0       0       0       0       0       0       0
       0       0       0       0       0       0       0       0       0       0
       0       0       0       0       0       0       0       0       0       0
       0       0       0       0       0       0       0       0       0       0
       0       0       0       0       0       0       0       0       0       0
       0       0       0       0       0       0       0       0       0       0
       0       0       0       0       0       0       0       0       0       0
       0       0       0       0       0       0       0       0       0       0
       0       0       0       0       0       0       0       0       0       0
       0       0       0       0       0       0       0       0       0       0
       0       0       0       0       0       0       0       0       0       0
       0       0       0       0       0       0       0       0       0       0
       0       0       0       0       0       0       0       0       0       0
       0       0       0       0       0       0       0       0       0       0
       0       0       0       0       0       0       0       0       0       0
       0       0       0       0       0       0       0       0       0       0
       0       0       0       0       0       0       0       0       0       0
       0       0       0       0       0       0       0       0       0       0
       0       0       0       0       0       0       0       0       0       0
       0       0       0       0       0       0       0       0       0       0
       0       0       0       0       0       0       0       0       0       0
       0       0       0       0       0       0       0       0       0       0
       0       0       0       0       0       0       0       0       0       0
       0       0       0       0       0       0       0       0       0       0
       0       0       0       0       0       0       0       0       0       0
       0       0       0       0       0       0       0       0       0       0
       0       0       0       0       0       0       0       0       0       0
       0       0       0       0       0       0       0       0       0       0
       0       0       0       0       0       0       0       0       0       0
       0       0       0       0       0       0       0       0       0       0
       0       0       0       0       0       0       0       0       0       0
       0       0       0       0       0       0       0       0       0       0
       0       0       0       0       0       0       0       0       0       0
       0       0       0       0       0       0       0       0       0       0
       0       0       0       0       0       0       0       0       0       0
       0       0       0       0       0       0       0       0       0       0
       0       0       0       0       0       0       0       0       0       0
       0       0       0       0       0       0       0       0       0       0
       0       0       0       0       0       0       0       0       0       0
       0       0       0       0       0       0       0       0       0       0
       0       0       0       0       0       0       0       0       0       0
       0       0       0       0       0       0       0       0       0       0
       0       0       0       0       0       0       0       0       0       0
       0       0       0       0       0       0       0       0       0       0
       0       0       0       0       0       0       0       0       0       0
       0       0       0       0       0       0       0       0       0       0
       0       0       0       0       0       0       0       0       0       0
       0       0       0       0       0       0       0       0       0       0
       0       0       0       0       0       0       0       0       0       0
       0       0       0       0       0       0       0       0       0       0
       0       0       0       0       0       0       0       0       0       0
       0       0       0       0       0       0       0       0       0       0
       0       0       0       0       0       0       0       0       0       0
       0       0       0       0       0       0       0       0       0       0
       0       0       0       0       0       0       0       0       0       0
       0       0       0       0       0       0       0       0       0       0
       0       0       0       0       0       0       0       0       0       0
       0       0       0       0       0       0       0       0       0       0
       0       0       0       0       0       0       0       0       0       0
       0       0       0       0       0       0       0       0       0       0
       0       0       0       0       0       0       0       0       0       0
       0       0       0       0       0       0       0       0       0       0
       0       0       0       0       0       0       0       0       0       0
       0       0       0       0       0       0       0       0       0       0
       0       0       0       0       0       0       0       0       0       0
       0       0       0       0       0       0       0       0       0       0
       0       0       0       0       0       0       0       0       0       0
       0       0       0       0       0       0       0       0       0       0
       0       0       0       0       0       0       0       0       0       0
       0       0       0       0       0       0       0       0       0       0
       0       0       0       0       0       0       0       0       0       0
       0       0       0       0       0       0       0       0       0       0
       0       0       0       0       0       0       0       0       0       0
       0       0       0       0       0       0       0       0       0       0
       0       0       0       0       0       0       0       0       0       0
       0       0       0       0       0       0       0       0       0       0
       0       0       0       0       0       0       0       0       0       0
       0       0       0       0       0       0       0       0       0       0
       0       0       0       0       0       0       0       0       0       0
       0       0       0       0       0       0       0       0       0       0
       0       0       0       0       0       0       0       0       0       0
       0       0       0       0       0       0       0       0       0       0
       0       0       0       0       0       0       0       0       0       0
       0       0       0       0       0       0       0       0       0       0
       0       0       0       0       0       0       0       0       0       0
       0       0       0       0       0       0       0       0       0       0
       0       0       0       0       0       0       0       0       0       0
       0       0       0       0       0       0       0       0       0       0
       0       0       0       0       0       0       0       0       0       0
       0       0       0       0       0       0       0       0       0       0
       0       0       0       0       0       0       0       0       0       0
       0       0       0       0       0       0       0       0       0       0
       0       0       0       0       0       0       0       0       0       0
       0       0       0       0       0       0       0       0       0       0
       0       0       0       0       0       0       0       0       0       0
       0       0       0       0       0       0       0       0       0       0
       0       0       0       0       0       0       0       0       0       0
       0       0       0       0       0       0       0       0       0       0
       0       0       0       0       0       0       0       0       0       0
       0       0       0       0       0       0       0       0       0       0
       0       0       0       0       0       0       0       0       0       0
       0       0       0       0       0       0       0       0       0       0
       0       0       0       0       0       0       0       0       0       0
       0       0       0       0       0       0       0       0       0       0
       0       0       0       0       0       0       0       0       0       0
       0       0       0       0       0       0       0       0       0       0
       0       0       0       0       0       0       0       0       0       0
       0       0       0       0       0       0       0       0       0       0
       0       0       0       0       0       0       0       0       0       0
       0       0       0       0       0       0       0       0       0       0
       0       0       0       0       0       0       0       0       0       0
       0       0       0       0       0       0       0       0       0       0
       0       0       0       0       0       0       0       0       0       0
       0       0       0       0       0       0       0       0       0       0
       0       0       0       0       0       0       0       0       0       0
       0       0       0       0       0       0       0       0       0       0
       0       0       0       0       0       0       0       0       0       0
       0       0       0       0       0       0       0       0       0       0
       0       0       0       0       0       0       0       0       0       0
       0       0       0       0       0       0       0       0       0       0
       0       0       0       0       0       0       0       0       0       0
       0       0       0       0       0       0       0       0       0       0
       0       0       0       0       0       0       0       0       0       0
       0       0       0       0       0       0       0       0       0       0
       0       0       0       0       0       0       0       0       0       0
       0       0       0       0       0       0       0       0       0       0
       0       0       0       0       0       0       0       0       0       0
       0       0       0       0       0       0       0       0       0       0
       0       0       0       0       0       0       0       0       0       0
       0       0       0       0       0       0       0       0       0       0
       0       0       0       0       0       0       0       0       0       0
       0       0       0       0       0       0       0       0       0       0
       0       0       0       0       0       0       0       0       0       0
       0       0       0       0       0       0       0       0       0       0
       0       0       0       0       0       0       0       0       0       0
       0       0       0       0       0       0       0       0       0       0
       0       0       0       0       0       0       0       0       0       0
       0       0       0       0       0       0       0       0       0       0
       0       0       0       0       0       0       0       0       0       0
       0       0       0       0       0       0       0       0       0       0
       0       0       0       0       0       0       0       0       0       0
       0       0       0       0       0       0       0       0       0       0
       0       0       0       0       0       0       0       0       0       0
       0       0       0       0       0       0       0       0       0       0
       0       0       0       0       0       0       0       0       0       0
       0       0       0       0       0       0       0       0       0       0
       0       0       0       0       0       0       0       0       0       0
       0       0       0       0       0       0       0       0       0       0
       0       0       0       0       0       0       0       0       0       0
       0       0       0       0       0       0       0       0       0       0
       0       0       0       0       0       0       0       0       0       0
       0       0       0       0       0       0       0       0       0       0
       0       0       0       0       0       0       0       0       0       0
       0       0       0       0       0       0       0       0       0       0
       0       0       0       0       0       0       0       0       0       0
       0       0       0       0       0       0       0       0       0       0
       0       0       0       0       0       0       0       0       0       0
       0       0       0       0       0       0       0       0       0       0
       0       0       0       0       0       0       0       0       0       0
       0       0       0       0       0       0       0       0       0       0
       0       0       0       0       0       0       0       0       0       0
       0       0       0       0       0       0       0       0       0       0
       0       0       0       0       0       0       0       0       0       0
       0       0       0       0       0       0       0       0       0       0
       0       0       0       0       0       0       0       0       0       0
       0       0       0       0       0       0       0       0       0       0
       0       0       0       0       0       0       0       0       0       0
       0       0       0       0       0       0       0       0       0       0
       0       0       0       0       0       0       0       0       0       0
       0       0       0       0       0       0       0       0       0       0
       0       0       0       0       0       0       0       0       0       0
       0       0       0       0       0       0       0       0       0       0
       0       0       0       0       0       0       0       0       0       0
       0       0       0       0       0       0       0       0       0       0
       0       0       0       0       0       0       0       0       0       0
       0       0       0       0       0       0       0       0       0       0
       0       0       0       0       0       0       0       0       0       0
       0       0       0       0       0       0       0       0       0       0
       0       0       0       0       0       0       0       0       0       0
       0       0       0       0       0       0       0       0       0       0
       0       0       0       0       0       0       0       0       0       0
       0       0       0       0       0       0       0       0       0       0
       0       0       0       0       0       0       0       0       0       0
       0       0       0       0       0       0       0       0       0       0
       0       0       0       0       0       0       0       0       0       0
       0       0       0       0       0       0       0       0       0       0
       0       0       0       0       0       0       0       0       0       0
       0       0       0       0       0       0       0       0       0       0
       0       0       0       0       0       0       0       0       0       0
       0       0       0       0       0       0       0       0       0       0
       0       0       0       0       0       0       0       0       0       0
       0       0       0       0       0       0       0       0       0       0
       0       0       0       0       0       0       0       0       0       0
       0       0       0       0       0       0       0       0       0       0
       0       0       0       0       0       0       0       0       0       0
       0       0       0       0       0       0       0       0       0       0
       0       0       0       0       0       0       0       0       0       0
       0       0       0       0       0       0       0       0       0       0
       0       0       0       0       0       0       0       0       0       0
       0       0       0       0       0       0       0       0       0       0
       0       0       0       0       0       0       0       0       0       0
       0       0       0       0       0       0       0       0       0       0
       0       0       0       0       0       0       0       0       0       0
       0       0       0       0       0       0       0       0       0       0
       0       0       0       0       0       0       0       0       0       0
       0       0       0       0       0       0       0       0       0       0
       0       0       0       0       0       0       0       0       0       0
       0       0       0       0       0       0       0       0       0       0
       0       0       0       0       0       0       0       0       0       0
       0       0       0       0       0       0       0       0       0       0
       0       0       0       0       0       0       0       0       0       0
       0       0       0       0       0       0       0       0       0       0
       0       0       0       0       0       0       0       0       0       0
       0       0       0       0       0       0       0       0       0       0
       0       0       0       0       0       0       0       0       0       0
       0       0       0       0       0       0       0       0       0       0
       0       0       0       0       0       0       0       0       0       0
       0       0       0       0       0       0       0       0       0       0
       0       0       0       0       0       0       0       0       0       0
       0       0       0       0       0       0       0       0       0       0
       0       0       0       0       0       0       0       0       0       0
       0       0       0       0       0       0       0       0       0       0
       0       0       0       0       0       0       0       0       0       0
       0       0       0       0       0       0       0       0       0       0
       0       0       0       0       0       0       0       0       0       0
       0       0       0       0       0       0       0       0       0       0
       0       0       0       0       0       0       0       0       0       0
       0       0       0       0       0       0       0       0       0       0
       0       0       0       0       0       0       0       0       0       0
       0       0       0       0       0       0       0       0       0       0
       0       0       0       0       0       0       0       0       0       0
       0       0       0       0       0       0       0       0       0       0
       0       0       0       0       0       0       0       0       0       0
       0       0       0       0       0       0       0       0       0       0
       0       0       0       0       0       0       0       0       0       0
       0       0       0       0       0       0       0       0       0       0
       0       0       0       0       0       0       0       0       0       0
       0       0       0       0       0       0       0       0       0       0
       0       0       0       0       0       0       0       0       0       0
       0
%FLAG SOLVENT_POINTERS                                                          
%FORMAT(3I8)                                                                    
      75   12034      44
%FLAG ATOMS_PER_MOLECULE                                                        
%FORMAT(10I8)                                                                   
     485       1       1       1       1       1       1       1       1       1
       1       1       1       1       1       1       1       1       1       1
       1       1       1       1       1       1       1       1       1       1
       1       1       1       1       1       1       1       1       1       1
       1       1       1       4       4       4       4       4       4       4
       4       4       4       4       4       4       4       4       4       4
       4       4       4       4       4       4       4       4       4       4
       4       4       4       4       4       4       4       4       4       4
       4       4       4       4       4       4       4       4       4       4
       4       4       4       4       4       4       4       4       4       4
       4       4       4       4       4       4       4       4       4       4
       4       4       4       4       4       4       4       4       4       4
       4       4       4       4       4       4       4       4       4       4
       4       4       4       4       4       4       4       4       4       4
       4       4       4       4       4       4       4       4       4       4
       4       4       4       4       4       4       4       4       4       4
       4       4       4       4       4       4       4       4       4       4
       4       4       4       4       4       4       4       4       4       4
       4       4       4       4       4       4       4       4       4       4
       4       4       4       4       4       4       4       4       4       4
       4       4       4       4       4       4       4       4       4       4
       4       4       4       4       4       4       4       4       4       4
       4       4       4       4       4       4       4       4       4       4
       4       4       4       4       4       4       4       4       4       4
       4       4       4       4       4       4       4       4       4       4
       4       4       4       4       4       4       4       4       4       4
       4       4       4       4       4       4       4       4       4       4
       4       4       4       4       4       4       4       4       4       4
       4       4       4       4       4       4       4       4       4       4
       4       4       4       4       4       4       4       4       4       4
       4       4       4       4       4       4       4       4       4       4
       4       4       4       4       4       4       4       4       4       4
       4       4       4       4       4       4       4       4       4       4
       4       4       4       4       4       4       4       4       4       4
       4       4       4       4       4       4       4       4       4       4
       4       4       4       4       4       4       4       4       4       4
       4       4       4       4       4       4       4       4       4       4
       4       4       4       4       4       4       4       4       4       4
       4       4       4       4       4       4       4       4       4       4
       4       4       4       4       4       4       4       4       4       4
       4       4       4       4       4       4       4       4       4       4
       4       4       4       4       4       4       4       4       4       4
       4       4       4       4       4       4       4       4       4       4
       4       4       4       4       4       4       4       4       4       4
       4       4       4       4       4       4       4       4       4       4
       4       4       4       4       4       4       4       4       4       4
       4       4       4       4       4       4       4       4       4       4
       4       4       4       4       4       4       4       4       4       4
       4       4       4       4       4       4       4       4       4       4
       4       4       4       4       4       4       4       4       4       4
       4       4       4       4       4       4       4       4       4       4
       4       4       4       4       4       4       4       4       4       4
       4       4       4       4       4       4       4       4       4       4
       4       4       4       4       4       4       4       4       4       4
       4       4       4       4       4       4       4       4       4       4
       4       4       4       4       4       4       4       4       4       4
       4       4       4       4       4       4       4       4       4       4
       4       4       4       4       4       4       4       4       4       4
       4       4       4       4       4       4       4       4       4       4
       4       4       4       4       4       4       4       4       4       4
       4       4       4       4       4       4       4       4       4       4
       4       4       4       4       4       4       4       4       4       4
       4       4       4       4       4       4       4       4       4       4
       4       4       4       4       4       4       4       4       4       4
       4       4       4       4       4       4       4       4       4       4
       4       4       4       4       4       4       4       4       4       4
       4       4       4       4       4       4       4       4       4       4
       4       4       4       4       4       4       4       4       4       4
       4       4       4       4       4       4       4       4       4       4
       4       4       4       4       4       4       4       4       4       4
       4       4       4       4       4       4       4       4       4       4
       4       4       4       4       4       4       4       4       4       4
       4       4       4       4       4       4       4       4       4       4
       4       4       4       4       4       4       4       4       4       4
       4       4       4       4       4       4       4       4       4       4
       4       4       4       4       4       4       4       4       4       4
       4       4       4       4       4       4       4       4       4       4
       4       4       4       4       4       4       4       4       4       4
       4       4       4       4       4       4       4       4       4       4
       4       4       4       4       4       4       4       4       4       4
       4       4       4       4       4       4       4       4       4       4
       4       4       4       4       4       4       4       4       4       4
       4       4       4       4       4       4       4       4       4       4
       4       4       4       4       4       4       4       4       4       4
       4       4       4       4       4       4       4       4       4       4
       4       4       4       4       4       4       4       4       4       4
       4       4       4       4       4       4       4       4       4       4
       4       4       4       4       4       4       4       4       4       4
       4       4       4       4       4       4       4       4       4       4
       4       4       4       4       4       4       4       4       4       4
       4       4       4       4       4       4       4       4       4       4
       4       4       4       4       4       4       4       4       4       4
       4       4       4       4       4       4       4       4       4       4
       4       4       4       4       4       4       4       4       4       4
       4       4       4       4       4       4       4       4       4       4
       4       4       4       4       4       4       4       4       4       4
       4       4       4       4       4       4       4       4       4       4
       4       4       4       4       4       4       4       4       4       4
       4       4       4       4       4       4       4       4       4       4
       4       4       4       4       4       4       4       4       4       4
       4       4       4       4       4       4       4       4       4       4
       4       4       4       4       4       4       4       4       4       4
       4       4       4       4       4       4       4       4       4       4
       4       4       4       4       4       4       4       4       4       4
       4       4       4       4       4       4       4       4       4       4
       4       4       4       4       4       4       4       4       4       4
       4       4       4       4       4       4       4       4       4       4
       4       4       4       4       4       4       4       4       4       4
       4       4       4       4       4       4       4       4       4       4
       4       4       4       4       4       4       4       4       4       4
       4       4       4       4       4       4       4       4       4       4
       4       4       4       4       4       4       4       4       4       4
       4       4       4       4       4       4       4       4       4       4
       4       4       4       4       4       4       4       4       4       4
       4       4       4       4       4       4       4       4       4       4
       4       4       4       4       4       4       4       4       4       4
       4       4       4       4       4       4       4       4       4       4
       4       4       4       4       4       4       4       4       4       4
       4       4       4       4       4       4       4       4       4       4
       4       4       4       4       4       4       4       4       4       4
       4       4       4       4       4       4       4       4       4       4
       4       4       4       4       4       4       4       4       4       4
       4       4       4       4       4       4       4       4       4       4
       4       4       4       4       4       4       4       4       4       4
       4       4       4       4       4       4       4       4       4       4
       4       4       4       4       4       4       4       4       4       4
       4       4       4       4       4       4       4       4       4       4
       4       4       4       4       4       4       4       4       4       4
       4       4       4       4       4       4       4       4       4       4
       4       4       4       4       4       4       4       4       4       4
       4       4       4       4       4       4       4       4       4       4
       4       4       4       4       4       4       4       4       4       4
       4       4       4       4       4       4       4       4       4       4
       4       4       4       4       4       4       4       4       4       4
       4       4       4       4       4       4       4       4       4       4
       4       4       4       4       4       4       4       4       4       4
       4       4       4       4       4       4       4       4       4       4
       4       4       4       4       4       4       4       4       4       4
       4       4       4       4       4       4       4       4       4       4
       4       4       4       4       4       4       4       4       4       4
       4       4       4       4       4       4       4       4       4       4
       4       4       4       4       4       4       4       4       4       4
       4       4       4       4       4       4       4       4       4       4
       4       4       4       4       4       4       4       4       4       4
       4       4       4       4       4       4       4       4       4       4
       4       4       4       4       4       4       4       4       4       4
       4       4       4       4       4       4       4       4       4       4
       4       4       4       4       4       4       4       4       4       4
       4       4       4       4       4       4       4       4       4       4
       4       4       4       4       4       4       4       4       4       4
       4       4       4       4       4       4       4       4       4       4
       4       4       4       4       4       4       4       4       4       4
       4       4       4       4       4       4       4       4       4       4
       4       4       4       4       4       4       4       4       4       4
       4       4       4       4       4       4       4       4       4       4
       4       4       4       4       4       4       4       4       4       4
       4       4       4       4       4       4       4       4       4       4
       4       4       4       4       4       4       4       4       4       4
       4       4       4       4       4       4       4       4       4       4
       4       4       4       4       4       4       4       4       4       4
       4       4       4       4       4       4       4       4       4       4
       4       4       4       4       4       4       4       4       4       4
       4       4       4       4       4       4       4       4       4       4
       4       4       4       4       4       4       4       4       4       4
       4       4       4       4       4       4       4       4       4       4
       4       4       4       4       4       4       4       4       4       4
       4       4       4       4       4       4       4       4       4       4
       4       4       4       4       4       4       4       4       4       4
       4       4       4       4       4       4       4       4       4       4
       4       4       4       4       4       4       4       4       4       4
       4       4       4       4       4       4       4       4       4       4
       4       4       4       4       4       4       4       4       4       4
       4       4       4       4       4       4       4       4       4       4
       4       4       4       4       4       4       4       4       4       4
       4       4       4       4       4       4       4       4       4       4
       4       4       4       4       4       4       4       4       4       4
       4       4       4       4       4       4       4       4       4       4
       4       4       4       4       4       4       4       4       4       4
       4       4       4       4       4       4       4       4       4       4
       4       4       4       4       4       4       4       4       4       4
       4       4       4       4       4       4       4       4       4       4
       4       4       4       4       4       4       4       4       4       4
       4       4       4       4       4       4       4       4       4       4
       4       4       4       4       4       4       4       4       4       4
       4       4       4       4       4       4       4       4       4       4
       4       4       4       4       4       4       4       4       4       4
       4       4       4       4       4       4       4       4       4       4
       4       4       4       4       4       4       4       4       4       4
       4       4       4       4       4       4       4       4       4       4
       4       4       4       4       4       4       4       4       4       4
       4       4       4       4       4       4       4       4       4       4
       4       4       4       4       4       4       4       4       4       4
       4       4       4       4       4       4       4       4       4       4
       4       4       4       4       4       4       4       4       4       4
       4       4       4       4       4       4       4       4       4       4
       4       4       4       4       4       4       4       4       4       4
       4       4       4       4       4       4       4       4       4       4
       4       4       4       4       4       4       4       4       4       4
       4       4       4       4       4       4       4       4       4       4
       4       4       4       4       4       4       4       4       4       4
       4       4       4       4       4       4       4       4       4       4
       4       4       4       4       4       4       4       4       4       4
       4       4       4       4       4       4       4       4       4       4
       4       4       4       4       4       4       4       4       4       4
       4       4       4       4       4       4       4       4       4       4
       4       4       4       4       4       4       4       4       4       4
       4       4       4       4       4       4       4       4       4       4
       4       4       4       4       4       4       4       4       4       4
       4       4       4       4       4       4       4       4       4       4
       4       4       4       4       4       4       4       4       4       4
       4       4       4       4       4       4       4       4       4       4
       4       4       4       4       4       4       4       4       4       4
       4       4       4       4       4       4       4       4       4       4
       4       4       4       4       4       4       4       4       4       4
       4       4       4       4       4       4       4       4       4       4
       4       4       4       4       4       4       4       4       4       4
       4       4       4       4       4       4       4       4       4       4
       4       4       4       4       4       4       4       4       4       4
       4       4       4       4       4       4       4       4       4       4
       4       4       4       4       4       4       4       4       4       4
       4       4       4       4       4       4       4       4       4       4
       4       4       4       4       4       4       4       4       4       4
       4       4       4       4       4       4       4       4       4       4
       4       4       4       4       4       4       4       4       4       4
       4       4       4       4       4       4       4       4       4       4
       4       4       4       4       4       4       4       4       4       4
       4       4       4       4       4       4       4       4       4       4
       4       4       4       4       4       4       4       4       4       4
       4       4       4       4       4       4       4       4       4       4
       4       4       4       4       4       4       4       4       4       4
       4       4       4       4       4       4       4       4       4       4
       4       4       4       4       4       4       4       4       4       4
       4       4       4       4       4       4       4       4       4       4
       4       4       4       4       4       4       4       4       4       4
       4       4       4       4       4       4       4       4       4       4
       4       4       4       4       4       4       4       4       4       4
       4       4       4       4       4       4       4       4       4       4
       4       4       4       4       4       4       4       4       4       4
       4       4       4       4       4       4       4       4       4       4
       4       4       4       4       4       4       4       4       4       4
       4       4       4       4       4       4       4       4       4       4
       4       4       4       4       4       4       4       4       4       4
       4       4       4       4       4       4       4       4       4       4
       4       4       4       4       4       4       4       4       4       4
       4       4       4       4       4       4       4       4       4       4
       4       4       4       4       4       4       4       4       4       4
       4       4       4       4       4       4       4       4       4       4
       4       4       4       4       4       4       4       4       4       4
       4       4       4       4       4       4       4       4       4       4
       4       4       4       4       4       4       4       4       4       4
       4       4       4       4       4       4       4       4       4       4
       4       4       4       4       4       4       4       4       4       4
       4       4       4       4       4       4       4       4       4       4
       4       4       4       4       4       4       4       4       4       4
       4       4       4       4       4       4       4       4       4       4
       4       4       4       4       4       4       4       4       4       4
       4       4       4       4       4       4       4       4       4       4
       4       4       4       4       4       4       4       4       4       4
       4       4       4       4       4       4       4       4       4       4
       4       4       4       4       4       4       4       4       4       4
       4       4       4       4       4       4       4       4       4       4
       4       4       4       4       4       4       4       4       4       4
       4       4       4       4       4       4       4       4       4       4
       4       4       4       4       4       4       4       4       4       4
       4       4       4       4       4       4       4       4       4       4
       4       4       4       4       4       4       4       4       4       4
       4       4       4       4       4       4       4       4       4       4
       4       4       4       4       4       4       4       4       4       4
       4       4       4       4       4       4       4       4       4       4
       4       4       4       4       4       4       4       4       4       4
       4       4       4       4       4       4       4       4       4       4
       4       4       4       4       4       4       4       4       4       4
       4       4       4       4       4       4       4       4       4       4
       4       4       4       4       4       4       4       4       4       4
       4       4       4       4       4       4       4       4       4       4
       4       4       4       4       4       4       4       4       4       4
       4       4       4       4       4       4       4       4       4       4
       4       4       4       4       4       4       4       4       4       4
       4       4       4       4       4       4       4       4       4       4
       4       4       4       4       4       4       4       4       4       4
       4       4       4       4       4       4       4       4       4       4
       4       4       4       4       4       4       4       4       4       4
       4       4       4       4       4       4       4       4       4       4
       4       4       4       4       4       4       4       4       4       4
       4       4       4       4       4       4       4       4       4       4
       4       4       4       4       4       4       4       4       4       4
       4       4       4       4       4       4       4       4       4       4
       4       4       4       4       4       4       4       4       4       4
       4       4       4       4       4       4       4       4       4       4
       4       4       4       4       4       4       4       4       4       4
       4       4       4       4       4       4       4       4       4       4
       4       4       4       4       4       4       4       4       4       4
       4       4       4       4       4       4       4       4       4       4
       4       4       4       4       4       4       4       4       4       4
       4       4       4       4       4       4       4       4       4       4
       4       4       4       4       4       4       4       4       4       4
       4       4       4       4       4       4       4       4       4       4
       4       4       4       4       4       4       4       4       4       4
       4       4       4       4       4       4       4       4       4       4
       4       4       4       4       4       4       4       4       4       4
       4       4       4       4       4       4       4       4       4       4
       4       4       4       4       4       4       4       4       4       4
       4       4       4       4       4       4       4       4       4       4
       4       4       4       4       4       4       4       4       4       4
       4       4       4       4       4       4       4       4       4       4
       4       4       4       4       4       4       4       4       4       4
       4       4       4       4       4       4       4       4       4       4
       4       4       4       4       4       4       4       4       4       4
       4       4       4       4       4       4       4       4       4       4
       4       4       4       4       4       4       4       4       4       4
       4       4       4       4       4       4       4       4       4       4
       4       4       4       4       4       4       4       4       4       4
       4       4       4       4       4       4       4       4       4       4
       4       4       4       4       4       4       4       4       4       4
       4       4       4       4       4       4       4       4       4       4
       4       4       4       4       4       4       4       4       4       4
       4       4       4       4       4       4       4       4       4       4
       4       4       4       4       4       4       4       4       4       4
       4       4       4       4       4       4       4       4       4       4
       4       4       4       4       4       4       4       4       4       4
       4       4       4       4       4       4       4       4       4       4
       4       4       4       4       4       4       4       4       4       4
       4       4       4       4       4       4       4       4       4       4
       4       4       4       4       4       4       4       4       4       4
       4       4       4       4       4       4       4       4       4       4
       4       4       4       4       4       4       4       4       4       4
       4       4       4       4       4       4       4       4       4       4
       4       4       4       4       4       4       4       4       4       4
       4       4       4       4       4       4       4       4       4       4
       4       4       4       4       4       4       4       4       4       4
       4       4       4       4       4       4       4       4       4       4
       4       4       4       4       4       4       4       4       4       4
       4       4       4       4       4       4       4       4       4       4
       4       4       4       4       4       4       4       4       4       4
       4       4       4       4       4       4       4       4       4       4
       4       4       4       4       4       4       4       4       4       4
       4       4       4       4       4       4       4       4       4       4
       4       4       4       4       4       4       4       4       4       4
       4       4       4       4       4       4       4       4       4       4
       4       4       4       4       4       4       4       4       4       4
       4       4       4       4       4       4       4       4       4       4
       4       4       4       4       4       4       4       4       4       4
       4       4       4       4       4       4       4       4       4       4
       4       4       4       4       4       4       4       4       4       4
       4       4       4       4       4       4       4       4       4       4
       4       4       4       4       4       4       4       4       4       4
       4       4       4       4       4       4       4       4       4       4
       4       4       4       4       4       4       4       4       4       4
       4       4       4       4       4       4       4       4       4       4
       4       4       4       4       4       4       4       4       4       4
       4       4       4       4       4       4       4       4       4       4
       4       4       4       4       4       4       4       4       4       4
       4       4       4       4       4       4       4       4       4       4
       4       4       4       4       4       4       4       4       4       4
       4       4       4       4       4       4       4       4       4       4
       4       4       4       4       4       4       4       4       4       4
       4       4       4       4       4       4       4       4       4       4
       4       4       4       4       4       4       4       4       4       4
       4       4       4       4       4       4       4       4       4       4
       4       4       4       4       4       4       4       4       4       4
       4       4       4       4       4       4       4       4       4       4
       4       4       4       4       4       4       4       4       4       4
       4       4       4       4       4       4       4       4       4       4
       4       4       4       4       4       4       4       4       4       4
       4       4       4       4       4       4       4       4       4       4
       4       4       4       4       4       4       4       4       4       4
       4       4       4       4       4       4       4       4       4       4
       4       4       4       4       4       4       4       4       4       4
       4       4       4       4       4       4       4       4       4       4
       4       4       4       4       4       4       4       4       4       4
       4       4       4       4       4       4       4       4       4       4
       4       4       4       4       4       4       4       4       4       4
       4       4       4       4       4       4       4       4       4       4
       4       4       4       4       4       4       4       4       4       4
       4       4       4       4       4       4       4       4       4       4
       4       4       4       4       4       4       4       4       4       4
       4       4       4       4       4       4       4       4       4       4
       4       4       4       4       4       4       4       4       4       4
       4       4       4       4       4       4       4       4       4       4
       4       4       4       4       4       4       4       4       4       4
       4       4       4       4       4       4       4       4       4       4
       4       4       4       4       4       4       4       4       4       4
       4       4       4       4       4       4       4       4       4       4
       4       4       4       4       4       4       4       4       4       4
       4       4       4       4       4       4       4       4       4       4
       4       4       4       4       4       4       4       4       4       4
       4       4       4       4       4       4       4       4       4       4
       4       4       4       4       4       4       4       4       4       4
       4       4       4       4       4       4       4       4       4       4
       4       4       4       4       4       4       4       4       4       4
       4       4       4       4       4       4       4       4       4       4
       4       4       4       4       4       4       4       4       4       4
       4       4       4       4       4       4       4       4       4       4
       4       4       4       4       4       4       4       4       4       4
       4       4       4       4       4       4       4       4       4       4
       4       4       4       4       4       4       4       4       4       4
       4       4       4       4       4       4       4       4       4       4
       4       4       4       4       4       4       4       4       4       4
       4       4       4       4       4       4       4       4       4       4
       4       4       4       4       4       4       4       4       4       4
       4       4       4       4       4       4       4       4       4       4
       4       4       4       4       4       4       4       4       4       4
       4       4       4       4       4       4       4       4       4       4
       4       4       4       4       4       4       4       4       4       4
       4       4       4       4       4       4       4       4       4       4
       4       4       4       4       4       4       4       4       4       4
       4       4       4       4       4       4       4       4       4       4
       4       4       4       4       4       4       4       4       4       4
       4       4       4       4       4       4       4       4       4       4
       4       4       4       4       4       4       4       4       4       4
       4       4       4       4       4       4       4       4       4       4
       4       4       4       4       4       4       4       4       4       4
       4       4       4       4       4       4       4       4       4       4
       4       4       4       4       4       4       4       4       4       4
       4       4       4       4       4       4       4       4       4       4
       4       4       4       4       4       4       4       4       4       4
       4       4       4       4       4       4       4       4       4       4
       4       4       4       4       4       4       4       4       4       4
       4       4       4       4       4       4       4       4       4       4
       4       4       4       4       4       4       4       4       4       4
       4       4       4       4       4       4       4       4       4       4
       4       4       4       4       4       4       4       4       4       4
       4       4       4       4       4       4       4       4       4       4
       4       4       4       4       4       4       4       4       4       4
       4       4       4       4       4       4       4       4       4       4
       4       4       4       4       4       4       4       4       4       4
       4       4       4       4       4       4       4       4       4       4
       4       4       4       4       4       4       4       4       4       4
       4       4       4       4       4       4       4       4       4       4
       4       4       4       4       4       4       4       4       4       4
       4       4       4       4       4       4       4       4       4       4
       4       4       4       4       4       4       4       4       4       4
       4       4       4       4       4       4       4       4       4       4
       4       4       4       4       4       4       4       4       4       4
       4       4       4       4       4       4       4       4       4       4
       4       4       4       4       4       4       4       4       4       4
       4       4       4       4       4       4       4       4       4       4
       4       4       4       4       4       4       4       4       4       4
       4       4       4       4       4       4       4       4       4       4
       4       4       4       4       4       4       4       4       4       4
       4       4       4       4       4       4       4       4       4       4
       4       4       4       4       4       4       4       4       4       4
       4       4       4       4       4       4       4       4       4       4
       4       4       4       4       4       4       4       4       4       4
       4       4       4       4       4       4       4       4       4       4
       4       4       4       4       4       4       4       4       4       4
       4       4       4       4       4       4       4       4       4       4
       4       4       4       4       4       4       4       4       4       4
       4       4       4       4       4       4       4       4       4       4
       4       4       4       4       4       4       4       4       4       4
       4       4       4       4       4       4       4       4       4       4
       4       4       4       4       4       4       4       4       4       4
       4       4       4       4       4       4       4       4       4       4
       4       4       4       4       4       4       4       4       4       4
       4       4       4       4       4       4       4       4       4       4
       4       4       4       4       4       4       4       4       4       4
       4       4       4       4       4       4       4       4       4       4
       4       4       4       4       4       4       4       4       4       4
       4       4       4       4       4       4       4       4       4       4
       4       4       4       4       4       4       4       4       4       4
       4       4       4       4       4       4       4       4       4       4
       4       4       4       4       4       4       4       4       4       4
       4       4       4       4       4       4       4       4       4       4
       4       4       4       4       4       4       4       4       4       4
       4       4       4       4       4       4       4       4       4       4
       4       4       4       4       4       4       4       4       4       4
       4       4       4       4       4       4       4       4       4       4
       4       4       4       4       4       4       4       4       4       4
       4       4       4       4       4       4       4       4       4       4
       4       4       4       4       4       4       4       4       4       4
       4       4       4       4       4       4       4       4       4       4
       4       4       4       4       4       4       4       4       4       4
       4       4       4       4       4       4       4       4       4       4
       4       4       4       4       4       4       4       4       4       4
       4       4       4       4       4       4       4       4       4       4
       4       4       4       4       4       4       4       4       4       4
       4       4       4       4       4       4       4       4       4       4
       4       4       4       4       4       4       4       4       4       4
       4       4       4       4       4       4       4       4       4       4
       4       4       4       4       4       4       4       4       4       4
       4       4       4       4       4       4       4       4       4       4
       4       4       4       4       4       4       4       4       4       4
       4       4       4       4       4       4       4       4       4       4
       4       4       4       4       4       4       4       4       4       4
       4       4       4       4       4       4       4       4       4       4
       4       4       4       4       4       4       4       4       4       4
       4       4       4       4       4       4       4       4       4       4
       4       4       4       4       4       4       4       4       4       4
       4       4       4       4       4       4       4       4       4       4
       4       4       4       4       4       4       4       4       4       4
       4       4       4       4       4       4       4       4       4       4
       4       4       4       4       4       4       4       4       4       4
       4       4       4       4       4       4       4       4       4       4
       4       4       4       4       4       4       4       4       4       4
       4       4       4       4       4       4       4       4       4       4
       4       4       4       4       4       4       4       4       4       4
       4       4       4       4       4       4       4       4       4       4
       4       4       4       4       4       4       4       4       4       4
       4       4       4       4       4       4       4       4       4       4
       4       4       4       4       4       4       4       4       4       4
       4       4       4       4       4       4       4       4       4       4
       4       4       4       4       4       4       4       4       4       4
       4       4       4       4       4       4       4       4       4       4
       4       4       4       4       4       4       4       4       4       4
       4       4       4       4       4       4       4       4       4       4
       4       4       4       4       4       4       4       4       4       4
       4       4       4       4       4       4       4       4       4       4
       4       4       4       4       4       4       4       4       4       4
       4       4       4       4       4       4       4       4       4       4
       4       4       4       4       4       4       4       4       4       4
       4       4       4       4       4       4       4       4       4       4
       4       4       4       4       4       4       4       4       4       4
       4       4       4       4       4       4       4       4       4       4
       4       4       4       4       4       4       4       4       4       4
       4       4       4       4       4       4       4       4       4       4
       4       4       4       4       4       4       4       4       4       4
       4       4       4       4       4       4       4       4       4       4
       4       4       4       4       4       4       4       4       4       4
       4       4       4       4       4       4       4       4       4       4
       4       4       4       4       4       4       4       4       4       4
       4       4       4       4       4       4       4       4       4       4
       4       4       4       4       4       4       4       4       4       4
       4       4       4       4       4       4       4       4       4       4
       4       4       4       4       4       4       4       4       4       4
       4       4       4       4       4       4       4       4       4       4
       4       4       4       4       4       4       4       4       4       4
       4       4       4       4       4       4       4       4       4       4
       4       4       4       4       4       4       4       4       4       4
       4       4       4       4       4       4       4       4       4       4
       4       4       4       4       4       4       4       4       4       4
       4       4       4       4       4       4       4       4       4       4
       4       4       4       4       4       4       4       4       4       4
       4       4       4       4       4       4       4       4       4       4
       4       4       4       4       4       4       4       4       4       4
       4       4       4       4       4       4       4       4       4       4
       4       4       4       4       4       4       4       4       4       4
       4       4       4       4       4       4       4       4       4       4
       4       4       4       4       4       4       4       4       4       4
       4       4       4       4       4       4       4       4       4       4
       4       4       4       4       4       4       4       4       4       4
       4       4       4       4       4       4       4       4       4       4
       4       4       4       4       4       4       4       4       4       4
       4       4       4       4       4       4       4       4       4       4
       4       4       4       4       4       4       4       4       4       4
       4       4       4       4       4       4       4       4       4       4
       4       4       4       4       4       4       4       4       4       4
       4       4       4       4       4       4       4       4       4       4
       4       4       4       4       4       4       4       4       4       4
       4       4       4       4       4       4       4       4       4       4
       4       4       4       4       4       4       4       4       4       4
       4       4       4       4       4       4       4       4       4       4
       4       4       4       4       4       4       4       4       4       4
       4       4       4       4       4       4       4       4       4       4
       4       4       4       4       4       4       4       4       4       4
       4       4       4       4       4       4       4       4       4       4
       4       4       4       4       4       4       4       4       4       4
       4       4       4       4       4       4       4       4       4       4
       4       4       4       4       4       4       4       4       4       4
       4       4       4       4       4       4       4       4       4       4
       4       4       4       4       4       4       4       4       4       4
       4       4       4       4       4       4       4       4       4       4
       4       4       4       4       4       4       4       4       4       4
       4       4       4       4       4       4       4       4       4       4
       4       4       4       4       4       4       4       4       4       4
       4       4       4       4       4       4       4       4       4       4
       4       4       4       4       4       4       4       4       4       4
       4       4       4       4       4       4       4       4       4       4
       4       4       4       4       4       4       4       4       4       4
       4       4       4       4       4       4       4       4       4       4
       4       4       4       4       4       4       4       4       4       4
       4       4       4       4       4       4       4       4       4       4
       4       4       4       4       4       4       4       4       4       4
       4       4       4       4       4       4       4       4       4       4
       4       4       4       4       4       4       4       4       4       4
       4       4       4       4       4       4       4       4       4       4
       4       4       4       4       4       4       4       4       4       4
       4       4       4       4       4       4       4       4       4       4
       4       4       4       4       4       4       4       4       4       4
       4       4       4       4       4       4       4       4       4       4
       4       4       4       4       4       4       4       4       4       4
       4       4       4       4       4       4       4       4       4       4
       4       4       4       4       4       4       4       4       4       4
       4       4       4       4       4       4       4       4       4       4
       4       4       4       4       4       4       4       4       4       4
       4       4       4       4       4       4       4       4       4       4
       4       4       4       4       4       4       4       4       4       4
       4       4       4       4       4       4       4       4       4       4
       4       4       4       4       4       4       4       4       4       4
       4       4       4       4       4       4       4       4       4       4
       4       4       4       4       4       4       4       4       4       4
       4       4       4       4       4       4       4       4       4       4
       4       4       4       4       4       4       4       4       4       4
       4       4       4       4       4       4       4       4       4       4
       4       4       4       4       4       4       4       4       4       4
       4       4       4       4       4       4       4       4       4       4
       4       4       4       4       4       4       4       4       4       4
       4       4       4       4       4       4       4       4       4       4
       4       4       4       4       4       4       4       4       4       4
       4       4       4       4       4       4       4       4       4       4
       4       4       4       4       4       4       4       4       4       4
       4       4       4       4       4       4       4       4       4       4
       4       4       4       4       4       4       4       4       4       4
       4       4       4       4       4       4       4       4       4       4
       4       4       4       4       4       4       4       4       4       4
       4       4       4       4       4       4       4       4       4       4
       4       4       4       4       4       4       4       4       4       4
       4       4       4       4       4       4       4       4       4       4
       4       4       4       4       4       4       4       4       4       4
       4       4       4       4       4       4       4       4       4       4
       4       4       4       4       4       4       4       4       4       4
       4       4       4       4       4       4       4       4       4       4
       4       4       4       4       4       4       4       4       4       4
       4       4       4       4       4       4       4       4       4       4
       4       4       4       4       4       4       4       4       4       4
       4       4       4       4       4       4       4       4       4       4
       4       4       4       4       4       4       4       4       4       4
       4       4       4       4       4       4       4       4       4       4
       4       4       4       4       4       4       4       4       4       4
       4       4       4       4       4       4       4       4       4       4
       4       4       4       4       4       4       4       4       4       4
       4       4       4       4       4       4       4       4       4       4
       4       4       4       4       4       4       4       4       4       4
       4       4       4       4       4       4       4       4       4       4
       4       4       4       4       4       4       4       4       4       4
       4       4       4       4       4       4       4       4       4       4
       4       4       4       4       4       4       4       4       4       4
       4       4       4       4       4       4       4       4       4       4
       4       4       4       4       4       4       4       4       4       4
       4       4       4       4       4       4       4       4       4       4
       4       4       4       4       4       4       4       4       4       4
       4       4       4       4       4       4       4       4       4       4
       4       4       4       4       4       4       4       4       4       4
       4       4       4       4       4       4       4       4       4       4
       4       4       4       4       4       4       4       4       4       4
       4       4       4       4       4       4       4       4       4       4
       4       4       4       4       4       4       4       4       4       4
       4       4       4       4       4       4       4       4       4       4
       4       4       4       4       4       4       4       4       4       4
       4       4       4       4       4       4       4       4       4       4
       4       4       4       4       4       4       4       4       4       4
       4       4       4       4       4       4       4       4       4       4
       4       4       4       4       4       4       4       4       4       4
       4       4       4       4       4       4       4       4       4       4
       4       4       4       4       4       4       4       4       4       4
       4       4       4       4       4       4       4       4       4       4
       4       4       4       4       4       4       4       4       4       4
       4       4       4       4       4       4       4       4       4       4
       4       4       4       4       4       4       4       4       4       4
       4       4       4       4       4       4       4       4       4       4
       4       4       4       4       4       4       4       4       4       4
       4       4       4       4       4       4       4       4       4       4
       4       4       4       4       4       4       4       4       4       4
       4       4       4       4       4       4       4       4       4       4
       4       4       4       4       4       4       4       4       4       4
       4       4       4       4       4       4       4       4       4       4
       4       4       4       4       4       4       4       4       4       4
       4       4       4       4       4       4       4       4       4       4
       4       4       4       4       4       4       4       4       4       4
       4       4       4       4       4       4       4       4       4       4
       4       4       4       4       4       4       4       4       4       4
       4       4       4       4       4       4       4       4       4       4
       4       4       4       4       4       4       4       4       4       4
       4       4       4       4       4       4       4       4       4       4
       4       4       4       4       4       4       4       4       4       4
       4       4       4       4       4       4       4       4       4       4
       4       4       4       4       4       4       4       4       4       4
       4       4       4       4       4       4       4       4       4       4
       4       4       4       4       4       4       4       4       4       4
       4       4       4       4       4       4       4       4       4       4
       4       4       4       4       4       4       4       4       4       4
       4       4       4       4       4       4       4       4       4       4
       4       4       4       4       4       4       4       4       4       4
       4       4       4       4       4       4       4       4       4       4
       4       4       4       4       4       4       4       4       4       4
       4       4       4       4       4       4       4       4       4       4
       4       4       4       4       4       4       4       4       4       4
       4       4       4       4       4       4       4       4       4       4
       4       4       4       4       4       4       4       4       4       4
       4       4       4       4       4       4       4       4       4       4
       4       4       4       4       4       4       4       4       4       4
       4       4       4       4       4       4       4       4       4       4
       4       4       4       4       4       4       4       4       4       4
       4       4       4       4       4       4       4       4       4       4
       4       4       4       4       4       4       4       4       4       4
       4       4       4       4       4       4       4       4       4       4
       4       4       4       4       4       4       4       4       4       4
       4       4       4       4       4       4       4       4       4       4
       4       4       4       4       4       4       4       4       4       4
       4       4       4       4       4       4       4       4       4       4
       4       4       4       4       4       4       4       4       4       4
       4       4       4       4       4       4       4       4       4       4
       4       4       4       4       4       4       4       4       4       4
       4       4       4       4       4       4       4       4       4       4
       4       4       4       4       4       4       4       4       4       4
       4       4       4       4       4       4       4       4       4       4
       4       4       4       4       4       4       4       4       4       4
       4       4       4       4       4       4       4       4       4       4
       4       4       4       4       4       4       4       4       4       4
       4       4       4       4       4       4       4       4       4       4
       4       4       4       4       4       4       4       4       4       4
       4       4       4       4       4       4       4       4       4       4
       4       4       4       4       4       4       4       4       4       4
       4       4       4       4       4       4       4       4       4       4
       4       4       4       4       4       4       4       4       4       4
       4       4       4       4       4       4       4       4       4       4
       4       4       4       4       4       4       4       4       4       4
       4       4       4       4       4       4       4       4       4       4
       4       4       4       4       4       4       4       4       4       4
       4       4       4       4       4       4       4       4       4       4
       4       4       4       4       4       4       4       4       4       4
       4       4       4       4       4       4       4       4       4       4
       4       4       4       4       4       4       4       4       4       4
       4       4       4       4       4       4       4       4       4       4
       4       4       4       4       4       4       4       4       4       4
       4       4       4       4       4       4       4       4       4       4
       4       4       4       4       4       4       4       4       4       4
       4       4       4       4       4       4       4       4       4       4
       4       4       4       4       4       4       4       4       4       4
       4       4       4       4       4       4       4       4       4       4
       4       4       4       4       4       4       4       4       4       4
       4       4       4       4       4       4       4       4       4       4
       4       4       4       4       4       4       4       4       4       4
       4       4       4       4       4       4       4       4       4       4
       4       4       4       4       4       4       4       4       4       4
       4       4       4       4       4       4       4       4       4       4
       4       4       4       4       4       4       4       4       4       4
       4       4       4       4       4       4       4       4       4       4
       4       4       4       4       4       4       4       4       4       4
       4       4       4       4       4       4       4       4       4       4
       4       4       4       4       4       4       4       4       4       4
       4       4       4       4       4       4       4       4       4       4
       4       4       4       4       4       4       4       4       4       4
       4       4       4       4       4       4       4       4       4       4
       4       4       4       4       4       4       4       4       4       4
       4       4       4       4       4       4       4       4       4       4
       4       4       4       4       4       4       4       4       4       4
       4       4       4       4       4       4       4       4       4       4
       4       4       4       4       4       4       4       4       4       4
       4       4       4       4       4       4       4       4       4       4
       4       4       4       4       4       4       4       4       4       4
       4       4       4       4       4       4       4       4       4       4
       4       4       4       4       4       4       4       4       4       4
       4       4       4       4       4       4       4       4       4       4
       4       4       4       4       4       4       4       4       4       4
       4       4       4       4       4       4       4       4       4       4
       4       4       4       4       4       4       4       4       4       4
       4       4       4       4       4       4       4       4       4       4
       4       4       4       4       4       4       4       4       4       4
       4       4       4       4       4       4       4       4       4       4
       4       4       4       4       4       4       4       4       4       4
       4       4       4       4       4       4       4       4       4       4
       4       4       4       4       4       4       4       4       4       4
       4       4       4       4       4       4       4       4       4       4
       4       4       4       4       4       4       4       4       4       4
       4       4       4       4       4       4       4       4       4       4
       4       4       4       4       4       4       4       4       4       4
       4       4       4       4       4       4       4       4       4       4
       4       4       4       4       4       4       4       4       4       4
       4       4       4       4       4       4       4       4       4       4
       4       4       4       4       4       4       4       4       4       4
       4       4       4       4       4       4       4       4       4       4
       4       4       4       4       4       4       4       4       4       4
       4       4       4       4       4       4       4       4       4       4
       4       4       4       4       4       4       4       4       4       4
       4       4       4       4       4       4       4       4       4       4
       4       4       4       4       4       4       4       4       4       4
       4       4       4       4       4       4       4       4       4       4
       4       4       4       4       4       4       4       4       4       4
       4       4       4       4       4       4       4       4       4       4
       4       4       4       4       4       4       4       4       4       4
       4       4       4       4       4       4       4       4       4       4
       4       4       4       4       4       4       4       4       4       4
       4       4       4       4       4       4       4       4       4       4
       4       4       4       4       4       4       4       4       4       4
       4       4       4       4       4       4       4       4       4       4
       4       4       4       4       4       4       4       4       4       4
       4       4       4       4       4       4       4       4       4       4
       4       4       4       4       4       4       4       4       4       4
       4       4       4       4       4       4       4       4       4       4
       4       4       4       4       4       4       4       4       4       4
       4       4       4       4       4       4       4       4       4       4
       4       4       4       4       4       4       4       4       4       4
       4       4       4       4       4       4       4       4       4       4
       4       4       4       4       4       4       4       4       4       4
       4       4       4       4       4       4       4       4       4       4
       4       4       4       4       4       4       4       4       4       4
       4       4       4       4       4       4       4       4       4       4
       4       4       4       4       4       4       4       4       4       4
       4       4       4       4       4       4       4       4       4       4
       4       4       4       4       4       4       4       4       4       4
       4       4       4       4       4       4       4       4       4       4
       4       4       4       4       4       4       4       4       4       4
       4       4       4       4       4       4       4       4       4       4
       4       4       4       4       4       4       4       4       4       4
       4       4       4       4       4       4       4       4       4       4
       4       4       4       4       4       4       4       4       4       4
       4       4       4       4       4       4       4       4       4       4
       4       4       4       4       4       4       4       4       4       4
       4       4       4       4       4       4       4       4       4       4
       4       4       4       4       4       4       4       4       4       4
       4       4       4       4       4       4       4       4       4       4
       4       4       4       4       4       4       4       4       4       4
       4       4       4       4       4       4       4       4       4       4
       4       4       4       4       4       4       4       4       4       4
       4       4       4       4       4       4       4       4       4       4
       4       4       4       4       4       4       4       4       4       4
       4       4       4       4       4       4       4       4       4       4
       4       4       4       4       4       4       4       4       4       4
       4       4       4       4       4       4       4       4       4       4
       4       4       4       4       4       4       4       4       4       4
       4       4       4       4       4       4       4       4       4       4
       4       4       4       4       4       4       4       4       4       4
       4       4       4       4       4       4       4       4       4       4
       4       4       4       4       4       4       4       4       4       4
       4       4       4       4       4       4       4       4       4       4
       4       4       4       4       4       4       4       4       4       4
       4       4       4       4       4       4       4       4       4       4
       4       4       4       4       4       4       4       4       4       4
       4       4       4       4       4       4       4       4       4       4
       4       4       4       4       4       4       4       4       4       4
       4       4       4       4       4       4       4       4       4       4
       4       4       4       4       4       4       4       4       4       4
       4       4       4       4       4       4       4       4       4       4
       4       4       4       4       4       4       4       4       4       4
       4       4       4       4       4       4       4       4       4       4
       4       4       4       4       4       4       4       4       4       4
       4       4       4       4       4       4       4       4       4       4
       4       4       4       4       4       4       4       4       4       4
       4       4       4       4       4       4       4       4       4       4
       4       4       4       4       4       4       4       4       4       4
       4       4       4       4       4       4       4       4       4       4
       4       4       4       4       4       4       4       4       4       4
       4       4       4       4       4       4       4       4       4       4
       4       4       4       4       4       4       4       4       4       4
       4       4       4       4       4       4       4       4       4       4
       4       4       4       4       4       4       4       4       4       4
       4       4       4       4       4       4       4       4       4       4
       4       4       4       4       4       4       4       4       4       4
       4       4       4       4       4       4       4       4       4       4
       4       4       4       4       4       4       4       4       4       4
       4       4       4       4       4       4       4       4       4       4
       4       4       4       4       4       4       4       4       4       4
       4       4       4       4       4       4       4       4       4       4
       4       4       4       4       4       4       4       4       4       4
       4       4       4       4       4       4       4       4       4       4
       4       4       4       4       4       4       4       4       4       4
       4       4       4       4       4       4       4       4       4       4
       4       4       4       4       4       4       4       4       4       4
       4       4       4       4       4       4       4       4       4       4
       4       4       4       4       4       4       4       4       4       4
       4       4       4       4       4       4       4       4       4       4
       4       4       4       4       4       4       4       4       4       4
       4       4       4       4       4       4       4       4       4       4
       4       4       4       4       4       4       4       4       4       4
       4       4       4       4       4       4       4       4       4       4
       4       4       4       4       4       4       4       4       4       4
       4       4       4       4       4       4       4       4       4       4
       4       4       4       4       4       4       4       4       4       4
       4       4       4       4       4       4       4       4       4       4
       4       4       4       4       4       4       4       4       4       4
       4       4       4       4       4       4       4       4       4       4
       4       4       4       4       4       4       4       4       4       4
       4       4       4       4       4       4       4       4       4       4
       4       4       4       4       4       4       4       4       4       4
       4       4       4       4       4       4       4       4       4       4
       4       4       4       4       4       4       4       4       4       4
       4       4       4       4       4       4       4       4       4       4
       4       4       4       4       4       4       4       4       4       4
       4       4       4       4       4       4       4       4       4       4
       4       4       4       4       4       4       4       4       4       4
       4       4       4       4       4       4       4       4       4       4
       4       4       4       4       4       4       4       4       4       4
       4       4       4       4       4       4       4       4       4       4
       4       4       4       4       4       4       4       4       4       4
       4       4       4       4       4       4       4       4       4       4
       4       4       4       4       4       4       4       4       4       4
       4       4       4       4       4       4       4       4       4       4
       4       4       4       4       4       4       4       4       4       4
       4       4       4       4       4       4       4       4       4       4
       4       4       4       4       4       4       4       4       4       4
       4       4       4       4       4       4       4       4       4       4
       4       4       4       4       4       4       4       4       4       4
       4       4       4       4       4       4       4       4       4       4
       4       4       4       4       4       4       4       4       4       4
       4       4       4       4       4       4       4       4       4       4
       4       4       4       4       4       4       4       4       4       4
       4       4       4       4       4       4       4       4       4       4
       4       4       4       4       4       4       4       4       4       4
       4       4       4       4       4       4       4       4       4       4
       4       4       4       4       4       4       4       4       4       4
       4       4       4       4       4       4       4       4       4       4
       4       4       4       4       4       4       4       4       4       4
       4       4       4       4       4       4       4       4       4       4
       4       4       4       4       4       4       4       4       4       4
       4       4       4       4       4       4       4       4       4       4
       4       4       4       4       4       4       4       4       4       4
       4       4       4       4       4       4       4       4       4       4
       4       4       4       4       4       4       4       4       4       4
       4       4       4       4       4       4       4       4       4       4
       4       4       4       4       4       4       4       4       4       4
       4       4       4       4       4       4       4       4       4       4
       4       4       4       4       4       4       4       4       4       4
       4       4       4       4       4       4       4       4       4       4
       4       4       4       4       4       4       4       4       4       4
       4       4       4       4       4       4       4       4       4       4
       4       4       4       4       4       4       4       4       4       4
       4       4       4       4       4       4       4       4       4       4
       4       4       4       4       4       4       4       4       4       4
       4       4       4       4       4       4       4       4       4       4
       4       4       4       4       4       4       4       4       4       4
       4       4       4       4       4       4       4       4       4       4
       4       4       4       4       4       4       4       4       4       4
       4       4       4       4       4       4       4       4       4       4
       4       4       4       4       4       4       4       4       4       4
       4       4       4       4       4       4       4       4       4       4
       4       4       4       4       4       4       4       4       4       4
       4       4       4       4       4       4       4       4       4       4
       4       4       4       4       4       4       4       4       4       4
       4       4       4       4       4       4       4       4       4       4
       4       4       4       4       4       4       4       4       4       4
       4       4       4       4       4       4       4       4       4       4
       4       4       4       4       4       4       4       4       4       4
       4       4       4       4       4       4       4       4       4       4
       4       4       4       4       4       4       4       4       4       4
       4       4       4       4       4       4       4       4       4       4
       4       4       4       4       4       4       4       4       4       4
       4       4       4       4       4       4       4       4       4       4
       4       4       4       4       4       4       4       4       4       4
       4       4       4       4       4       4       4       4       4       4
       4       4       4       4       4       4       4       4       4       4
       4       4       4       4       4       4       4       4       4       4
       4       4       4       4       4       4       4       4       4       4
       4       4       4       4       4       4       4       4       4       4
       4       4       4       4       4       4       4       4       4       4
       4       4       4       4       4       4       4       4       4       4
       4       4       4       4       4       4       4       4       4       4
       4       4       4       4       4       4       4       4       4       4
       4       4       4       4       4       4       4       4       4       4
       4       4       4       4       4       4       4       4       4       4
       4       4       4       4       4       4       4       4       4       4
       4       4       4       4       4       4       4       4       4       4
       4       4       4       4       4       4       4       4       4       4
       4       4       4       4       4       4       4       4       4       4
       4       4       4       4       4       4       4       4       4       4
       4       4       4       4       4       4       4       4       4       4
       4       4       4       4       4       4       4       4       4       4
       4       4       4       4       4       4       4       4       4       4
       4       4       4       4       4       4       4       4       4       4
       4       4       4       4       4       4       4       4       4       4
       4       4       4       4       4       4       4       4       4       4
       4       4       4       4       4       4       4       4       4       4
       4       4       4       4       4       4       4       4       4       4
       4       4       4       4       4       4       4       4       4       4
       4       4       4       4       4       4       4       4       4       4
       4       4       4       4       4       4       4       4       4       4
       4       4       4       4       4       4       4       4       4       4
       4       4       4       4       4       4       4       4       4       4
       4       4       4       4       4       4       4       4       4       4
       4       4       4       4       4       4       4       4       4       4
       4       4       4       4       4       4       4       4       4       4
       4       4       4       4       4       4       4       4       4       4
       4       4       4       4       4       4       4       4       4       4
       4       4       4       4       4       4       4       4       4       4
       4       4       4       4       4       4       4       4       4       4
       4       4       4       4       4       4       4       4       4       4
       4       4       4       4       4       4       4       4       4       4
       4       4       4       4       4       4       4       4       4       4
       4       4       4       4       4       4       4       4       4       4
       4       4       4       4       4       4       4       4       4       4
       4       4       4       4       4       4       4       4       4       4
       4       4       4       4       4       4       4       4       4       4
       4       4       4       4       4       4       4       4       4       4
       4       4       4       4       4       4       4       4       4       4
       4       4       4       4       4       4       4       4       4       4
       4       4       4       4       4       4       4       4       4       4
       4       4       4       4       4       4       4       4       4       4
       4       4       4       4       4       4       4       4       4       4
       4       4       4       4       4       4       4       4       4       4
       4       4       4       4       4       4       4       4       4       4
       4       4       4       4       4       4       4       4       4       4
       4       4       4       4       4       4       4       4       4       4
       4       4       4       4       4       4       4       4       4       4
       4       4       4       4       4       4       4       4       4       4
       4       4       4       4       4       4       4       4       4       4
       4       4       4       4       4       4       4       4       4       4
       4       4       4       4       4       4       4       4       4       4
       4       4       4       4       4       4       4       4       4       4
       4       4       4       4       4       4       4       4       4       4
       4       4       4       4       4       4       4       4       4       4
       4       4       4       4       4       4       4       4       4       4
       4       4       4       4       4       4       4       4       4       4
       4       4       4       4       4       4       4       4       4       4
       4       4       4       4       4       4       4       4       4       4
       4       4       4       4       4       4       4       4       4       4
       4       4       4       4       4       4       4       4       4       4
       4       4       4       4       4       4       4       4       4       4
       4       4       4       4       4       4       4       4       4       4
       4       4       4       4       4       4       4       4       4       4
       4       4       4       4       4       4       4       4       4       4
       4       4       4       4       4       4       4       4       4       4
       4       4       4       4       4       4       4       4       4       4
       4       4       4       4       4       4       4       4       4       4
       4       4       4       4       4       4       4       4       4       4
       4       4       4       4       4       4       4       4       4       4
       4       4       4       4       4       4       4       4       4       4
       4       4       4       4       4       4       4       4       4       4
       4       4       4       4       4       4       4       4       4       4
       4       4       4       4       4       4       4       4       4       4
       4       4       4       4       4       4       4       4       4       4
       4       4       4       4       4       4       4       4       4       4
       4       4       4       4       4       4       4       4       4       4
       4       4       4       4       4       4       4       4       4       4
       4       4       4       4       4       4       4       4       4       4
       4       4       4       4       4       4       4       4       4       4
       4       4       4       4       4       4       4       4       4       4
       4       4       4       4       4       4       4       4       4       4
       4       4       4       4       4       4       4       4       4       4
       4       4       4       4       4       4       4       4       4       4
       4       4       4       4       4       4       4       4       4       4
       4       4       4       4       4       4       4       4       4       4
       4       4       4       4       4       4       4       4       4       4
       4       4       4       4       4       4       4       4       4       4
       4       4       4       4       4       4       4       4       4       4
       4       4       4       4       4       4       4       4       4       4
       4       4       4       4       4       4       4       4       4       4
       4       4       4       4       4       4       4       4       4       4
       4       4       4       4       4       4       4       4       4       4
       4       4       4       4       4       4       4       4       4       4
       4       4       4       4       4       4       4       4       4       4
       4       4       4       4       4       4       4       4       4       4
       4       4       4       4       4       4       4       4       4       4
       4       4       4       4       4       4       4       4       4       4
       4       4       4       4       4       4       4       4       4       4
       4       4       4       4       4       4       4       4       4       4
       4       4       4       4       4       4       4       4       4       4
       4       4       4       4       4       4       4       4       4       4
       4       4       4       4       4       4       4       4       4       4
       4       4       4       4       4       4       4       4       4       4
       4       4       4       4       4       4       4       4       4       4
       4       4       4       4       4       4       4       4       4       4
       4       4       4       4       4       4       4       4       4       4
       4       4       4       4       4       4       4       4       4       4
       4       4       4       4       4       4       4       4       4       4
       4       4       4       4       4       4       4       4       4       4
       4       4       4       4       4       4       4       4       4       4
       4       4       4       4       4       4       4       4       4       4
       4       4       4       4       4       4       4       4       4       4
       4       4       4       4       4       4       4       4       4       4
       4       4       4       4       4       4       4       4       4       4
       4       4       4       4       4       4       4       4       4       4
       4       4       4       4       4       4       4       4       4       4
       4       4       4       4       4       4       4       4       4       4
       4       4       4       4       4       4       4       4       4       4
       4       4       4       4       4       4       4       4       4       4
       4       4       4       4       4       4       4       4       4       4
       4       4       4       4       4       4       4       4       4       4
       4       4       4       4       4       4       4       4       4       4
       4       4       4       4       4       4       4       4       4       4
       4       4       4       4       4       4       4       4       4       4
       4       4       4       4       4       4       4       4       4       4
       4       4       4       4       4       4       4       4       4       4
       4       4       4       4       4       4       4       4       4       4
       4       4       4       4       4       4       4       4       4       4
       4       4       4       4       4       4       4       4       4       4
       4       4       4       4       4       4       4       4       4       4
       4       4       4       4       4       4       4       4       4       4
       4       4       4       4       4       4       4       4       4       4
       4       4       4       4       4       4       4       4       4       4
       4       4       4       4       4       4       4       4       4       4
       4       4       4       4       4       4       4       4       4       4
       4       4       4       4       4       4       4       4       4       4
       4       4       4       4       4       4       4       4       4       4
       4       4       4       4       4       4       4       4       4       4
       4       4       4       4       4       4       4       4       4       4
       4       4       4       4       4       4       4       4       4       4
       4       4       4       4       4       4       4       4       4       4
       4       4       4       4       4       4       4       4       4       4
       4       4       4       4       4       4       4       4       4       4
       4       4       4       4       4       4       4       4       4       4
       4       4       4       4       4       4       4       4       4       4
       4       4       4       4       4       4       4       4       4       4
       4       4       4       4       4       4       4       4       4       4
       4       4       4       4       4       4       4       4       4       4
       4       4       4       4       4       4       4       4       4       4
       4       4       4       4       4       4       4       4       4       4
       4       4       4       4       4       4       4       4       4       4
       4       4       4       4       4       4       4       4       4       4
       4       4       4       4       4       4       4       4       4       4
       4       4       4       4       4       4       4       4       4       4
       4       4       4       4       4       4       4       4       4       4
       4       4       4       4       4       4       4       4       4       4
       4       4       4       4       4       4       4       4       4       4
       4       4       4       4       4       4       4       4       4       4
       4       4       4       4       4       4       4       4       4       4
       4       4       4       4       4       4       4       4       4       4
       4       4       4       4       4       4       4       4       4       4
       4       4       4       4       4       4       4       4       4       4
       4       4       4       4       4       4       4       4       4       4
       4       4       4       4       4       4       4       4       4       4
       4       4       4       4       4       4       4       4       4       4
       4       4       4       4       4       4       4       4       4       4
       4       4       4       4       4       4       4       4       4       4
       4       4       4       4       4       4       4       4       4       4
       4       4       4       4       4       4       4       4       4       4
       4       4       4       4       4       4       4       4       4       4
       4       4       4       4       4       4       4       4       4       4
       4       4       4       4       4       4       4       4       4       4
       4       4       4       4       4       4       4       4       4       4
       4       4       4       4       4       4       4       4       4       4
       4       4       4       4       4       4       4       4       4       4
       4       4       4       4       4       4       4       4       4       4
       4       4       4       4       4       4       4       4       4       4
       4       4       4       4       4       4       4       4       4       4
       4       4       4       4       4       4       4       4       4       4
       4       4       4       4       4       4       4       4       4       4
       4       4       4       4       4       4       4       4       4       4
       4       4       4       4       4       4       4       4       4       4
       4       4       4       4       4       4       4       4       4       4
       4       4       4       4       4       4       4       4       4       4
       4       4       4       4       4       4       4       4       4       4
       4       4       4       4       4       4       4       4       4       4
       4       4       4       4       4       4       4       4       4       4
       4       4       4       4       4       4       4       4       4       4
       4       4       4       4       4       4       4       4       4       4
       4       4       4       4       4       4       4       4       4       4
       4       4       4       4       4       4       4       4       4       4
       4       4       4       4       4       4       4       4       4       4
       4       4       4       4       4       4       4       4       4       4
       4       4       4       4       4       4       4       4       4       4
       4       4       4       4       4       4       4       4       4       4
       4       4       4       4       4       4       4       4       4       4
       4       4       4       4       4       4       4       4       4       4
       4       4       4       4       4       4       4       4       4       4
       4       4       4       4       4       4       4       4       4       4
       4       4       4       4       4       4       4       4       4       4
       4       4       4       4       4       4       4       4       4       4
       4       4       4       4       4       4       4       4       4       4
       4       4       4       4       4       4       4       4       4       4
       4       4       4       4       4       4       4       4       4       4
       4       4       4       4       4       4       4       4       4       4
       4       4       4       4       4       4       4       4       4       4
       4       4       4       4       4       4       4       4       4       4
       4       4       4       4       4       4       4       4       4       4
       4       4       4       4       4       4       4       4       4       4
       4       4       4       4       4       4       4       4       4       4
       4       4       4       4       4       4       4       4       4       4
       4       4       4       4       4       4       4       4       4       4
       4       4       4       4       4       4       4       4       4       4
       4       4       4       4       4       4       4       4       4       4
       4       4       4       4       4       4       4       4       4       4
       4       4       4       4       4       4       4       4       4       4
       4       4       4       4       4       4       4       4       4       4
       4       4       4       4       4       4       4       4       4       4
       4       4       4       4       4       4       4       4       4       4
       4       4       4       4       4       4       4       4       4       4
       4       4       4       4       4       4       4       4       4       4
       4       4       4       4       4       4       4       4       4       4
       4       4       4       4       4       4       4       4       4       4
       4       4       4       4       4       4       4       4       4       4
       4       4       4       4       4       4       4       4       4       4
       4       4       4       4       4       4       4       4       4       4
       4       4       4       4       4       4       4       4       4       4
       4       4       4       4       4       4       4       4       4       4
       4       4       4       4       4       4       4       4       4       4
       4       4       4       4       4       4       4       4       4       4
       4       4       4       4       4       4       4       4       4       4
       4       4       4       4       4       4       4       4       4       4
       4       4       4       4       4       4       4       4       4       4
       4       4       4       4       4       4       4       4       4       4
       4       4       4       4       4       4       4       4       4       4
       4       4       4       4       4       4       4       4       4       4
       4       4       4       4       4       4       4       4       4       4
       4       4       4       4       4       4       4       4       4       4
       4       4       4       4       4       4       4       4       4       4
       4       4       4       4       4       4       4       4       4       4
       4       4       4       4       4       4       4       4       4       4
       4       4       4       4       4       4       4       4       4       4
       4       4       4       4       4       4       4       4       4       4
       4       4       4       4       4       4       4       4       4       4
       4       4       4       4       4       4       4       4       4       4
       4       4       4       4       4       4       4       4       4       4
       4       4       4       4       4       4       4       4       4       4
       4       4       4       4       4       4       4       4       4       4
       4       4       4       4       4       4       4       4       4       4
       4       4       4       4       4       4       4       4       4       4
       4       4       4       4       4       4       4       4       4       4
       4       4       4       4       4       4       4       4       4       4
       4       4       4       4       4       4       4       4       4       4
       4       4       4       4       4       4       4       4       4       4
       4       4       4       4       4       4       4       4       4       4
       4       4       4       4       4       4       4       4       4       4
       4       4       4       4       4       4       4       4       4       4
       4       4       4       4       4       4       4       4       4       4
       4       4       4       4       4       4       4       4       4       4
       4       4       4       4       4       4       4       4       4       4
       4       4       4       4       4       4       4       4       4       4
       4       4       4       4       4       4       4       4       4       4
       4       4       4       4       4       4       4       4       4       4
       4       4       4       4       4       4       4       4       4       4
       4       4       4       4       4       4       4       4       4       4
       4       4       4       4       4       4       4       4       4       4
       4       4       4       4       4       4       4       4       4       4
       4       4       4       4       4       4       4       4       4       4
       4       4       4       4
%FLAG BOX_DIMENSIONS                                                            
%FORMAT(5E16.8)                                                                 
  9.00000000E+01  6.76688665E+01  7.22656585E+01  9.05452985E+01
%FLAG RADIUS_SET                                                                
%FORMAT(1a80)                                                                   
modified Bondi radii (mbondi)                                                   
%FLAG RADII                                                                     
%FORMAT(5E16.8)                                                                 
  1.30000000E+00  1.70000000E+00  1.30000000E+00  1.30000000E+00  1.70000000E+00
  1.50000000E+00  1.55000000E+00  1.30000000E+00  1.70000000E+00  1.30000000E+00
  1.70000000E+00  1.30000000E+00  1.30000000E+00  1.70000000E+00  1.70000000E+00
  1.30000000E+00  1.55000000E+00  1.30000000E+00  1.70000000E+00  1.70000000E+00
  1.30000000E+00  1.70000000E+00  1.30000000E+00  1.70000000E+00  1.30000000E+00
  1.70000000E+00  1.30000000E+00  1.70000000E+00  1.70000000E+00  1.50000000E+00
  1.55000000E+00  1.30000000E+00  1.70000000E+00  1.30000000E+00  1.70000000E+00
  1.30000000E+00  1.70000000E+00  1.30000000E+00  1.30000000E+00  1.30000000E+00
  1.70000000E+00  1.30000000E+00  1.30000000E+00  1.30000000E+00  1.70000000E+00
  1.50000000E+00  1.55000000E+00  1.30000000E+00  1.70000000E+00  1.30000000E+00
  1.70000000E+00  1.30000000E+00  1.70000000E+00  1.30000000E+00  1.30000000E+00
  1.30000000E+00  1.50000000E+00  8.00000000E-01  1.70000000E+00  1.50000000E+00
  1.55000000E+00  1.30000000E+00  1.70000000E+00  1.30000000E+00  1.70000000E+00
  1.30000000E+00  1.30000000E+00  1.70000000E+00  1.55000000E+00  1.30000000E+00
  1.70000000E+00  1.30000000E+00  1.55000000E+00  1.70000000E+00  1.30000000E+00
  1.70000000E+00  1.50000000E+00  1.55000000E+00  1.30000000E+00  1.70000000E+00
  1.30000000E+00  1.70000000E+00  1.30000000E+00  1.30000000E+00  1.70000000E+00
  1.30000000E+00  1.30000000E+00  1.70000000E+00  1.30000000E+00  1.30000000E+00
  1.55000000E+00  1.30000000E+00  1.70000000E+00  1.55000000E+00  1.30000000E+00
  1.30000000E+00  1.55000000E+00  1.30000000E+00  1.30000000E+00  1.70000000E+00
  1.50000000E+00  1.70000000E+00  1.50000000E+00  1.70000000E+00  1.50000000E+00
  1.50000000E+00  1.50000000E+00  1.50000000E+00  1.70000000E+00  1.70000000E+00
  1.50000000E+00  1.55000000E+00  1.30000000E+00  1.30000000E+00  1.30000000E+00
  1.30000000E+00  1.30000000E+00  1.30000000E+00  1.30000000E+00  1.30000000E+00
  1.30000000E+00  1.30000000E+00  1.30000000E+00  1.30000000E+00  1.30000000E+00
  1.30000000E+00  1.55000000E+00  1.30000000E+00  1.70000000E+00  1.30000000E+00
  1.70000000E+00  1.30000000E+00  1.30000000E+00  1.30000000E+00  1.70000000E+00
  1.50000000E+00  1.55000000E+00  1.30000000E+00  1.70000000E+00  1.30000000E+00
  1.30000000E+00  1.70000000E+00  1.50000000E+00  1.55000000E+00  1.30000000E+00
  1.70000000E+00  1.30000000E+00  1.70000000E+00  1.30000000E+00  1.30000000E+00
  1.70000000E+00  1.30000000E+00  1.70000000E+00  1.30000000E+00  1.30000000E+00
  1.30000000E+00  1.70000000E+00  1.30000000E+00  1.30000000E+00  1.30000000E+00
  1.70000000E+00  1.50000000E+00  1.70000000E+00  1.50000000E+00  1.70000000E+00
  1.50000000E+00  1.50000000E+00  1.50000000E+00  1.55000000E+00  1.30000000E+00
  1.30000000E+00  1.30000000E+00  1.30000000E+00  1.30000000E+00  1.30000000E+00
  1.30000000E+00  1.30000000E+00  1.55000000E+00  1.30000000E+00  1.70000000E+00
  1.30000000E+00  1.70000000E+00  1.30000000E+00  1.30000000E+00  1.50000000E+00
  8.00000000E-01  1.70000000E+00  1.50000000E+00  1.55000000E+00  1.30000000E+00
  1.70000000E+00  1.30000000E+00  1.70000000E+00  1.30000000E+00  1.30000000E+00
  1.70000000E+00  1.30000000E+00  1.30000000E+00  1.70000000E+00  1.30000000E+00
  1.30000000E+00  1.55000000E+00  1.30000000E+00  1.70000000E+00  1.55000000E+00
  1.30000000E+00  1.30000000E+00  1.55000000E+00  1.30000000E+00  1.30000000E+00
  1.70000000E+00  1.50000000E+00  1.55000000E+00  1.30000000E+00  1.70000000E+00
  1.30000000E+00  1.70000000E+00  1.30000000E+00  1.30000000E+00  1.50000000E+00
  8.00000000E-01  1.70000000E+00  1.50000000E+00  1.55000000E+00  1.30000000E+00
  1.70000000E+00  1.30000000E+00  1.30000000E+00  1.70000000E+00  1.50000000E+00
  1.55000000E+00  1.30000000E+00  1.70000000E+00  1.30000000E+00  1.30000000E+00
  1.70000000E+00  1.50000000E+00  1.55000000E+00  1.30000000E+00  1.70000000E+00
  1.30000000E+00  1.70000000E+00  1.30000000E+00  1.70000000E+00  1.30000000E+00
  1.30000000E+00  1.30000000E+00  1.70000000E+00  1.30000000E+00  1.30000000E+00
  1.30000000E+00  1.70000000E+00  1.50000000E+00  1.55000000E+00  1.30000000E+00
  1.70000000E+00  1.30000000E+00  1.70000000E+00  1.30000000E+00  1.70000000E+00
  1.30000000E+00  1.30000000E+00  1.30000000E+00  1.70000000E+00  1.30000000E+00
  1.30000000E+00  1.30000000E+00  1.70000000E+00  1.50000000E+00  1.55000000E+00
  1.30000000E+00  1.70000000E+00  1.30000000E+00  1.70000000E+00  1.30000000E+00
  1.30000000E+00  1.70000000E+00  1.30000000E+00  1.30000000E+00  1.70000000E+00
  1.30000000E+00  1.30000000E+00  1.70000000E+00  1.30000000E+00  1.30000000E+00
  1.55000000E+00  1.30000000E+00  1.30000000E+00  1.30000000E+00  1.70000000E+00
  1.50000000E+00  1.55000000E+00  1.30000000E+00  1.70000000E+00  1.30000000E+00
  1.70000000E+00  1.30000000E+00  1.30000000E+00  1.70000000E+00  1.50000000E+00
  1.55000000E+00  1.30000000E+00  1.30000000E+00  1.70000000E+00  1.50000000E+00
  1.55000000E+00  1.30000000E+00  1.70000000E+00  1.30000000E+00  1.70000000E+00
  1.30000000E+00  1.30000000E+00  1.70000000E+00  1.50000000E+00  1.55000000E+00
  1.30000000E+00  1.30000000E+00  1.70000000E+00  1.50000000E+00  1.55000000E+00
  1.30000000E+00  1.70000000E+00  1.30000000E+00  1.70000000E+00  1.30000000E+00
  1.30000000E+00  1.70000000E+00  1.70000000E+00  1.30000000E+00  1.70000000E+00
  1.30000000E+00  1.70000000E+00  1.30000000E+00  1.70000000E+00  1.30000000E+00
  1.70000000E+00  1.30000000E+00  1.70000000E+00  1.50000000E+00  1.55000000E+00
  1.30000000E+00  1.70000000E+00  1.30000000E+00  1.70000000E+00  1.30000000E+00
  1.70000000E+00  1.30000000E+00  1.30000000E+00  1.30000000E+00  1.70000000E+00
  1.30000000E+00  1.30000000E+00  1.30000000E+00  1.70000000E+00  1.50000000E+00
  1.55000000E+00  1.70000000E+00  1.30000000E+00  1.30000000E+00  1.70000000E+00
  1.30000000E+00  1.30000000E+00  1.70000000E+00  1.30000000E+00  1.30000000E+00
  1.70000000E+00  1.30000000E+00  1.70000000E+00  1.50000000E+00  1.55000000E+00
  1.30000000E+00  1.70000000E+00  1.30000000E+00  1.70000000E+00  1.30000000E+00
  1.70000000E+00  1.30000000E+00  1.30000000E+00  1.30000000E+00  1.50000000E+00
  8.00000000E-01  1.70000000E+00  1.50000000E+00  1.55000000E+00  1.30000000E+00
  1.70000000E+00  1.30000000E+00  1.70000000E+00  1.30000000E+00  1.30000000E+00
  1.70000000E+00  1.50000000E+00  1.50000000E+00  1.70000000E+00  1.50000000E+00
  1.55000000E+00  1.30000000E+00  1.70000000E+00  1.30000000E+00  1.70000000E+00
  1.30000000E+00  1.70000000E+00  1.30000000E+00  1.30000000E+00  1.30000000E+00
  1.70000000E+00  1.30000000E+00  1.30000000E+00  1.30000000E+00  1.70000000E+00
  1.50000000E+00  1.55000000E+00  1.30000000E+00  1.70000000E+00  1.30000000E+00
  1.30000000E+00  1.70000000E+00  1.50000000E+00  1.55000000E+00  1.70000000E+00
  1.30000000E+00  1.30000000E+00  1.70000000E+00  1.30000000E+00  1.30000000E+00
  1.70000000E+00  1.30000000E+00  1.30000000E+00  1.70000000E+00  1.30000000E+00
  1.70000000E+00  1.50000000E+00  1.55000000E+00  1.30000000E+00  1.70000000E+00
  1.30000000E+00  1.70000000E+00  1.30000000E+00  1.30000000E+00  1.70000000E+00
  1.70000000E+00  1.30000000E+00  1.70000000E+00  1.30000000E+00  1.70000000E+00
  1.30000000E+00  1.70000000E+00  1.30000000E+00  1.70000000E+00  1.30000000E+00
  1.70000000E+00  1.50000000E+00  1.55000000E+00  1.30000000E+00  1.70000000E+00
  1.30000000E+00  1.70000000E+00  1.30000000E+00  1.30000000E+00  1.30000000E+00
  1.70000000E+00  1.50000000E+00  1.55000000E+00  1.30000000E+00  1.70000000E+00
  1.30000000E+00  1.70000000E+00  1.30000000E+00  1.30000000E+00  1.70000000E+00
  1.70000000E+00  1.30000000E+00  1.70000000E+00  1.30000000E+00  1.70000000E+00
  1.30000000E+00  1.70000000E+00  1.30000000E+00  1.70000000E+00  1.30000000E+00
  1.70000000E+00  1.50000000E+00  1.55000000E+00  1.30000000E+00  1.30000000E+00
  1.50000000E+00  1.50000000E+00  1.50000000E+00  1.50000000E+00  1.50000000E+00
  1.50000000E+00  1.50000000E+00  1.50000000E+00  1.50000000E+00  1.50000000E+00
  1.50000000E+00  1.50000000E+00  1.50000000E+00  1.50000000E+00  1.50000000E+00
  1.50000000E+00  1.50000000E+00  1.50000000E+00  1.50000000E+00  1.50000000E+00
  1.70000000E+00  1.70000000E+00  1.70000000E+00  1.70000000E+00  1.70000000E+00
  1.70000000E+00  1.70000000E+00  1.70000000E+00  1.70000000E+00  1.70000000E+00
  1.70000000E+00  1.70000000E+00  1.70000000E+00  1.70000000E+00  1.70000000E+00
  1.70000000E+00  1.70000000E+00  1.70000000E+00  1.70000000E+00  1.70000000E+00
  1.70000000E+00  1.70000000E+00  1.50000000E+00  8.00000000E-01  8.00000000E-01
  1.50000000E+00  1.50000000E+00  8.00000000E-01  8.00000000E-01  1.50000000E+00
  1.50000000E+00  8.00000000E-01  8.00000000E-01  1.50000000E+00  1.50000000E+00
  8.00000000E-01  8.00000000E-01  1.50000000E+00  1.50000000E+00  8.00000000E-01
  8.00000000E-01  1.50000000E+00  1.50000000E+00  8.00000000E-01  8.00000000E-01
  1.50000000E+00  1.50000000E+00  8.00000000E-01  8.00000000E-01  1.50000000E+00
  1.50000000E+00  8.00000000E-01  8.00000000E-01  1.50000000E+00  1.50000000E+00
  8.00000000E-01  8.00000000E-01  1.50000000E+00  1.50000000E+00  8.00000000E-01
  8.00000000E-01  1.50000000E+00  1.50000000E+00  8.00000000E-01  8.00000000E-01
  1.50000000E+00  1.50000000E+00  8.00000000E-01  8.00000000E-01  1.50000000E+00
  1.50000000E+00  8.00000000E-01  8.00000000E-01  1.50000000E+00  1.50000000E+00
  8.00000000E-01  8.00000000E-01  1.50000000E+00  1.50000000E+00  8.00000000E-01
  8.00000000E-01  1.50000000E+00  1.50000000E+00  8.00000000E-01  8.00000000E-01
  1.50000000E+00  1.50000000E+00  8.00000000E-01  8.00000000E-01  1.50000000E+00
  1.50000000E+00  8.00000000E-01  8.00000000E-01  1.50000000E+00  1.50000000E+00
  8.00000000E-01  8.00000000E-01  1.50000000E+00  1.50000000E+00  8.00000000E-01
  8.00000000E-01  1.50000000E+00  1.50000000E+00  8.00000000E-01  8.00000000E-01
  1.50000000E+00  1.50000000E+00  8.00000000E-01  8.00000000E-01  1.50000000E+00
  1.50000000E+00  8.00000000E-01  8.00000000E-01  1.50000000E+00  1.50000000E+00
  8.00000000E-01  8.00000000E-01  1.50000000E+00  1.50000000E+00  8.00000000E-01
  8.00000000E-01  1.50000000E+00  1.50000000E+00  8.00000000E-01  8.00000000E-01
  1.50000000E+00  1.50000000E+00  8.00000000E-01  8.00000000E-01  1.50000000E+00
  1.50000000E+00  8.00000000E-01  8.00000000E-01  1.50000000E+00  1.50000000E+00
  8.00000000E-01  8.00000000E-01  1.50000000E+00  1.50000000E+00  8.00000000E-01
  8.00000000E-01  1.50000000E+00  1.50000000E+00  8.00000000E-01  8.00000000E-01
  1.50000000E+00  1.50000000E+00  8.00000000E-01  8.00000000E-01  1.50000000E+00
  1.50000000E+00  8.00000000E-01  8.00000000E-01  1.50000000E+00  1.50000000E+00
  8.00000000E-01  8.00000000E-01  1.50000000E+00  1.50000000E+00  8.00000000E-01
  8.00000000E-01  1.50000000E+00  1.50000000E+00  8.00000000E-01  8.00000000E-01
  1.50000000E+00  1.50000000E+00  8.00000000E-01  8.00000000E-01  1.50000000E+00
  1.50000000E+00  8.00000000E-01  8.00000000E-01  1.50000000E+00  1.50000000E+00
  8.00000000E-01  8.00000000E-01  1.50000000E+00  1.50000000E+00  8.00000000E-01
  8.00000000E-01  1.50000000E+00  1.50000000E+00  8.00000000E-01  8.00000000E-01
  1.50000000E+00  1.50000000E+00  8.00000000E-01  8.00000000E-01  1.50000000E+00
  1.50000000E+00  8.00000000E-01  8.00000000E-01  1.50000000E+00  1.50000000E+00
  8.00000000E-01  8.00000000E-01  1.50000000E+00  1.50000000E+00  8.00000000E-01
  8.00000000E-01  1.50000000E+00  1.50000000E+00  8.00000000E-01  8.00000000E-01
  1.50000000E+00  1.50000000E+00  8.00000000E-01  8.00000000E-01  1.50000000E+00
  1.50000000E+00  8.00000000E-01  8.00000000E-01  1.50000000E+00  1.50000000E+00
  8.00000000E-01  8.00000000E-01  1.50000000E+00  1.50000000E+00  8.00000000E-01
  8.00000000E-01  1.50000000E+00  1.50000000E+00  8.00000000E-01  8.00000000E-01
  1.50000000E+00  1.50000000E+00  8.00000000E-01  8.00000000E-01  1.50000000E+00
  1.50000000E+00  8.00000000E-01  8.00000000E-01  1.50000000E+00  1.50000000E+00
  8.00000000E-01  8.00000000E-01  1.50000000E+00  1.50000000E+00  8.00000000E-01
  8.00000000E-01  1.50000000E+00  1.50000000E+00  8.00000000E-01  8.00000000E-01
  1.50000000E+00  1.50000000E+00  8.00000000E-01  8.00000000E-01  1.50000000E+00
  1.50000000E+00  8.00000000E-01  8.00000000E-01  1.50000000E+00  1.50000000E+00
  8.00000000E-01  8.00000000E-01  1.50000000E+00  1.50000000E+00  8.00000000E-01
  8.00000000E-01  1.50000000E+00  1.50000000E+00  8.00000000E-01  8.00000000E-01
  1.50000000E+00  1.50000000E+00  8.00000000E-01  8.00000000E-01  1.50000000E+00
  1.50000000E+00  8.00000000E-01  8.00000000E-01  1.50000000E+00  1.50000000E+00
  8.00000000E-01  8.00000000E-01  1.50000000E+00  1.50000000E+00  8.00000000E-01
  8.00000000E-01  1.50000000E+00  1.50000000E+00  8.00000000E-01  8.00000000E-01
  1.50000000E+00  1.50000000E+00  8.00000000E-01  8.00000000E-01  1.50000000E+00
  1.50000000E+00  8.00000000E-01  8.00000000E-01  1.50000000E+00  1.50000000E+00
  8.00000000E-01  8.00000000E-01  1.50000000E+00  1.50000000E+00  8.00000000E-01
  8.00000000E-01  1.50000000E+00  1.50000000E+00  8.00000000E-01  8.00000000E-01
  1.50000000E+00  1.50000000E+00  8.00000000E-01  8.00000000E-01  1.50000000E+00
  1.50000000E+00  8.00000000E-01  8.00000000E-01  1.50000000E+00  1.50000000E+00
  8.00000000E-01  8.00000000E-01  1.50000000E+00  1.50000000E+00  8.00000000E-01
  8.00000000E-01  1.50000000E+00  1.50000000E+00  8.00000000E-01  8.00000000E-01
  1.50000000E+00  1.50000000E+00  8.00000000E-01  8.00000000E-01  1.50000000E+00
  1.50000000E+00  8.00000000E-01  8.00000000E-01  1.50000000E+00  1.50000000E+00
  8.00000000E-01  8.00000000E-01  1.50000000E+00  1.50000000E+00  8.00000000E-01
  8.00000000E-01  1.50000000E+00  1.50000000E+00  8.00000000E-01  8.00000000E-01
  1.50000000E+00  1.50000000E+00  8.00000000E-01  8.00000000E-01  1.50000000E+00
  1.50000000E+00  8.00000000E-01  8.00000000E-01  1.50000000E+00  1.50000000E+00
  8.00000000E-01  8.00000000E-01  1.50000000E+00  1.50000000E+00  8.00000000E-01
  8.00000000E-01  1.50000000E+00  1.50000000E+00  8.00000000E-01  8.00000000E-01
  1.50000000E+00  1.50000000E+00  8.00000000E-01  8.00000000E-01  1.50000000E+00
  1.50000000E+00  8.00000000E-01  8.00000000E-01  1.50000000E+00  1.50000000E+00
  8.00000000E-01  8.00000000E-01  1.50000000E+00  1.50000000E+00  8.00000000E-01
  8.00000000E-01  1.50000000E+00  1.50000000E+00  8.00000000E-01  8.00000000E-01
  1.50000000E+00  1.50000000E+00  8.00000000E-01  8.00000000E-01  1.50000000E+00
  1.50000000E+00  8.00000000E-01  8.00000000E-01  1.50000000E+00  1.50000000E+00
  8.00000000E-01  8.00000000E-01  1.50000000E+00  1.50000000E+00  8.00000000E-01
  8.00000000E-01  1.50000000E+00  1.50000000E+00  8.00000000E-01  8.00000000E-01
  1.50000000E+00  1.50000000E+00  8.00000000E-01  8.00000000E-01  1.50000000E+00
  1.50000000E+00  8.00000000E-01  8.00000000E-01  1.50000000E+00  1.50000000E+00
  8.00000000E-01  8.00000000E-01  1.50000000E+00  1.50000000E+00  8.00000000E-01
  8.00000000E-01  1.50000000E+00  1.50000000E+00  8.00000000E-01  8.00000000E-01
  1.50000000E+00  1.50000000E+00  8.00000000E-01  8.00000000E-01  1.50000000E+00
  1.50000000E+00  8.00000000E-01  8.00000000E-01  1.50000000E+00  1.50000000E+00
  8.00000000E-01  8.00000000E-01  1.50000000E+00  1.50000000E+00  8.00000000E-01
  8.00000000E-01  1.50000000E+00  1.50000000E+00  8.00000000E-01  8.00000000E-01
  1.50000000E+00  1.50000000E+00  8.00000000E-01  8.00000000E-01  1.50000000E+00
  1.50000000E+00  8.00000000E-01  8.00000000E-01  1.50000000E+00  1.50000000E+00
  8.00000000E-01  8.00000000E-01  1.50000000E+00  1.50000000E+00  8.00000000E-01
  8.00000000E-01  1.50000000E+00  1.50000000E+00  8.00000000E-01  8.00000000E-01
  1.50000000E+00  1.50000000E+00  8.00000000E-01  8.00000000E-01  1.50000000E+00
  1.50000000E+00  8.00000000E-01  8.00000000E-01  1.50000000E+00  1.50000000E+00
  8.00000000E-01  8.00000000E-01  1.50000000E+00  1.50000000E+00  8.00000000E-01
  8.00000000E-01  1.50000000E+00  1.50000000E+00  8.00000000E-01  8.00000000E-01
  1.50000000E+00  1.50000000E+00  8.00000000E-01  8.00000000E-01  1.50000000E+00
  1.50000000E+00  8.00000000E-01  8.00000000E-01  1.50000000E+00  1.50000000E+00
  8.00000000E-01  8.00000000E-01  1.50000000E+00  1.50000000E+00  8.00000000E-01
  8.00000000E-01  1.50000000E+00  1.50000000E+00  8.00000000E-01  8.00000000E-01
  1.50000000E+00  1.50000000E+00  8.00000000E-01  8.00000000E-01  1.50000000E+00
  1.50000000E+00  8.00000000E-01  8.00000000E-01  1.50000000E+00  1.50000000E+00
  8.00000000E-01  8.00000000E-01  1.50000000E+00  1.50000000E+00  8.00000000E-01
  8.00000000E-01  1.50000000E+00  1.50000000E+00  8.00000000E-01  8.00000000E-01
  1.50000000E+00  1.50000000E+00  8.00000000E-01  8.00000000E-01  1.50000000E+00
  1.50000000E+00  8.00000000E-01  8.00000000E-01  1.50000000E+00  1.50000000E+00
  8.00000000E-01  8.00000000E-01  1.50000000E+00  1.50000000E+00  8.00000000E-01
  8.00000000E-01  1.50000000E+00  1.50000000E+00  8.00000000E-01  8.00000000E-01
  1.50000000E+00  1.50000000E+00  8.00000000E-01  8.00000000E-01  1.50000000E+00
  1.50000000E+00  8.00000000E-01  8.00000000E-01  1.50000000E+00  1.50000000E+00
  8.00000000E-01  8.00000000E-01  1.50000000E+00  1.50000000E+00  8.00000000E-01
  8.00000000E-01  1.50000000E+00  1.50000000E+00  8.00000000E-01  8.00000000E-01
  1.50000000E+00  1.50000000E+00  8.00000000E-01  8.00000000E-01  1.50000000E+00
  1.50000000E+00  8.00000000E-01  8.00000000E-01  1.50000000E+00  1.50000000E+00
  8.00000000E-01  8.00000000E-01  1.50000000E+00  1.50000000E+00  8.00000000E-01
  8.00000000E-01  1.50000000E+00  1.50000000E+00  8.00000000E-01  8.00000000E-01
  1.50000000E+00  1.50000000E+00  8.00000000E-01  8.00000000E-01  1.50000000E+00
  1.50000000E+00  8.00000000E-01  8.00000000E-01  1.50000000E+00  1.50000000E+00
  8.00000000E-01  8.00000000E-01  1.50000000E+00  1.50000000E+00  8.00000000E-01
  8.00000000E-01  1.50000000E+00  1.50000000E+00  8.00000000E-01  8.00000000E-01
  1.50000000E+00  1.50000000E+00  8.00000000E-01  8.00000000E-01  1.50000000E+00
  1.50000000E+00  8.00000000E-01  8.00000000E-01  1.50000000E+00  1.50000000E+00
  8.00000000E-01  8.00000000E-01  1.50000000E+00  1.50000000E+00  8.00000000E-01
  8.00000000E-01  1.50000000E+00  1.50000000E+00  8.00000000E-01  8.00000000E-01
  1.50000000E+00  1.50000000E+00  8.00000000E-01  8.00000000E-01  1.50000000E+00
  1.50000000E+00  8.00000000E-01  8.00000000E-01  1.50000000E+00  1.50000000E+00
  8.00000000E-01  8.00000000E-01  1.50000000E+00  1.50000000E+00  8.00000000E-01
  8.00000000E-01  1.50000000E+00  1.50000000E+00  8.00000000E-01  8.00000000E-01
  1.50000000E+00  1.50000000E+00  8.00000000E-01  8.00000000E-01  1.50000000E+00
  1.50000000E+00  8.00000000E-01  8.00000000E-01  1.50000000E+00  1.50000000E+00
  8.00000000E-01  8.00000000E-01  1.50000000E+00  1.50000000E+00  8.00000000E-01
  8.00000000E-01  1.50000000E+00  1.50000000E+00  8.00000000E-01  8.00000000E-01
  1.50000000E+00  1.50000000E+00  8.00000000E-01  8.00000000E-01  1.50000000E+00
  1.50000000E+00  8.00000000E-01  8.00000000E-01  1.50000000E+00  1.50000000E+00
  8.00000000E-01  8.00000000E-01  1.50000000E+00  1.50000000E+00  8.00000000E-01
  8.00000000E-01  1.50000000E+00  1.50000000E+00  8.00000000E-01  8.00000000E-01
  1.50000000E+00  1.50000000E+00  8.00000000E-01  8.00000000E-01  1.50000000E+00
  1.50000000E+00  8.00000000E-01  8.00000000E-01  1.50000000E+00  1.50000000E+00
  8.00000000E-01  8.00000000E-01  1.50000000E+00  1.50000000E+00  8.00000000E-01
  8.00000000E-01  1.50000000E+00  1.50000000E+00  8.00000000E-01  8.00000000E-01
  1.50000000E+00  1.50000000E+00  8.00000000E-01  8.00000000E-01  1.50000000E+00
  1.50000000E+00  8.00000000E-01  8.00000000E-01  1.50000000E+00  1.50000000E+00
  8.00000000E-01  8.00000000E-01  1.50000000E+00  1.50000000E+00  8.00000000E-01
  8.00000000E-01  1.50000000E+00  1.50000000E+00  8.00000000E-01  8.00000000E-01
  1.50000000E+00  1.50000000E+00  8.00000000E-01  8.00000000E-01  1.50000000E+00
  1.50000000E+00  8.00000000E-01  8.00000000E-01  1.50000000E+00  1.50000000E+00
  8.00000000E-01  8.00000000E-01  1.50000000E+00  1.50000000E+00  8.00000000E-01
  8.00000000E-01  1.50000000E+00  1.50000000E+00  8.00000000E-01  8.00000000E-01
  1.50000000E+00  1.50000000E+00  8.00000000E-01  8.00000000E-01  1.50000000E+00
  1.50000000E+00  8.00000000E-01  8.00000000E-01  1.50000000E+00  1.50000000E+00
  8.00000000E-01  8.00000000E-01  1.50000000E+00  1.50000000E+00  8.00000000E-01
  8.00000000E-01  1.50000000E+00  1.50000000E+00  8.00000000E-01  8.00000000E-01
  1.50000000E+00  1.50000000E+00  8.00000000E-01  8.00000000E-01  1.50000000E+00
  1.50000000E+00  8.00000000E-01  8.00000000E-01  1.50000000E+00  1.50000000E+00
  8.00000000E-01  8.00000000E-01  1.50000000E+00  1.50000000E+00  8.00000000E-01
  8.00000000E-01  1.50000000E+00  1.50000000E+00  8.00000000E-01  8.00000000E-01
  1.50000000E+00  1.50000000E+00  8.00000000E-01  8.00000000E-01  1.50000000E+00
  1.50000000E+00  8.00000000E-01  8.00000000E-01  1.50000000E+00  1.50000000E+00
  8.00000000E-01  8.00000000E-01  1.50000000E+00  1.50000000E+00  8.00000000E-01
  8.00000000E-01  1.50000000E+00  1.50000000E+00  8.00000000E-01  8.00000000E-01
  1.50000000E+00  1.50000000E+00  8.00000000E-01  8.00000000E-01  1.50000000E+00
  1.50000000E+00  8.00000000E-01  8.00000000E-01  1.50000000E+00  1.50000000E+00
  8.00000000E-01  8.00000000E-01  1.50000000E+00  1.50000000E+00  8.00000000E-01
  8.00000000E-01  1.50000000E+00  1.50000000E+00  8.00000000E-01  8.00000000E-01
  1.50000000E+00  1.50000000E+00  8.00000000E-01  8.00000000E-01  1.50000000E+00
  1.50000000E+00  8.00000000E-01  8.00000000E-01  1.50000000E+00  1.50000000E+00
  8.00000000E-01  8.00000000E-01  1.50000000E+00  1.50000000E+00  8.00000000E-01
  8.00000000E-01  1.50000000E+00  1.50000000E+00  8.00000000E-01  8.00000000E-01
  1.50000000E+00  1.50000000E+00  8.00000000E-01  8.00000000E-01  1.50000000E+00
  1.50000000E+00  8.00000000E-01  8.00000000E-01  1.50000000E+00  1.50000000E+00
  8.00000000E-01  8.00000000E-01  1.50000000E+00  1.50000000E+00  8.00000000E-01
  8.00000000E-01  1.50000000E+00  1.50000000E+00  8.00000000E-01  8.00000000E-01
  1.50000000E+00  1.50000000E+00  8.00000000E-01  8.00000000E-01  1.50000000E+00
  1.50000000E+00  8.00000000E-01  8.00000000E-01  1.50000000E+00  1.50000000E+00
  8.00000000E-01  8.00000000E-01  1.50000000E+00  1.50000000E+00  8.00000000E-01
  8.00000000E-01  1.50000000E+00  1.50000000E+00  8.00000000E-01  8.00000000E-01
  1.50000000E+00  1.50000000E+00  8.00000000E-01  8.00000000E-01  1.50000000E+00
  1.50000000E+00  8.00000000E-01  8.00000000E-01  1.50000000E+00  1.50000000E+00
  8.00000000E-01  8.00000000E-01  1.50000000E+00  1.50000000E+00  8.00000000E-01
  8.00000000E-01  1.50000000E+00  1.50000000E+00  8.00000000E-01  8.00000000E-01
  1.50000000E+00  1.50000000E+00  8.00000000E-01  8.00000000E-01  1.50000000E+00
  1.50000000E+00  8.00000000E-01  8.00000000E-01  1.50000000E+00  1.50000000E+00
  8.00000000E-01  8.00000000E-01  1.50000000E+00  1.50000000E+00  8.00000000E-01
  8.00000000E-01  1.50000000E+00  1.50000000E+00  8.00000000E-01  8.00000000E-01
  1.50000000E+00  1.50000000E+00  8.00000000E-01  8.00000000E-01  1.50000000E+00
  1.50000000E+00  8.00000000E-01  8.00000000E-01  1.50000000E+00  1.50000000E+00
  8.00000000E-01  8.00000000E-01  1.50000000E+00  1.50000000E+00  8.00000000E-01
  8.00000000E-01  1.50000000E+00  1.50000000E+00  8.00000000E-01  8.00000000E-01
  1.50000000E+00  1.50000000E+00  8.00000000E-01  8.00000000E-01  1.50000000E+00
  1.50000000E+00  8.00000000E-01  8.00000000E-01  1.50000000E+00  1.50000000E+00
  8.00000000E-01  8.00000000E-01  1.50000000E+00  1.50000000E+00  8.00000000E-01
  8.00000000E-01  1.50000000E+00  1.50000000E+00  8.00000000E-01  8.00000000E-01
  1.50000000E+00  1.50000000E+00  8.00000000E-01  8.00000000E-01  1.50000000E+00
  1.50000000E+00  8.00000000E-01  8.00000000E-01  1.50000000E+00  1.50000000E+00
  8.00000000E-01  8.00000000E-01  1.50000000E+00  1.50000000E+00  8.00000000E-01
  8.00000000E-01  1.50000000E+00  1.50000000E+00  8.00000000E-01  8.00000000E-01
  1.50000000E+00  1.50000000E+00  8.00000000E-01  8.00000000E-01  1.50000000E+00
  1.50000000E+00  8.00000000E-01  8.00000000E-01  1.50000000E+00  1.50000000E+00
  8.00000000E-01  8.00000000E-01  1.50000000E+00  1.50000000E+00  8.00000000E-01
  8.00000000E-01  1.50000000E+00  1.50000000E+00  8.00000000E-01  8.00000000E-01
  1.50000000E+00  1.50000000E+00  8.00000000E-01  8.00000000E-01  1.50000000E+00
  1.50000000E+00  8.00000000E-01  8.00000000E-01  1.50000000E+00  1.50000000E+00
  8.00000000E-01  8.00000000E-01  1.50000000E+00  1.50000000E+00  8.00000000E-01
  8.00000000E-01  1.50000000E+00  1.50000000E+00  8.00000000E-01  8.00000000E-01
  1.50000000E+00  1.50000000E+00  8.00000000E-01  8.00000000E-01  1.50000000E+00
  1.50000000E+00  8.00000000E-01  8.00000000E-01  1.50000000E+00  1.50000000E+00
  8.00000000E-01  8.00000000E-01  1.50000000E+00  1.50000000E+00  8.00000000E-01
  8.00000000E-01  1.50000000E+00  1.50000000E+00  8.00000000E-01  8.00000000E-01
  1.50000000E+00  1.50000000E+00  8.00000000E-01  8.00000000E-01  1.50000000E+00
  1.50000000E+00  8.00000000E-01  8.00000000E-01  1.50000000E+00  1.50000000E+00
  8.00000000E-01  8.00000000E-01  1.50000000E+00  1.50000000E+00  8.00000000E-01
  8.00000000E-01  1.50000000E+00  1.50000000E+00  8.00000000E-01  8.00000000E-01
  1.50000000E+00  1.50000000E+00  8.00000000E-01  8.00000000E-01  1.50000000E+00
  1.50000000E+00  8.00000000E-01  8.00000000E-01  1.50000000E+00  1.50000000E+00
  8.00000000E-01  8.00000000E-01  1.50000000E+00  1.50000000E+00  8.00000000E-01
  8.00000000E-01  1.50000000E+00  1.50000000E+00  8.00000000E-01  8.00000000E-01
  1.50000000E+00  1.50000000E+00  8.00000000E-01  8.00000000E-01  1.50000000E+00
  1.50000000E+00  8.00000000E-01  8.00000000E-01  1.50000000E+00  1.50000000E+00
  8.00000000E-01  8.00000000E-01  1.50000000E+00  1.50000000E+00  8.00000000E-01
  8.00000000E-01  1.50000000E+00  1.50000000E+00  8.00000000E-01  8.00000000E-01
  1.50000000E+00  1.50000000E+00  8.00000000E-01  8.00000000E-01  1.50000000E+00
  1.50000000E+00  8.00000000E-01  8.00000000E-01  1.50000000E+00  1.50000000E+00
  8.00000000E-01  8.00000000E-01  1.50000000E+00  1.50000000E+00  8.00000000E-01
  8.00000000E-01  1.50000000E+00  1.50000000E+00  8.00000000E-01  8.00000000E-01
  1.50000000E+00  1.50000000E+00  8.00000000E-01  8.00000000E-01  1.50000000E+00
  1.50000000E+00  8.00000000E-01  8.00000000E-01  1.50000000E+00  1.50000000E+00
  8.00000000E-01  8.00000000E-01  1.50000000E+00  1.50000000E+00  8.00000000E-01
  8.00000000E-01  1.50000000E+00  1.50000000E+00  8.00000000E-01  8.00000000E-01
  1.50000000E+00  1.50000000E+00  8.00000000E-01  8.00000000E-01  1.50000000E+00
  1.50000000E+00  8.00000000E-01  8.00000000E-01  1.50000000E+00  1.50000000E+00
  8.00000000E-01  8.00000000E-01  1.50000000E+00  1.50000000E+00  8.00000000E-01
  8.00000000E-01  1.50000000E+00  1.50000000E+00  8.00000000E-01  8.00000000E-01
  1.50000000E+00  1.50000000E+00  8.00000000E-01  8.00000000E-01  1.50000000E+00
  1.50000000E+00  8.00000000E-01  8.00000000E-01  1.50000000E+00  1.50000000E+00
  8.00000000E-01  8.00000000E-01  1.50000000E+00  1.50000000E+00  8.00000000E-01
  8.00000000E-01  1.50000000E+00  1.50000000E+00  8.00000000E-01  8.00000000E-01
  1.50000000E+00  1.50000000E+00  8.00000000E-01  8.00000000E-01  1.50000000E+00
  1.50000000E+00  8.00000000E-01  8.00000000E-01  1.50000000E+00  1.50000000E+00
  8.00000000E-01  8.00000000E-01  1.50000000E+00  1.50000000E+00  8.00000000E-01
  8.00000000E-01  1.50000000E+00  1.50000000E+00  8.00000000E-01  8.00000000E-01
  1.50000000E+00  1.50000000E+00  8.00000000E-01  8.00000000E-01  1.50000000E+00
  1.50000000E+00  8.00000000E-01  8.00000000E-01  1.50000000E+00  1.50000000E+00
  8.00000000E-01  8.00000000E-01  1.50000000E+00  1.50000000E+00  8.00000000E-01
  8.00000000E-01  1.50000000E+00  1.50000000E+00  8.00000000E-01  8.00000000E-01
  1.50000000E+00  1.50000000E+00  8.00000000E-01  8.00000000E-01  1.50000000E+00
  1.50000000E+00  8.00000000E-01  8.00000000E-01  1.50000000E+00  1.50000000E+00
  8.00000000E-01  8.00000000E-01  1.50000000E+00  1.50000000E+00  8.00000000E-01
  8.00000000E-01  1.50000000E+00  1.50000000E+00  8.00000000E-01  8.00000000E-01
  1.50000000E+00  1.50000000E+00  8.00000000E-01  8.00000000E-01  1.50000000E+00
  1.50000000E+00  8.00000000E-01  8.00000000E-01  1.50000000E+00  1.50000000E+00
  8.00000000E-01  8.00000000E-01  1.50000000E+00  1.50000000E+00  8.00000000E-01
  8.00000000E-01  1.50000000E+00  1.50000000E+00  8.00000000E-01  8.00000000E-01
  1.50000000E+00  1.50000000E+00  8.00000000E-01  8.00000000E-01  1.50000000E+00
  1.50000000E+00  8.00000000E-01  8.00000000E-01  1.50000000E+00  1.50000000E+00
  8.00000000E-01  8.00000000E-01  1.50000000E+00  1.50000000E+00  8.00000000E-01
  8.00000000E-01  1.50000000E+00  1.50000000E+00  8.00000000E-01  8.00000000E-01
  1.50000000E+00  1.50000000E+00  8.00000000E-01  8.00000000E-01  1.50000000E+00
  1.50000000E+00  8.00000000E-01  8.00000000E-01  1.50000000E+00  1.50000000E+00
  8.00000000E-01  8.00000000E-01  1.50000000E+00  1.50000000E+00  8.00000000E-01
  8.00000000E-01  1.50000000E+00  1.50000000E+00  8.00000000E-01  8.00000000E-01
  1.50000000E+00  1.50000000E+00  8.00000000E-01  8.00000000E-01  1.50000000E+00
  1.50000000E+00  8.00000000E-01  8.00000000E-01  1.50000000E+00  1.50000000E+00
  8.00000000E-01  8.00000000E-01  1.50000000E+00  1.50000000E+00  8.00000000E-01
  8.00000000E-01  1.50000000E+00  1.50000000E+00  8.00000000E-01  8.00000000E-01
  1.50000000E+00  1.50000000E+00  8.00000000E-01  8.00000000E-01  1.50000000E+00
  1.50000000E+00  8.00000000E-01  8.00000000E-01  1.50000000E+00  1.50000000E+00
  8.00000000E-01  8.00000000E-01  1.50000000E+00  1.50000000E+00  8.00000000E-01
  8.00000000E-01  1.50000000E+00  1.50000000E+00  8.00000000E-01  8.00000000E-01
  1.50000000E+00  1.50000000E+00  8.00000000E-01  8.00000000E-01  1.50000000E+00
  1.50000000E+00  8.00000000E-01  8.00000000E-01  1.50000000E+00  1.50000000E+00
  8.00000000E-01  8.00000000E-01  1.50000000E+00  1.50000000E+00  8.00000000E-01
  8.00000000E-01  1.50000000E+00  1.50000000E+00  8.00000000E-01  8.00000000E-01
  1.50000000E+00  1.50000000E+00  8.00000000E-01  8.00000000E-01  1.50000000E+00
  1.50000000E+00  8.00000000E-01  8.00000000E-01  1.50000000E+00  1.50000000E+00
  8.00000000E-01  8.00000000E-01  1.50000000E+00  1.50000000E+00  8.00000000E-01
  8.00000000E-01  1.50000000E+00  1.50000000E+00  8.00000000E-01  8.00000000E-01
  1.50000000E+00  1.50000000E+00  8.00000000E-01  8.00000000E-01  1.50000000E+00
  1.50000000E+00  8.00000000E-01  8.00000000E-01  1.50000000E+00  1.50000000E+00
  8.00000000E-01  8.00000000E-01  1.50000000E+00  1.50000000E+00  8.00000000E-01
  8.00000000E-01  1.50000000E+00  1.50000000E+00  8.00000000E-01  8.00000000E-01
  1.50000000E+00  1.50000000E+00  8.00000000E-01  8.00000000E-01  1.50000000E+00
  1.50000000E+00  8.00000000E-01  8.00000000E-01  1.50000000E+00  1.50000000E+00
  8.00000000E-01  8.00000000E-01  1.50000000E+00  1.50000000E+00  8.00000000E-01
  8.00000000E-01  1.50000000E+00  1.50000000E+00  8.00000000E-01  8.00000000E-01
  1.50000000E+00  1.50000000E+00  8.00000000E-01  8.00000000E-01  1.50000000E+00
  1.50000000E+00  8.00000000E-01  8.00000000E-01  1.50000000E+00  1.50000000E+00
  8.00000000E-01  8.00000000E-01  1.50000000E+00  1.50000000E+00  8.00000000E-01
  8.00000000E-01  1.50000000E+00  1.50000000E+00  8.00000000E-01  8.00000000E-01
  1.50000000E+00  1.50000000E+00  8.00000000E-01  8.00000000E-01  1.50000000E+00
  1.50000000E+00  8.00000000E-01  8.00000000E-01  1.50000000E+00  1.50000000E+00
  8.00000000E-01  8.00000000E-01  1.50000000E+00  1.50000000E+00  8.00000000E-01
  8.00000000E-01  1.50000000E+00  1.50000000E+00  8.00000000E-01  8.00000000E-01
  1.50000000E+00  1.50000000E+00  8.00000000E-01  8.00000000E-01  1.50000000E+00
  1.50000000E+00  8.00000000E-01  8.00000000E-01  1.50000000E+00  1.50000000E+00
  8.00000000E-01  8.00000000E-01  1.50000000E+00  1.50000000E+00  8.00000000E-01
  8.00000000E-01  1.50000000E+00  1.50000000E+00  8.00000000E-01  8.00000000E-01
  1.50000000E+00  1.50000000E+00  8.00000000E-01  8.00000000E-01  1.50000000E+00
  1.50000000E+00  8.00000000E-01  8.00000000E-01  1.50000000E+00  1.50000000E+00
  8.00000000E-01  8.00000000E-01  1.50000000E+00  1.50000000E+00  8.00000000E-01
  8.00000000E-01  1.50000000E+00  1.50000000E+00  8.00000000E-01  8.00000000E-01
  1.50000000E+00  1.50000000E+00  8.00000000E-01  8.00000000E-01  1.50000000E+00
  1.50000000E+00  8.00000000E-01  8.00000000E-01  1.50000000E+00  1.50000000E+00
  8.00000000E-01  8.00000000E-01  1.50000000E+00  1.50000000E+00  8.00000000E-01
  8.00000000E-01  1.50000000E+00  1.50000000E+00  8.00000000E-01  8.00000000E-01
  1.50000000E+00  1.50000000E+00  8.00000000E-01  8.00000000E-01  1.50000000E+00
  1.50000000E+00  8.00000000E-01  8.00000000E-01  1.50000000E+00  1.50000000E+00
  8.00000000E-01  8.00000000E-01  1.50000000E+00  1.50000000E+00  8.00000000E-01
  8.00000000E-01  1.50000000E+00  1.50000000E+00  8.00000000E-01  8.00000000E-01
  1.50000000E+00  1.50000000E+00  8.00000000E-01  8.00000000E-01  1.50000000E+00
  1.50000000E+00  8.00000000E-01  8.00000000E-01  1.50000000E+00  1.50000000E+00
  8.00000000E-01  8.00000000E-01  1.50000000E+00  1.50000000E+00  8.00000000E-01
  8.00000000E-01  1.50000000E+00  1.50000000E+00  8.00000000E-01  8.00000000E-01
  1.50000000E+00  1.50000000E+00  8.00000000E-01  8.00000000E-01  1.50000000E+00
  1.50000000E+00  8.00000000E-01  8.00000000E-01  1.50000000E+00  1.50000000E+00
  8.00000000E-01  8.00000000E-01  1.50000000E+00  1.50000000E+00  8.00000000E-01
  8.00000000E-01  1.50000000E+00  1.50000000E+00  8.00000000E-01  8.00000000E-01
  1.50000000E+00  1.50000000E+00  8.00000000E-01  8.00000000E-01  1.50000000E+00
  1.50000000E+00  8.00000000E-01  8.00000000E-01  1.50000000E+00  1.50000000E+00
  8.00000000E-01  8.00000000E-01  1.50000000E+00  1.50000000E+00  8.00000000E-01
  8.00000000E-01  1.50000000E+00  1.50000000E+00  8.00000000E-01  8.00000000E-01
  1.50000000E+00  1.50000000E+00  8.00000000E-01  8.00000000E-01  1.50000000E+00
  1.50000000E+00  8.00000000E-01  8.00000000E-01  1.50000000E+00  1.50000000E+00
  8.00000000E-01  8.00000000E-01  1.50000000E+00  1.50000000E+00  8.00000000E-01
  8.00000000E-01  1.50000000E+00  1.50000000E+00  8.00000000E-01  8.00000000E-01
  1.50000000E+00  1.50000000E+00  8.00000000E-01  8.00000000E-01  1.50000000E+00
  1.50000000E+00  8.00000000E-01  8.00000000E-01  1.50000000E+00  1.50000000E+00
  8.00000000E-01  8.00000000E-01  1.50000000E+00  1.50000000E+00  8.00000000E-01
  8.00000000E-01  1.50000000E+00  1.50000000E+00  8.00000000E-01  8.00000000E-01
  1.50000000E+00  1.50000000E+00  8.00000000E-01  8.00000000E-01  1.50000000E+00
  1.50000000E+00  8.00000000E-01  8.00000000E-01  1.50000000E+00  1.50000000E+00
  8.00000000E-01  8.00000000E-01  1.50000000E+00  1.50000000E+00  8.00000000E-01
  8.00000000E-01  1.50000000E+00  1.50000000E+00  8.00000000E-01  8.00000000E-01
  1.50000000E+00  1.50000000E+00  8.00000000E-01  8.00000000E-01  1.50000000E+00
  1.50000000E+00  8.00000000E-01  8.00000000E-01  1.50000000E+00  1.50000000E+00
  8.00000000E-01  8.00000000E-01  1.50000000E+00  1.50000000E+00  8.00000000E-01
  8.00000000E-01  1.50000000E+00  1.50000000E+00  8.00000000E-01  8.00000000E-01
  1.50000000E+00  1.50000000E+00  8.00000000E-01  8.00000000E-01  1.50000000E+00
  1.50000000E+00  8.00000000E-01  8.00000000E-01  1.50000000E+00  1.50000000E+00
  8.00000000E-01  8.00000000E-01  1.50000000E+00  1.50000000E+00  8.00000000E-01
  8.00000000E-01  1.50000000E+00  1.50000000E+00  8.00000000E-01  8.00000000E-01
  1.50000000E+00  1.50000000E+00  8.00000000E-01  8.00000000E-01  1.50000000E+00
  1.50000000E+00  8.00000000E-01  8.00000000E-01  1.50000000E+00  1.50000000E+00
  8.00000000E-01  8.00000000E-01  1.50000000E+00  1.50000000E+00  8.00000000E-01
  8.00000000E-01  1.50000000E+00  1.50000000E+00  8.00000000E-01  8.00000000E-01
  1.50000000E+00  1.50000000E+00  8.00000000E-01  8.00000000E-01  1.50000000E+00
  1.50000000E+00  8.00000000E-01  8.00000000E-01  1.50000000E+00  1.50000000E+00
  8.00000000E-01  8.00000000E-01  1.50000000E+00  1.50000000E+00  8.00000000E-01
  8.00000000E-01  1.50000000E+00  1.50000000E+00  8.00000000E-01  8.00000000E-01
  1.50000000E+00  1.50000000E+00  8.00000000E-01  8.00000000E-01  1.50000000E+00
  1.50000000E+00  8.00000000E-01  8.00000000E-01  1.50000000E+00  1.50000000E+00
  8.00000000E-01  8.00000000E-01  1.50000000E+00  1.50000000E+00  8.00000000E-01
  8.00000000E-01  1.50000000E+00  1.50000000E+00  8.00000000E-01  8.00000000E-01
  1.50000000E+00  1.50000000E+00  8.00000000E-01  8.00000000E-01  1.50000000E+00
  1.50000000E+00  8.00000000E-01  8.00000000E-01  1.50000000E+00  1.50000000E+00
  8.00000000E-01  8.00000000E-01  1.50000000E+00  1.50000000E+00  8.00000000E-01
  8.00000000E-01  1.50000000E+00  1.50000000E+00  8.00000000E-01  8.00000000E-01
  1.50000000E+00  1.50000000E+00  8.00000000E-01  8.00000000E-01  1.50000000E+00
  1.50000000E+00  8.00000000E-01  8.00000000E-01  1.50000000E+00  1.50000000E+00
  8.00000000E-01  8.00000000E-01  1.50000000E+00  1.50000000E+00  8.00000000E-01
  8.00000000E-01  1.50000000E+00  1.50000000E+00  8.00000000E-01  8.00000000E-01
  1.50000000E+00  1.50000000E+00  8.00000000E-01  8.00000000E-01  1.50000000E+00
  1.50000000E+00  8.00000000E-01  8.00000000E-01  1.50000000E+00  1.50000000E+00
  8.00000000E-01  8.00000000E-01  1.50000000E+00  1.50000000E+00  8.00000000E-01
  8.00000000E-01  1.50000000E+00  1.50000000E+00  8.00000000E-01  8.00000000E-01
  1.50000000E+00  1.50000000E+00  8.00000000E-01  8.00000000E-01  1.50000000E+00
  1.50000000E+00  8.00000000E-01  8.00000000E-01  1.50000000E+00  1.50000000E+00
  8.00000000E-01  8.00000000E-01  1.50000000E+00  1.50000000E+00  8.00000000E-01
  8.00000000E-01  1.50000000E+00  1.50000000E+00  8.00000000E-01  8.00000000E-01
  1.50000000E+00  1.50000000E+00  8.00000000E-01  8.00000000E-01  1.50000000E+00
  1.50000000E+00  8.00000000E-01  8.00000000E-01  1.50000000E+00  1.50000000E+00
  8.00000000E-01  8.00000000E-01  1.50000000E+00  1.50000000E+00  8.00000000E-01
  8.00000000E-01  1.50000000E+00  1.50000000E+00  8.00000000E-01  8.00000000E-01
  1.50000000E+00  1.50000000E+00  8.00000000E-01  8.00000000E-01  1.50000000E+00
  1.50000000E+00  8.00000000E-01  8.00000000E-01  1.50000000E+00  1.50000000E+00
  8.00000000E-01  8.00000000E-01  1.50000000E+00  1.50000000E+00  8.00000000E-01
  8.00000000E-01  1.50000000E+00  1.50000000E+00  8.00000000E-01  8.00000000E-01
  1.50000000E+00  1.50000000E+00  8.00000000E-01  8.00000000E-01  1.50000000E+00
  1.50000000E+00  8.00000000E-01  8.00000000E-01  1.50000000E+00  1.50000000E+00
  8.00000000E-01  8.00000000E-01  1.50000000E+00  1.50000000E+00  8.00000000E-01
  8.00000000E-01  1.50000000E+00  1.50000000E+00  8.00000000E-01  8.00000000E-01
  1.50000000E+00  1.50000000E+00  8.00000000E-01  8.00000000E-01  1.50000000E+00
  1.50000000E+00  8.00000000E-01  8.00000000E-01  1.50000000E+00  1.50000000E+00
  8.00000000E-01  8.00000000E-01  1.50000000E+00  1.50000000E+00  8.00000000E-01
  8.00000000E-01  1.50000000E+00  1.50000000E+00  8.00000000E-01  8.00000000E-01
  1.50000000E+00  1.50000000E+00  8.00000000E-01  8.00000000E-01  1.50000000E+00
  1.50000000E+00  8.00000000E-01  8.00000000E-01  1.50000000E+00  1.50000000E+00
  8.00000000E-01  8.00000000E-01  1.50000000E+00  1.50000000E+00  8.00000000E-01
  8.00000000E-01  1.50000000E+00  1.50000000E+00  8.00000000E-01  8.00000000E-01
  1.50000000E+00  1.50000000E+00  8.00000000E-01  8.00000000E-01  1.50000000E+00
  1.50000000E+00  8.00000000E-01  8.00000000E-01  1.50000000E+00  1.50000000E+00
  8.00000000E-01  8.00000000E-01  1.50000000E+00  1.50000000E+00  8.00000000E-01
  8.00000000E-01  1.50000000E+00  1.50000000E+00  8.00000000E-01  8.00000000E-01
  1.50000000E+00  1.50000000E+00  8.00000000E-01  8.00000000E-01  1.50000000E+00
  1.50000000E+00  8.00000000E-01  8.00000000E-01  1.50000000E+00  1.50000000E+00
  8.00000000E-01  8.00000000E-01  1.50000000E+00  1.50000000E+00  8.00000000E-01
  8.00000000E-01  1.50000000E+00  1.50000000E+00  8.00000000E-01  8.00000000E-01
  1.50000000E+00  1.50000000E+00  8.00000000E-01  8.00000000E-01  1.50000000E+00
  1.50000000E+00  8.00000000E-01  8.00000000E-01  1.50000000E+00  1.50000000E+00
  8.00000000E-01  8.00000000E-01  1.50000000E+00  1.50000000E+00  8.00000000E-01
  8.00000000E-01  1.50000000E+00  1.50000000E+00  8.00000000E-01  8.00000000E-01
  1.50000000E+00  1.50000000E+00  8.00000000E-01  8.00000000E-01  1.50000000E+00
  1.50000000E+00  8.00000000E-01  8.00000000E-01  1.50000000E+00  1.50000000E+00
  8.00000000E-01  8.00000000E-01  1.50000000E+00  1.50000000E+00  8.00000000E-01
  8.00000000E-01  1.50000000E+00  1.50000000E+00  8.00000000E-01  8.00000000E-01
  1.50000000E+00  1.50000000E+00  8.00000000E-01  8.00000000E-01  1.50000000E+00
  1.50000000E+00  8.00000000E-01  8.00000000E-01  1.50000000E+00  1.50000000E+00
  8.00000000E-01  8.00000000E-01  1.50000000E+00  1.50000000E+00  8.00000000E-01
  8.00000000E-01  1.50000000E+00  1.50000000E+00  8.00000000E-01  8.00000000E-01
  1.50000000E+00  1.50000000E+00  8.00000000E-01  8.00000000E-01  1.50000000E+00
  1.50000000E+00  8.00000000E-01  8.00000000E-01  1.50000000E+00  1.50000000E+00
  8.00000000E-01  8.00000000E-01  1.50000000E+00  1.50000000E+00  8.00000000E-01
  8.00000000E-01  1.50000000E+00  1.50000000E+00  8.00000000E-01  8.00000000E-01
  1.50000000E+00  1.50000000E+00  8.00000000E-01  8.00000000E-01  1.50000000E+00
  1.50000000E+00  8.00000000E-01  8.00000000E-01  1.50000000E+00  1.50000000E+00
  8.00000000E-01  8.00000000E-01  1.50000000E+00  1.50000000E+00  8.00000000E-01
  8.00000000E-01  1.50000000E+00  1.50000000E+00  8.00000000E-01  8.00000000E-01
  1.50000000E+00  1.50000000E+00  8.00000000E-01  8.00000000E-01  1.50000000E+00
  1.50000000E+00  8.00000000E-01  8.00000000E-01  1.50000000E+00  1.50000000E+00
  8.00000000E-01  8.00000000E-01  1.50000000E+00  1.50000000E+00  8.00000000E-01
  8.00000000E-01  1.50000000E+00  1.50000000E+00  8.00000000E-01  8.00000000E-01
  1.50000000E+00  1.50000000E+00  8.00000000E-01  8.00000000E-01  1.50000000E+00
  1.50000000E+00  8.00000000E-01  8.00000000E-01  1.50000000E+00  1.50000000E+00
  8.00000000E-01  8.00000000E-01  1.50000000E+00  1.50000000E+00  8.00000000E-01
  8.00000000E-01  1.50000000E+00  1.50000000E+00  8.00000000E-01  8.00000000E-01
  1.50000000E+00  1.50000000E+00  8.00000000E-01  8.00000000E-01  1.50000000E+00
  1.50000000E+00  8.00000000E-01  8.00000000E-01  1.50000000E+00  1.50000000E+00
  8.00000000E-01  8.00000000E-01  1.50000000E+00  1.50000000E+00  8.00000000E-01
  8.00000000E-01  1.50000000E+00  1.50000000E+00  8.00000000E-01  8.00000000E-01
  1.50000000E+00  1.50000000E+00  8.00000000E-01  8.00000000E-01  1.50000000E+00
  1.50000000E+00  8.00000000E-01  8.00000000E-01  1.50000000E+00  1.50000000E+00
  8.00000000E-01  8.00000000E-01  1.50000000E+00  1.50000000E+00  8.00000000E-01
  8.00000000E-01  1.50000000E+00  1.50000000E+00  8.00000000E-01  8.00000000E-01
  1.50000000E+00  1.50000000E+00  8.00000000E-01  8.00000000E-01  1.50000000E+00
  1.50000000E+00  8.00000000E-01  8.00000000E-01  1.50000000E+00  1.50000000E+00
  8.00000000E-01  8.00000000E-01  1.50000000E+00  1.50000000E+00  8.00000000E-01
  8.00000000E-01  1.50000000E+00  1.50000000E+00  8.00000000E-01  8.00000000E-01
  1.50000000E+00  1.50000000E+00  8.00000000E-01  8.00000000E-01  1.50000000E+00
  1.50000000E+00  8.00000000E-01  8.00000000E-01  1.50000000E+00  1.50000000E+00
  8.00000000E-01  8.00000000E-01  1.50000000E+00  1.50000000E+00  8.00000000E-01
  8.00000000E-01  1.50000000E+00  1.50000000E+00  8.00000000E-01  8.00000000E-01
  1.50000000E+00  1.50000000E+00  8.00000000E-01  8.00000000E-01  1.50000000E+00
  1.50000000E+00  8.00000000E-01  8.00000000E-01  1.50000000E+00  1.50000000E+00
  8.00000000E-01  8.00000000E-01  1.50000000E+00  1.50000000E+00  8.00000000E-01
  8.00000000E-01  1.50000000E+00  1.50000000E+00  8.00000000E-01  8.00000000E-01
  1.50000000E+00  1.50000000E+00  8.00000000E-01  8.00000000E-01  1.50000000E+00
  1.50000000E+00  8.00000000E-01  8.00000000E-01  1.50000000E+00  1.50000000E+00
  8.00000000E-01  8.00000000E-01  1.50000000E+00  1.50000000E+00  8.00000000E-01
  8.00000000E-01  1.50000000E+00  1.50000000E+00  8.00000000E-01  8.00000000E-01
  1.50000000E+00  1.50000000E+00  8.00000000E-01  8.00000000E-01  1.50000000E+00
  1.50000000E+00  8.00000000E-01  8.00000000E-01  1.50000000E+00  1.50000000E+00
  8.00000000E-01  8.00000000E-01  1.50000000E+00  1.50000000E+00  8.00000000E-01
  8.00000000E-01  1.50000000E+00  1.50000000E+00  8.00000000E-01  8.00000000E-01
  1.50000000E+00  1.50000000E+00  8.00000000E-01  8.00000000E-01  1.50000000E+00
  1.50000000E+00  8.00000000E-01  8.00000000E-01  1.50000000E+00  1.50000000E+00
  8.00000000E-01  8.00000000E-01  1.50000000E+00  1.50000000E+00  8.00000000E-01
  8.00000000E-01  1.50000000E+00  1.50000000E+00  8.00000000E-01  8.00000000E-01
  1.50000000E+00  1.50000000E+00  8.00000000E-01  8.00000000E-01  1.50000000E+00
  1.50000000E+00  8.00000000E-01  8.00000000E-01  1.50000000E+00  1.50000000E+00
  8.00000000E-01  8.00000000E-01  1.50000000E+00  1.50000000E+00  8.00000000E-01
  8.00000000E-01  1.50000000E+00  1.50000000E+00  8.00000000E-01  8.00000000E-01
  1.50000000E+00  1.50000000E+00  8.00000000E-01  8.00000000E-01  1.50000000E+00
  1.50000000E+00  8.00000000E-01  8.00000000E-01  1.50000000E+00  1.50000000E+00
  8.00000000E-01  8.00000000E-01  1.50000000E+00  1.50000000E+00  8.00000000E-01
  8.00000000E-01  1.50000000E+00  1.50000000E+00  8.00000000E-01  8.00000000E-01
  1.50000000E+00  1.50000000E+00  8.00000000E-01  8.00000000E-01  1.50000000E+00
  1.50000000E+00  8.00000000E-01  8.00000000E-01  1.50000000E+00  1.50000000E+00
  8.00000000E-01  8.00000000E-01  1.50000000E+00  1.50000000E+00  8.00000000E-01
  8.00000000E-01  1.50000000E+00  1.50000000E+00  8.00000000E-01  8.00000000E-01
  1.50000000E+00  1.50000000E+00  8.00000000E-01  8.00000000E-01  1.50000000E+00
  1.50000000E+00  8.00000000E-01  8.00000000E-01  1.50000000E+00  1.50000000E+00
  8.00000000E-01  8.00000000E-01  1.50000000E+00  1.50000000E+00  8.00000000E-01
  8.00000000E-01  1.50000000E+00  1.50000000E+00  8.00000000E-01  8.00000000E-01
  1.50000000E+00  1.50000000E+00  8.00000000E-01  8.00000000E-01  1.50000000E+00
  1.50000000E+00  8.00000000E-01  8.00000000E-01  1.50000000E+00  1.50000000E+00
  8.00000000E-01  8.00000000E-01  1.50000000E+00  1.50000000E+00  8.00000000E-01
  8.00000000E-01  1.50000000E+00  1.50000000E+00  8.00000000E-01  8.00000000E-01
  1.50000000E+00  1.50000000E+00  8.00000000E-01  8.00000000E-01  1.50000000E+00
  1.50000000E+00  8.00000000E-01  8.00000000E-01  1.50000000E+00  1.50000000E+00
  8.00000000E-01  8.00000000E-01  1.50000000E+00  1.50000000E+00  8.00000000E-01
  8.00000000E-01  1.50000000E+00  1.50000000E+00  8.00000000E-01  8.00000000E-01
  1.50000000E+00  1.50000000E+00  8.00000000E-01  8.00000000E-01  1.50000000E+00
  1.50000000E+00  8.00000000E-01  8.00000000E-01  1.50000000E+00  1.50000000E+00
  8.00000000E-01  8.00000000E-01  1.50000000E+00  1.50000000E+00  8.00000000E-01
  8.00000000E-01  1.50000000E+00  1.50000000E+00  8.00000000E-01  8.00000000E-01
  1.50000000E+00  1.50000000E+00  8.00000000E-01  8.00000000E-01  1.50000000E+00
  1.50000000E+00  8.00000000E-01  8.00000000E-01  1.50000000E+00  1.50000000E+00
  8.00000000E-01  8.00000000E-01  1.50000000E+00  1.50000000E+00  8.00000000E-01
  8.00000000E-01  1.50000000E+00  1.50000000E+00  8.00000000E-01  8.00000000E-01
  1.50000000E+00  1.50000000E+00  8.00000000E-01  8.00000000E-01  1.50000000E+00
  1.50000000E+00  8.00000000E-01  8.00000000E-01  1.50000000E+00  1.50000000E+00
  8.00000000E-01  8.00000000E-01  1.50000000E+00  1.50000000E+00  8.00000000E-01
  8.00000000E-01  1.50000000E+00  1.50000000E+00  8.00000000E-01  8.00000000E-01
  1.50000000E+00  1.50000000E+00  8.00000000E-01  8.00000000E-01  1.50000000E+00
  1.50000000E+00  8.00000000E-01  8.00000000E-01  1.50000000E+00  1.50000000E+00
  8.00000000E-01  8.00000000E-01  1.50000000E+00  1.50000000E+00  8.00000000E-01
  8.00000000E-01  1.50000000E+00  1.50000000E+00  8.00000000E-01  8.00000000E-01
  1.50000000E+00  1.50000000E+00  8.00000000E-01  8.00000000E-01  1.50000000E+00
  1.50000000E+00  8.00000000E-01  8.00000000E-01  1.50000000E+00  1.50000000E+00
  8.00000000E-01  8.00000000E-01  1.50000000E+00  1.50000000E+00  8.00000000E-01
  8.00000000E-01  1.50000000E+00  1.50000000E+00  8.00000000E-01  8.00000000E-01
  1.50000000E+00  1.50000000E+00  8.00000000E-01  8.00000000E-01  1.50000000E+00
  1.50000000E+00  8.00000000E-01  8.00000000E-01  1.50000000E+00  1.50000000E+00
  8.00000000E-01  8.00000000E-01  1.50000000E+00  1.50000000E+00  8.00000000E-01
  8.00000000E-01  1.50000000E+00  1.50000000E+00  8.00000000E-01  8.00000000E-01
  1.50000000E+00  1.50000000E+00  8.00000000E-01  8.00000000E-01  1.50000000E+00
  1.50000000E+00  8.00000000E-01  8.00000000E-01  1.50000000E+00  1.50000000E+00
  8.00000000E-01  8.00000000E-01  1.50000000E+00  1.50000000E+00  8.00000000E-01
  8.00000000E-01  1.50000000E+00  1.50000000E+00  8.00000000E-01  8.00000000E-01
  1.50000000E+00  1.50000000E+00  8.00000000E-01  8.00000000E-01  1.50000000E+00
  1.50000000E+00  8.00000000E-01  8.00000000E-01  1.50000000E+00  1.50000000E+00
  8.00000000E-01  8.00000000E-01  1.50000000E+00  1.50000000E+00  8.00000000E-01
  8.00000000E-01  1.50000000E+00  1.50000000E+00  8.00000000E-01  8.00000000E-01
  1.50000000E+00  1.50000000E+00  8.00000000E-01  8.00000000E-01  1.50000000E+00
  1.50000000E+00  8.00000000E-01  8.00000000E-01  1.50000000E+00  1.50000000E+00
  8.00000000E-01  8.00000000E-01  1.50000000E+00  1.50000000E+00  8.00000000E-01
  8.00000000E-01  1.50000000E+00  1.50000000E+00  8.00000000E-01  8.00000000E-01
  1.50000000E+00  1.50000000E+00  8.00000000E-01  8.00000000E-01  1.50000000E+00
  1.50000000E+00  8.00000000E-01  8.00000000E-01  1.50000000E+00  1.50000000E+00
  8.00000000E-01  8.00000000E-01  1.50000000E+00  1.50000000E+00  8.00000000E-01
  8.00000000E-01  1.50000000E+00  1.50000000E+00  8.00000000E-01  8.00000000E-01
  1.50000000E+00  1.50000000E+00  8.00000000E-01  8.00000000E-01  1.50000000E+00
  1.50000000E+00  8.00000000E-01  8.00000000E-01  1.50000000E+00  1.50000000E+00
  8.00000000E-01  8.00000000E-01  1.50000000E+00  1.50000000E+00  8.00000000E-01
  8.00000000E-01  1.50000000E+00  1.50000000E+00  8.00000000E-01  8.00000000E-01
  1.50000000E+00  1.50000000E+00  8.00000000E-01  8.00000000E-01  1.50000000E+00
  1.50000000E+00  8.00000000E-01  8.00000000E-01  1.50000000E+00  1.50000000E+00
  8.00000000E-01  8.00000000E-01  1.50000000E+00  1.50000000E+00  8.00000000E-01
  8.00000000E-01  1.50000000E+00  1.50000000E+00  8.00000000E-01  8.00000000E-01
  1.50000000E+00  1.50000000E+00  8.00000000E-01  8.00000000E-01  1.50000000E+00
  1.50000000E+00  8.00000000E-01  8.00000000E-01  1.50000000E+00  1.50000000E+00
  8.00000000E-01  8.00000000E-01  1.50000000E+00  1.50000000E+00  8.00000000E-01
  8.00000000E-01  1.50000000E+00  1.50000000E+00  8.00000000E-01  8.00000000E-01
  1.50000000E+00  1.50000000E+00  8.00000000E-01  8.00000000E-01  1.50000000E+00
  1.50000000E+00  8.00000000E-01  8.00000000E-01  1.50000000E+00  1.50000000E+00
  8.00000000E-01  8.00000000E-01  1.50000000E+00  1.50000000E+00  8.00000000E-01
  8.00000000E-01  1.50000000E+00  1.50000000E+00  8.00000000E-01  8.00000000E-01
  1.50000000E+00  1.50000000E+00  8.00000000E-01  8.00000000E-01  1.50000000E+00
  1.50000000E+00  8.00000000E-01  8.00000000E-01  1.50000000E+00  1.50000000E+00
  8.00000000E-01  8.00000000E-01  1.50000000E+00  1.50000000E+00  8.00000000E-01
  8.00000000E-01  1.50000000E+00  1.50000000E+00  8.00000000E-01  8.00000000E-01
  1.50000000E+00  1.50000000E+00  8.00000000E-01  8.00000000E-01  1.50000000E+00
  1.50000000E+00  8.00000000E-01  8.00000000E-01  1.50000000E+00  1.50000000E+00
  8.00000000E-01  8.00000000E-01  1.50000000E+00  1.50000000E+00  8.00000000E-01
  8.00000000E-01  1.50000000E+00  1.50000000E+00  8.00000000E-01  8.00000000E-01
  1.50000000E+00  1.50000000E+00  8.00000000E-01  8.00000000E-01  1.50000000E+00
  1.50000000E+00  8.00000000E-01  8.00000000E-01  1.50000000E+00  1.50000000E+00
  8.00000000E-01  8.00000000E-01  1.50000000E+00  1.50000000E+00  8.00000000E-01
  8.00000000E-01  1.50000000E+00  1.50000000E+00  8.00000000E-01  8.00000000E-01
  1.50000000E+00  1.50000000E+00  8.00000000E-01  8.00000000E-01  1.50000000E+00
  1.50000000E+00  8.00000000E-01  8.00000000E-01  1.50000000E+00  1.50000000E+00
  8.00000000E-01  8.00000000E-01  1.50000000E+00  1.50000000E+00  8.00000000E-01
  8.00000000E-01  1.50000000E+00  1.50000000E+00  8.00000000E-01  8.00000000E-01
  1.50000000E+00  1.50000000E+00  8.00000000E-01  8.00000000E-01  1.50000000E+00
  1.50000000E+00  8.00000000E-01  8.00000000E-01  1.50000000E+00  1.50000000E+00
  8.00000000E-01  8.00000000E-01  1.50000000E+00  1.50000000E+00  8.00000000E-01
  8.00000000E-01  1.50000000E+00  1.50000000E+00  8.00000000E-01  8.00000000E-01
  1.50000000E+00  1.50000000E+00  8.00000000E-01  8.00000000E-01  1.50000000E+00
  1.50000000E+00  8.00000000E-01  8.00000000E-01  1.50000000E+00  1.50000000E+00
  8.00000000E-01  8.00000000E-01  1.50000000E+00  1.50000000E+00  8.00000000E-01
  8.00000000E-01  1.50000000E+00  1.50000000E+00  8.00000000E-01  8.00000000E-01
  1.50000000E+00  1.50000000E+00  8.00000000E-01  8.00000000E-01  1.50000000E+00
  1.50000000E+00  8.00000000E-01  8.00000000E-01  1.50000000E+00  1.50000000E+00
  8.00000000E-01  8.00000000E-01  1.50000000E+00  1.50000000E+00  8.00000000E-01
  8.00000000E-01  1.50000000E+00  1.50000000E+00  8.00000000E-01  8.00000000E-01
  1.50000000E+00  1.50000000E+00  8.00000000E-01  8.00000000E-01  1.50000000E+00
  1.50000000E+00  8.00000000E-01  8.00000000E-01  1.50000000E+00  1.50000000E+00
  8.00000000E-01  8.00000000E-01  1.50000000E+00  1.50000000E+00  8.00000000E-01
  8.00000000E-01  1.50000000E+00  1.50000000E+00  8.00000000E-01  8.00000000E-01
  1.50000000E+00  1.50000000E+00  8.00000000E-01  8.00000000E-01  1.50000000E+00
  1.50000000E+00  8.00000000E-01  8.00000000E-01  1.50000000E+00  1.50000000E+00
  8.00000000E-01  8.00000000E-01  1.50000000E+00  1.50000000E+00  8.00000000E-01
  8.00000000E-01  1.50000000E+00  1.50000000E+00  8.00000000E-01  8.00000000E-01
  1.50000000E+00  1.50000000E+00  8.00000000E-01  8.00000000E-01  1.50000000E+00
  1.50000000E+00  8.00000000E-01  8.00000000E-01  1.50000000E+00  1.50000000E+00
  8.00000000E-01  8.00000000E-01  1.50000000E+00  1.50000000E+00  8.00000000E-01
  8.00000000E-01  1.50000000E+00  1.50000000E+00  8.00000000E-01  8.00000000E-01
  1.50000000E+00  1.50000000E+00  8.00000000E-01  8.00000000E-01  1.50000000E+00
  1.50000000E+00  8.00000000E-01  8.00000000E-01  1.50000000E+00  1.50000000E+00
  8.00000000E-01  8.00000000E-01  1.50000000E+00  1.50000000E+00  8.00000000E-01
  8.00000000E-01  1.50000000E+00  1.50000000E+00  8.00000000E-01  8.00000000E-01
  1.50000000E+00  1.50000000E+00  8.00000000E-01  8.00000000E-01  1.50000000E+00
  1.50000000E+00  8.00000000E-01  8.00000000E-01  1.50000000E+00  1.50000000E+00
  8.00000000E-01  8.00000000E-01  1.50000000E+00  1.50000000E+00  8.00000000E-01
  8.00000000E-01  1.50000000E+00  1.50000000E+00  8.00000000E-01  8.00000000E-01
  1.50000000E+00  1.50000000E+00  8.00000000E-01  8.00000000E-01  1.50000000E+00
  1.50000000E+00  8.00000000E-01  8.00000000E-01  1.50000000E+00  1.50000000E+00
  8.00000000E-01  8.00000000E-01  1.50000000E+00  1.50000000E+00  8.00000000E-01
  8.00000000E-01  1.50000000E+00  1.50000000E+00  8.00000000E-01  8.00000000E-01
  1.50000000E+00  1.50000000E+00  8.00000000E-01  8.00000000E-01  1.50000000E+00
  1.50000000E+00  8.00000000E-01  8.00000000E-01  1.50000000E+00  1.50000000E+00
  8.00000000E-01  8.00000000E-01  1.50000000E+00  1.50000000E+00  8.00000000E-01
  8.00000000E-01  1.50000000E+00  1.50000000E+00  8.00000000E-01  8.00000000E-01
  1.50000000E+00  1.50000000E+00  8.00000000E-01  8.00000000E-01  1.50000000E+00
  1.50000000E+00  8.00000000E-01  8.00000000E-01  1.50000000E+00  1.50000000E+00
  8.00000000E-01  8.00000000E-01  1.50000000E+00  1.50000000E+00  8.00000000E-01
  8.00000000E-01  1.50000000E+00  1.50000000E+00  8.00000000E-01  8.00000000E-01
  1.50000000E+00  1.50000000E+00  8.00000000E-01  8.00000000E-01  1.50000000E+00
  1.50000000E+00  8.00000000E-01  8.00000000E-01  1.50000000E+00  1.50000000E+00
  8.00000000E-01  8.00000000E-01  1.50000000E+00  1.50000000E+00  8.00000000E-01
  8.00000000E-01  1.50000000E+00  1.50000000E+00  8.00000000E-01  8.00000000E-01
  1.50000000E+00  1.50000000E+00  8.00000000E-01  8.00000000E-01  1.50000000E+00
  1.50000000E+00  8.00000000E-01  8.00000000E-01  1.50000000E+00  1.50000000E+00
  8.00000000E-01  8.00000000E-01  1.50000000E+00  1.50000000E+00  8.00000000E-01
  8.00000000E-01  1.50000000E+00  1.50000000E+00  8.00000000E-01  8.00000000E-01
  1.50000000E+00  1.50000000E+00  8.00000000E-01  8.00000000E-01  1.50000000E+00
  1.50000000E+00  8.00000000E-01  8.00000000E-01  1.50000000E+00  1.50000000E+00
  8.00000000E-01  8.00000000E-01  1.50000000E+00  1.50000000E+00  8.00000000E-01
  8.00000000E-01  1.50000000E+00  1.50000000E+00  8.00000000E-01  8.00000000E-01
  1.50000000E+00  1.50000000E+00  8.00000000E-01  8.00000000E-01  1.50000000E+00
  1.50000000E+00  8.00000000E-01  8.00000000E-01  1.50000000E+00  1.50000000E+00
  8.00000000E-01  8.00000000E-01  1.50000000E+00  1.50000000E+00  8.00000000E-01
  8.00000000E-01  1.50000000E+00  1.50000000E+00  8.00000000E-01  8.00000000E-01
  1.50000000E+00  1.50000000E+00  8.00000000E-01  8.00000000E-01  1.50000000E+00
  1.50000000E+00  8.00000000E-01  8.00000000E-01  1.50000000E+00  1.50000000E+00
  8.00000000E-01  8.00000000E-01  1.50000000E+00  1.50000000E+00  8.00000000E-01
  8.00000000E-01  1.50000000E+00  1.50000000E+00  8.00000000E-01  8.00000000E-01
  1.50000000E+00  1.50000000E+00  8.00000000E-01  8.00000000E-01  1.50000000E+00
  1.50000000E+00  8.00000000E-01  8.00000000E-01  1.50000000E+00  1.50000000E+00
  8.00000000E-01  8.00000000E-01  1.50000000E+00  1.50000000E+00  8.00000000E-01
  8.00000000E-01  1.50000000E+00  1.50000000E+00  8.00000000E-01  8.00000000E-01
  1.50000000E+00  1.50000000E+00  8.00000000E-01  8.00000000E-01  1.50000000E+00
  1.50000000E+00  8.00000000E-01  8.00000000E-01  1.50000000E+00  1.50000000E+00
  8.00000000E-01  8.00000000E-01  1.50000000E+00  1.50000000E+00  8.00000000E-01
  8.00000000E-01  1.50000000E+00  1.50000000E+00  8.00000000E-01  8.00000000E-01
  1.50000000E+00  1.50000000E+00  8.00000000E-01  8.00000000E-01  1.50000000E+00
  1.50000000E+00  8.00000000E-01  8.00000000E-01  1.50000000E+00  1.50000000E+00
  8.00000000E-01  8.00000000E-01  1.50000000E+00  1.50000000E+00  8.00000000E-01
  8.00000000E-01  1.50000000E+00  1.50000000E+00  8.00000000E-01  8.00000000E-01
  1.50000000E+00  1.50000000E+00  8.00000000E-01  8.00000000E-01  1.50000000E+00
  1.50000000E+00  8.00000000E-01  8.00000000E-01  1.50000000E+00  1.50000000E+00
  8.00000000E-01  8.00000000E-01  1.50000000E+00  1.50000000E+00  8.00000000E-01
  8.00000000E-01  1.50000000E+00  1.50000000E+00  8.00000000E-01  8.00000000E-01
  1.50000000E+00  1.50000000E+00  8.00000000E-01  8.00000000E-01  1.50000000E+00
  1.50000000E+00  8.00000000E-01  8.00000000E-01  1.50000000E+00  1.50000000E+00
  8.00000000E-01  8.00000000E-01  1.50000000E+00  1.50000000E+00  8.00000000E-01
  8.00000000E-01  1.50000000E+00  1.50000000E+00  8.00000000E-01  8.00000000E-01
  1.50000000E+00  1.50000000E+00  8.00000000E-01  8.00000000E-01  1.50000000E+00
  1.50000000E+00  8.00000000E-01  8.00000000E-01  1.50000000E+00  1.50000000E+00
  8.00000000E-01  8.00000000E-01  1.50000000E+00  1.50000000E+00  8.00000000E-01
  8.00000000E-01  1.50000000E+00  1.50000000E+00  8.00000000E-01  8.00000000E-01
  1.50000000E+00  1.50000000E+00  8.00000000E-01  8.00000000E-01  1.50000000E+00
  1.50000000E+00  8.00000000E-01  8.00000000E-01  1.50000000E+00  1.50000000E+00
  8.00000000E-01  8.00000000E-01  1.50000000E+00  1.50000000E+00  8.00000000E-01
  8.00000000E-01  1.50000000E+00  1.50000000E+00  8.00000000E-01  8.00000000E-01
  1.50000000E+00  1.50000000E+00  8.00000000E-01  8.00000000E-01  1.50000000E+00
  1.50000000E+00  8.00000000E-01  8.00000000E-01  1.50000000E+00  1.50000000E+00
  8.00000000E-01  8.00000000E-01  1.50000000E+00  1.50000000E+00  8.00000000E-01
  8.00000000E-01  1.50000000E+00  1.50000000E+00  8.00000000E-01  8.00000000E-01
  1.50000000E+00  1.50000000E+00  8.00000000E-01  8.00000000E-01  1.50000000E+00
  1.50000000E+00  8.00000000E-01  8.00000000E-01  1.50000000E+00  1.50000000E+00
  8.00000000E-01  8.00000000E-01  1.50000000E+00  1.50000000E+00  8.00000000E-01
  8.00000000E-01  1.50000000E+00  1.50000000E+00  8.00000000E-01  8.00000000E-01
  1.50000000E+00  1.50000000E+00  8.00000000E-01  8.00000000E-01  1.50000000E+00
  1.50000000E+00  8.00000000E-01  8.00000000E-01  1.50000000E+00  1.50000000E+00
  8.00000000E-01  8.00000000E-01  1.50000000E+00  1.50000000E+00  8.00000000E-01
  8.00000000E-01  1.50000000E+00  1.50000000E+00  8.00000000E-01  8.00000000E-01
  1.50000000E+00  1.50000000E+00  8.00000000E-01  8.00000000E-01  1.50000000E+00
  1.50000000E+00  8.00000000E-01  8.00000000E-01  1.50000000E+00  1.50000000E+00
  8.00000000E-01  8.00000000E-01  1.50000000E+00  1.50000000E+00  8.00000000E-01
  8.00000000E-01  1.50000000E+00  1.50000000E+00  8.00000000E-01  8.00000000E-01
  1.50000000E+00  1.50000000E+00  8.00000000E-01  8.00000000E-01  1.50000000E+00
  1.50000000E+00  8.00000000E-01  8.00000000E-01  1.50000000E+00  1.50000000E+00
  8.00000000E-01  8.00000000E-01  1.50000000E+00  1.50000000E+00  8.00000000E-01
  8.00000000E-01  1.50000000E+00  1.50000000E+00  8.00000000E-01  8.00000000E-01
  1.50000000E+00  1.50000000E+00  8.00000000E-01  8.00000000E-01  1.50000000E+00
  1.50000000E+00  8.00000000E-01  8.00000000E-01  1.50000000E+00  1.50000000E+00
  8.00000000E-01  8.00000000E-01  1.50000000E+00  1.50000000E+00  8.00000000E-01
  8.00000000E-01  1.50000000E+00  1.50000000E+00  8.00000000E-01  8.00000000E-01
  1.50000000E+00  1.50000000E+00  8.00000000E-01  8.00000000E-01  1.50000000E+00
  1.50000000E+00  8.00000000E-01  8.00000000E-01  1.50000000E+00  1.50000000E+00
  8.00000000E-01  8.00000000E-01  1.50000000E+00  1.50000000E+00  8.00000000E-01
  8.00000000E-01  1.50000000E+00  1.50000000E+00  8.00000000E-01  8.00000000E-01
  1.50000000E+00  1.50000000E+00  8.00000000E-01  8.00000000E-01  1.50000000E+00
  1.50000000E+00  8.00000000E-01  8.00000000E-01  1.50000000E+00  1.50000000E+00
  8.00000000E-01  8.00000000E-01  1.50000000E+00  1.50000000E+00  8.00000000E-01
  8.00000000E-01  1.50000000E+00  1.50000000E+00  8.00000000E-01  8.00000000E-01
  1.50000000E+00  1.50000000E+00  8.00000000E-01  8.00000000E-01  1.50000000E+00
  1.50000000E+00  8.00000000E-01  8.00000000E-01  1.50000000E+00  1.50000000E+00
  8.00000000E-01  8.00000000E-01  1.50000000E+00  1.50000000E+00  8.00000000E-01
  8.00000000E-01  1.50000000E+00  1.50000000E+00  8.00000000E-01  8.00000000E-01
  1.50000000E+00  1.50000000E+00  8.00000000E-01  8.00000000E-01  1.50000000E+00
  1.50000000E+00  8.00000000E-01  8.00000000E-01  1.50000000E+00  1.50000000E+00
  8.00000000E-01  8.00000000E-01  1.50000000E+00  1.50000000E+00  8.00000000E-01
  8.00000000E-01  1.50000000E+00  1.50000000E+00  8.00000000E-01  8.00000000E-01
  1.50000000E+00  1.50000000E+00  8.00000000E-01  8.00000000E-01  1.50000000E+00
  1.50000000E+00  8.00000000E-01  8.00000000E-01  1.50000000E+00  1.50000000E+00
  8.00000000E-01  8.00000000E-01  1.50000000E+00  1.50000000E+00  8.00000000E-01
  8.00000000E-01  1.50000000E+00  1.50000000E+00  8.00000000E-01  8.00000000E-01
  1.50000000E+00  1.50000000E+00  8.00000000E-01  8.00000000E-01  1.50000000E+00
  1.50000000E+00  8.00000000E-01  8.00000000E-01  1.50000000E+00  1.50000000E+00
  8.00000000E-01  8.00000000E-01  1.50000000E+00  1.50000000E+00  8.00000000E-01
  8.00000000E-01  1.50000000E+00  1.50000000E+00  8.00000000E-01  8.00000000E-01
  1.50000000E+00  1.50000000E+00  8.00000000E-01  8.00000000E-01  1.50000000E+00
  1.50000000E+00  8.00000000E-01  8.00000000E-01  1.50000000E+00  1.50000000E+00
  8.00000000E-01  8.00000000E-01  1.50000000E+00  1.50000000E+00  8.00000000E-01
  8.00000000E-01  1.50000000E+00  1.50000000E+00  8.00000000E-01  8.00000000E-01
  1.50000000E+00  1.50000000E+00  8.00000000E-01  8.00000000E-01  1.50000000E+00
  1.50000000E+00  8.00000000E-01  8.00000000E-01  1.50000000E+00  1.50000000E+00
  8.00000000E-01  8.00000000E-01  1.50000000E+00  1.50000000E+00  8.00000000E-01
  8.00000000E-01  1.50000000E+00  1.50000000E+00  8.00000000E-01  8.00000000E-01
  1.50000000E+00  1.50000000E+00  8.00000000E-01  8.00000000E-01  1.50000000E+00
  1.50000000E+00  8.00000000E-01  8.00000000E-01  1.50000000E+00  1.50000000E+00
  8.00000000E-01  8.00000000E-01  1.50000000E+00  1.50000000E+00  8.00000000E-01
  8.00000000E-01  1.50000000E+00  1.50000000E+00  8.00000000E-01  8.00000000E-01
  1.50000000E+00  1.50000000E+00  8.00000000E-01  8.00000000E-01  1.50000000E+00
  1.50000000E+00  8.00000000E-01  8.00000000E-01  1.50000000E+00  1.50000000E+00
  8.00000000E-01  8.00000000E-01  1.50000000E+00  1.50000000E+00  8.00000000E-01
  8.00000000E-01  1.50000000E+00  1.50000000E+00  8.00000000E-01  8.00000000E-01
  1.50000000E+00  1.50000000E+00  8.00000000E-01  8.00000000E-01  1.50000000E+00
  1.50000000E+00  8.00000000E-01  8.00000000E-01  1.50000000E+00  1.50000000E+00
  8.00000000E-01  8.00000000E-01  1.50000000E+00  1.50000000E+00  8.00000000E-01
  8.00000000E-01  1.50000000E+00  1.50000000E+00  8.00000000E-01  8.00000000E-01
  1.50000000E+00  1.50000000E+00  8.00000000E-01  8.00000000E-01  1.50000000E+00
  1.50000000E+00  8.00000000E-01  8.00000000E-01  1.50000000E+00  1.50000000E+00
  8.00000000E-01  8.00000000E-01  1.50000000E+00  1.50000000E+00  8.00000000E-01
  8.00000000E-01  1.50000000E+00  1.50000000E+00  8.00000000E-01  8.00000000E-01
  1.50000000E+00  1.50000000E+00  8.00000000E-01  8.00000000E-01  1.50000000E+00
  1.50000000E+00  8.00000000E-01  8.00000000E-01  1.50000000E+00  1.50000000E+00
  8.00000000E-01  8.00000000E-01  1.50000000E+00  1.50000000E+00  8.00000000E-01
  8.00000000E-01  1.50000000E+00  1.50000000E+00  8.00000000E-01  8.00000000E-01
  1.50000000E+00  1.50000000E+00  8.00000000E-01  8.00000000E-01  1.50000000E+00
  1.50000000E+00  8.00000000E-01  8.00000000E-01  1.50000000E+00  1.50000000E+00
  8.00000000E-01  8.00000000E-01  1.50000000E+00  1.50000000E+00  8.00000000E-01
  8.00000000E-01  1.50000000E+00  1.50000000E+00  8.00000000E-01  8.00000000E-01
  1.50000000E+00  1.50000000E+00  8.00000000E-01  8.00000000E-01  1.50000000E+00
  1.50000000E+00  8.00000000E-01  8.00000000E-01  1.50000000E+00  1.50000000E+00
  8.00000000E-01  8.00000000E-01  1.50000000E+00  1.50000000E+00  8.00000000E-01
  8.00000000E-01  1.50000000E+00  1.50000000E+00  8.00000000E-01  8.00000000E-01
  1.50000000E+00  1.50000000E+00  8.00000000E-01  8.00000000E-01  1.50000000E+00
  1.50000000E+00  8.00000000E-01  8.00000000E-01  1.50000000E+00  1.50000000E+00
  8.00000000E-01  8.00000000E-01  1.50000000E+00  1.50000000E+00  8.00000000E-01
  8.00000000E-01  1.50000000E+00  1.50000000E+00  8.00000000E-01  8.00000000E-01
  1.50000000E+00  1.50000000E+00  8.00000000E-01  8.00000000E-01  1.50000000E+00
  1.50000000E+00  8.00000000E-01  8.00000000E-01  1.50000000E+00  1.50000000E+00
  8.00000000E-01  8.00000000E-01  1.50000000E+00  1.50000000E+00  8.00000000E-01
  8.00000000E-01  1.50000000E+00  1.50000000E+00  8.00000000E-01  8.00000000E-01
  1.50000000E+00  1.50000000E+00  8.00000000E-01  8.00000000E-01  1.50000000E+00
  1.50000000E+00  8.00000000E-01  8.00000000E-01  1.50000000E+00  1.50000000E+00
  8.00000000E-01  8.00000000E-01  1.50000000E+00  1.50000000E+00  8.00000000E-01
  8.00000000E-01  1.50000000E+00  1.50000000E+00  8.00000000E-01  8.00000000E-01
  1.50000000E+00  1.50000000E+00  8.00000000E-01  8.00000000E-01  1.50000000E+00
  1.50000000E+00  8.00000000E-01  8.00000000E-01  1.50000000E+00  1.50000000E+00
  8.00000000E-01  8.00000000E-01  1.50000000E+00  1.50000000E+00  8.00000000E-01
  8.00000000E-01  1.50000000E+00  1.50000000E+00  8.00000000E-01  8.00000000E-01
  1.50000000E+00  1.50000000E+00  8.00000000E-01  8.00000000E-01  1.50000000E+00
  1.50000000E+00  8.00000000E-01  8.00000000E-01  1.50000000E+00  1.50000000E+00
  8.00000000E-01  8.00000000E-01  1.50000000E+00  1.50000000E+00  8.00000000E-01
  8.00000000E-01  1.50000000E+00  1.50000000E+00  8.00000000E-01  8.00000000E-01
  1.50000000E+00  1.50000000E+00  8.00000000E-01  8.00000000E-01  1.50000000E+00
  1.50000000E+00  8.00000000E-01  8.00000000E-01  1.50000000E+00  1.50000000E+00
  8.00000000E-01  8.00000000E-01  1.50000000E+00  1.50000000E+00  8.00000000E-01
  8.00000000E-01  1.50000000E+00  1.50000000E+00  8.00000000E-01  8.00000000E-01
  1.50000000E+00  1.50000000E+00  8.00000000E-01  8.00000000E-01  1.50000000E+00
  1.50000000E+00  8.00000000E-01  8.00000000E-01  1.50000000E+00  1.50000000E+00
  8.00000000E-01  8.00000000E-01  1.50000000E+00  1.50000000E+00  8.00000000E-01
  8.00000000E-01  1.50000000E+00  1.50000000E+00  8.00000000E-01  8.00000000E-01
  1.50000000E+00  1.50000000E+00  8.00000000E-01  8.00000000E-01  1.50000000E+00
  1.50000000E+00  8.00000000E-01  8.00000000E-01  1.50000000E+00  1.50000000E+00
  8.00000000E-01  8.00000000E-01  1.50000000E+00  1.50000000E+00  8.00000000E-01
  8.00000000E-01  1.50000000E+00  1.50000000E+00  8.00000000E-01  8.00000000E-01
  1.50000000E+00  1.50000000E+00  8.00000000E-01  8.00000000E-01  1.50000000E+00
  1.50000000E+00  8.00000000E-01  8.00000000E-01  1.50000000E+00  1.50000000E+00
  8.00000000E-01  8.00000000E-01  1.50000000E+00  1.50000000E+00  8.00000000E-01
  8.00000000E-01  1.50000000E+00  1.50000000E+00  8.00000000E-01  8.00000000E-01
  1.50000000E+00  1.50000000E+00  8.00000000E-01  8.00000000E-01  1.50000000E+00
  1.50000000E+00  8.00000000E-01  8.00000000E-01  1.50000000E+00  1.50000000E+00
  8.00000000E-01  8.00000000E-01  1.50000000E+00  1.50000000E+00  8.00000000E-01
  8.00000000E-01  1.50000000E+00  1.50000000E+00  8.00000000E-01  8.00000000E-01
  1.50000000E+00  1.50000000E+00  8.00000000E-01  8.00000000E-01  1.50000000E+00
  1.50000000E+00  8.00000000E-01  8.00000000E-01  1.50000000E+00  1.50000000E+00
  8.00000000E-01  8.00000000E-01  1.50000000E+00  1.50000000E+00  8.00000000E-01
  8.00000000E-01  1.50000000E+00  1.50000000E+00  8.00000000E-01  8.00000000E-01
  1.50000000E+00  1.50000000E+00  8.00000000E-01  8.00000000E-01  1.50000000E+00
  1.50000000E+00  8.00000000E-01  8.00000000E-01  1.50000000E+00  1.50000000E+00
  8.00000000E-01  8.00000000E-01  1.50000000E+00  1.50000000E+00  8.00000000E-01
  8.00000000E-01  1.50000000E+00  1.50000000E+00  8.00000000E-01  8.00000000E-01
  1.50000000E+00  1.50000000E+00  8.00000000E-01  8.00000000E-01  1.50000000E+00
  1.50000000E+00  8.00000000E-01  8.00000000E-01  1.50000000E+00  1.50000000E+00
  8.00000000E-01  8.00000000E-01  1.50000000E+00  1.50000000E+00  8.00000000E-01
  8.00000000E-01  1.50000000E+00  1.50000000E+00  8.00000000E-01  8.00000000E-01
  1.50000000E+00  1.50000000E+00  8.00000000E-01  8.00000000E-01  1.50000000E+00
  1.50000000E+00  8.00000000E-01  8.00000000E-01  1.50000000E+00  1.50000000E+00
  8.00000000E-01  8.00000000E-01  1.50000000E+00  1.50000000E+00  8.00000000E-01
  8.00000000E-01  1.50000000E+00  1.50000000E+00  8.00000000E-01  8.00000000E-01
  1.50000000E+00  1.50000000E+00  8.00000000E-01  8.00000000E-01  1.50000000E+00
  1.50000000E+00  8.00000000E-01  8.00000000E-01  1.50000000E+00  1.50000000E+00
  8.00000000E-01  8.00000000E-01  1.50000000E+00  1.50000000E+00  8.00000000E-01
  8.00000000E-01  1.50000000E+00  1.50000000E+00  8.00000000E-01  8.00000000E-01
  1.50000000E+00  1.50000000E+00  8.00000000E-01  8.00000000E-01  1.50000000E+00
  1.50000000E+00  8.00000000E-01  8.00000000E-01  1.50000000E+00  1.50000000E+00
  8.00000000E-01  8.00000000E-01  1.50000000E+00  1.50000000E+00  8.00000000E-01
  8.00000000E-01  1.50000000E+00  1.50000000E+00  8.00000000E-01  8.00000000E-01
  1.50000000E+00  1.50000000E+00  8.00000000E-01  8.00000000E-01  1.50000000E+00
  1.50000000E+00  8.00000000E-01  8.00000000E-01  1.50000000E+00  1.50000000E+00
  8.00000000E-01  8.00000000E-01  1.50000000E+00  1.50000000E+00  8.00000000E-01
  8.00000000E-01  1.50000000E+00  1.50000000E+00  8.00000000E-01  8.00000000E-01
  1.50000000E+00  1.50000000E+00  8.00000000E-01  8.00000000E-01  1.50000000E+00
  1.50000000E+00  8.00000000E-01  8.00000000E-01  1.50000000E+00  1.50000000E+00
  8.00000000E-01  8.00000000E-01  1.50000000E+00  1.50000000E+00  8.00000000E-01
  8.00000000E-01  1.50000000E+00  1.50000000E+00  8.00000000E-01  8.00000000E-01
  1.50000000E+00  1.50000000E+00  8.00000000E-01  8.00000000E-01  1.50000000E+00
  1.50000000E+00  8.00000000E-01  8.00000000E-01  1.50000000E+00  1.50000000E+00
  8.00000000E-01  8.00000000E-01  1.50000000E+00  1.50000000E+00  8.00000000E-01
  8.00000000E-01  1.50000000E+00  1.50000000E+00  8.00000000E-01  8.00000000E-01
  1.50000000E+00  1.50000000E+00  8.00000000E-01  8.00000000E-01  1.50000000E+00
  1.50000000E+00  8.00000000E-01  8.00000000E-01  1.50000000E+00  1.50000000E+00
  8.00000000E-01  8.00000000E-01  1.50000000E+00  1.50000000E+00  8.00000000E-01
  8.00000000E-01  1.50000000E+00  1.50000000E+00  8.00000000E-01  8.00000000E-01
  1.50000000E+00  1.50000000E+00  8.00000000E-01  8.00000000E-01  1.50000000E+00
  1.50000000E+00  8.00000000E-01  8.00000000E-01  1.50000000E+00  1.50000000E+00
  8.00000000E-01  8.00000000E-01  1.50000000E+00  1.50000000E+00  8.00000000E-01
  8.00000000E-01  1.50000000E+00  1.50000000E+00  8.00000000E-01  8.00000000E-01
  1.50000000E+00  1.50000000E+00  8.00000000E-01  8.00000000E-01  1.50000000E+00
  1.50000000E+00  8.00000000E-01  8.00000000E-01  1.50000000E+00  1.50000000E+00
  8.00000000E-01  8.00000000E-01  1.50000000E+00  1.50000000E+00  8.00000000E-01
  8.00000000E-01  1.50000000E+00  1.50000000E+00  8.00000000E-01  8.00000000E-01
  1.50000000E+00  1.50000000E+00  8.00000000E-01  8.00000000E-01  1.50000000E+00
  1.50000000E+00  8.00000000E-01  8.00000000E-01  1.50000000E+00  1.50000000E+00
  8.00000000E-01  8.00000000E-01  1.50000000E+00  1.50000000E+00  8.00000000E-01
  8.00000000E-01  1.50000000E+00  1.50000000E+00  8.00000000E-01  8.00000000E-01
  1.50000000E+00  1.50000000E+00  8.00000000E-01  8.00000000E-01  1.50000000E+00
  1.50000000E+00  8.00000000E-01  8.00000000E-01  1.50000000E+00  1.50000000E+00
  8.00000000E-01  8.00000000E-01  1.50000000E+00  1.50000000E+00  8.00000000E-01
  8.00000000E-01  1.50000000E+00  1.50000000E+00  8.00000000E-01  8.00000000E-01
  1.50000000E+00  1.50000000E+00  8.00000000E-01  8.00000000E-01  1.50000000E+00
  1.50000000E+00  8.00000000E-01  8.00000000E-01  1.50000000E+00  1.50000000E+00
  8.00000000E-01  8.00000000E-01  1.50000000E+00  1.50000000E+00  8.00000000E-01
  8.00000000E-01  1.50000000E+00  1.50000000E+00  8.00000000E-01  8.00000000E-01
  1.50000000E+00  1.50000000E+00  8.00000000E-01  8.00000000E-01  1.50000000E+00
  1.50000000E+00  8.00000000E-01  8.00000000E-01  1.50000000E+00  1.50000000E+00
  8.00000000E-01  8.00000000E-01  1.50000000E+00  1.50000000E+00  8.00000000E-01
  8.00000000E-01  1.50000000E+00  1.50000000E+00  8.00000000E-01  8.00000000E-01
  1.50000000E+00  1.50000000E+00  8.00000000E-01  8.00000000E-01  1.50000000E+00
  1.50000000E+00  8.00000000E-01  8.00000000E-01  1.50000000E+00  1.50000000E+00
  8.00000000E-01  8.00000000E-01  1.50000000E+00  1.50000000E+00  8.00000000E-01
  8.00000000E-01  1.50000000E+00  1.50000000E+00  8.00000000E-01  8.00000000E-01
  1.50000000E+00  1.50000000E+00  8.00000000E-01  8.00000000E-01  1.50000000E+00
  1.50000000E+00  8.00000000E-01  8.00000000E-01  1.50000000E+00  1.50000000E+00
  8.00000000E-01  8.00000000E-01  1.50000000E+00  1.50000000E+00  8.00000000E-01
  8.00000000E-01  1.50000000E+00  1.50000000E+00  8.00000000E-01  8.00000000E-01
  1.50000000E+00  1.50000000E+00  8.00000000E-01  8.00000000E-01  1.50000000E+00
  1.50000000E+00  8.00000000E-01  8.00000000E-01  1.50000000E+00  1.50000000E+00
  8.00000000E-01  8.00000000E-01  1.50000000E+00  1.50000000E+00  8.00000000E-01
  8.00000000E-01  1.50000000E+00  1.50000000E+00  8.00000000E-01  8.00000000E-01
  1.50000000E+00  1.50000000E+00  8.00000000E-01  8.00000000E-01  1.50000000E+00
  1.50000000E+00  8.00000000E-01  8.00000000E-01  1.50000000E+00  1.50000000E+00
  8.00000000E-01  8.00000000E-01  1.50000000E+00  1.50000000E+00  8.00000000E-01
  8.00000000E-01  1.50000000E+00  1.50000000E+00  8.00000000E-01  8.00000000E-01
  1.50000000E+00  1.50000000E+00  8.00000000E-01  8.00000000E-01  1.50000000E+00
  1.50000000E+00  8.00000000E-01  8.00000000E-01  1.50000000E+00  1.50000000E+00
  8.00000000E-01  8.00000000E-01  1.50000000E+00  1.50000000E+00  8.00000000E-01
  8.00000000E-01  1.50000000E+00  1.50000000E+00  8.00000000E-01  8.00000000E-01
  1.50000000E+00  1.50000000E+00  8.00000000E-01  8.00000000E-01  1.50000000E+00
  1.50000000E+00  8.00000000E-01  8.00000000E-01  1.50000000E+00  1.50000000E+00
  8.00000000E-01  8.00000000E-01  1.50000000E+00  1.50000000E+00  8.00000000E-01
  8.00000000E-01  1.50000000E+00  1.50000000E+00  8.00000000E-01  8.00000000E-01
  1.50000000E+00  1.50000000E+00  8.00000000E-01  8.00000000E-01  1.50000000E+00
  1.50000000E+00  8.00000000E-01  8.00000000E-01  1.50000000E+00  1.50000000E+00
  8.00000000E-01  8.00000000E-01  1.50000000E+00  1.50000000E+00  8.00000000E-01
  8.00000000E-01  1.50000000E+00  1.50000000E+00  8.00000000E-01  8.00000000E-01
  1.50000000E+00  1.50000000E+00  8.00000000E-01  8.00000000E-01  1.50000000E+00
  1.50000000E+00  8.00000000E-01  8.00000000E-01  1.50000000E+00  1.50000000E+00
  8.00000000E-01  8.00000000E-01  1.50000000E+00  1.50000000E+00  8.00000000E-01
  8.00000000E-01  1.50000000E+00  1.50000000E+00  8.00000000E-01  8.00000000E-01
  1.50000000E+00  1.50000000E+00  8.00000000E-01  8.00000000E-01  1.50000000E+00
  1.50000000E+00  8.00000000E-01  8.00000000E-01  1.50000000E+00  1.50000000E+00
  8.00000000E-01  8.00000000E-01  1.50000000E+00  1.50000000E+00  8.00000000E-01
  8.00000000E-01  1.50000000E+00  1.50000000E+00  8.00000000E-01  8.00000000E-01
  1.50000000E+00  1.50000000E+00  8.00000000E-01  8.00000000E-01  1.50000000E+00
  1.50000000E+00  8.00000000E-01  8.00000000E-01  1.50000000E+00  1.50000000E+00
  8.00000000E-01  8.00000000E-01  1.50000000E+00  1.50000000E+00  8.00000000E-01
  8.00000000E-01  1.50000000E+00  1.50000000E+00  8.00000000E-01  8.00000000E-01
  1.50000000E+00  1.50000000E+00  8.00000000E-01  8.00000000E-01  1.50000000E+00
  1.50000000E+00  8.00000000E-01  8.00000000E-01  1.50000000E+00  1.50000000E+00
  8.00000000E-01  8.00000000E-01  1.50000000E+00  1.50000000E+00  8.00000000E-01
  8.00000000E-01  1.50000000E+00  1.50000000E+00  8.00000000E-01  8.00000000E-01
  1.50000000E+00  1.50000000E+00  8.00000000E-01  8.00000000E-01  1.50000000E+00
  1.50000000E+00  8.00000000E-01  8.00000000E-01  1.50000000E+00  1.50000000E+00
  8.00000000E-01  8.00000000E-01  1.50000000E+00  1.50000000E+00  8.00000000E-01
  8.00000000E-01  1.50000000E+00  1.50000000E+00  8.00000000E-01  8.00000000E-01
  1.50000000E+00  1.50000000E+00  8.00000000E-01  8.00000000E-01  1.50000000E+00
  1.50000000E+00  8.00000000E-01  8.00000000E-01  1.50000000E+00  1.50000000E+00
  8.00000000E-01  8.00000000E-01  1.50000000E+00  1.50000000E+00  8.00000000E-01
  8.00000000E-01  1.50000000E+00  1.50000000E+00  8.00000000E-01  8.00000000E-01
  1.50000000E+00  1.50000000E+00  8.00000000E-01  8.00000000E-01  1.50000000E+00
  1.50000000E+00  8.00000000E-01  8.00000000E-01  1.50000000E+00  1.50000000E+00
  8.00000000E-01  8.00000000E-01  1.50000000E+00  1.50000000E+00  8.00000000E-01
  8.00000000E-01  1.50000000E+00  1.50000000E+00  8.00000000E-01  8.00000000E-01
  1.50000000E+00  1.50000000E+00  8.00000000E-01  8.00000000E-01  1.50000000E+00
  1.50000000E+00  8.00000000E-01  8.00000000E-01  1.50000000E+00  1.50000000E+00
  8.00000000E-01  8.00000000E-01  1.50000000E+00  1.50000000E+00  8.00000000E-01
  8.00000000E-01  1.50000000E+00  1.50000000E+00  8.00000000E-01  8.00000000E-01
  1.50000000E+00  1.50000000E+00  8.00000000E-01  8.00000000E-01  1.50000000E+00
  1.50000000E+00  8.00000000E-01  8.00000000E-01  1.50000000E+00  1.50000000E+00
  8.00000000E-01  8.00000000E-01  1.50000000E+00  1.50000000E+00  8.00000000E-01
  8.00000000E-01  1.50000000E+00  1.50000000E+00  8.00000000E-01  8.00000000E-01
  1.50000000E+00  1.50000000E+00  8.00000000E-01  8.00000000E-01  1.50000000E+00
  1.50000000E+00  8.00000000E-01  8.00000000E-01  1.50000000E+00  1.50000000E+00
  8.00000000E-01  8.00000000E-01  1.50000000E+00  1.50000000E+00  8.00000000E-01
  8.00000000E-01  1.50000000E+00  1.50000000E+00  8.00000000E-01  8.00000000E-01
  1.50000000E+00  1.50000000E+00  8.00000000E-01  8.00000000E-01  1.50000000E+00
  1.50000000E+00  8.00000000E-01  8.00000000E-01  1.50000000E+00  1.50000000E+00
  8.00000000E-01  8.00000000E-01  1.50000000E+00  1.50000000E+00  8.00000000E-01
  8.00000000E-01  1.50000000E+00  1.50000000E+00  8.00000000E-01  8.00000000E-01
  1.50000000E+00  1.50000000E+00  8.00000000E-01  8.00000000E-01  1.50000000E+00
  1.50000000E+00  8.00000000E-01  8.00000000E-01  1.50000000E+00  1.50000000E+00
  8.00000000E-01  8.00000000E-01  1.50000000E+00  1.50000000E+00  8.00000000E-01
  8.00000000E-01  1.50000000E+00  1.50000000E+00  8.00000000E-01  8.00000000E-01
  1.50000000E+00  1.50000000E+00  8.00000000E-01  8.00000000E-01  1.50000000E+00
  1.50000000E+00  8.00000000E-01  8.00000000E-01  1.50000000E+00  1.50000000E+00
  8.00000000E-01  8.00000000E-01  1.50000000E+00  1.50000000E+00  8.00000000E-01
  8.00000000E-01  1.50000000E+00  1.50000000E+00  8.00000000E-01  8.00000000E-01
  1.50000000E+00  1.50000000E+00  8.00000000E-01  8.00000000E-01  1.50000000E+00
  1.50000000E+00  8.00000000E-01  8.00000000E-01  1.50000000E+00  1.50000000E+00
  8.00000000E-01  8.00000000E-01  1.50000000E+00  1.50000000E+00  8.00000000E-01
  8.00000000E-01  1.50000000E+00  1.50000000E+00  8.00000000E-01  8.00000000E-01
  1.50000000E+00  1.50000000E+00  8.00000000E-01  8.00000000E-01  1.50000000E+00
  1.50000000E+00  8.00000000E-01  8.00000000E-01  1.50000000E+00  1.50000000E+00
  8.00000000E-01  8.00000000E-01  1.50000000E+00  1.50000000E+00  8.00000000E-01
  8.00000000E-01  1.50000000E+00  1.50000000E+00  8.00000000E-01  8.00000000E-01
  1.50000000E+00  1.50000000E+00  8.00000000E-01  8.00000000E-01  1.50000000E+00
  1.50000000E+00  8.00000000E-01  8.00000000E-01  1.50000000E+00  1.50000000E+00
  8.00000000E-01  8.00000000E-01  1.50000000E+00  1.50000000E+00  8.00000000E-01
  8.00000000E-01  1.50000000E+00  1.50000000E+00  8.00000000E-01  8.00000000E-01
  1.50000000E+00  1.50000000E+00  8.00000000E-01  8.00000000E-01  1.50000000E+00
  1.50000000E+00  8.00000000E-01  8.00000000E-01  1.50000000E+00  1.50000000E+00
  8.00000000E-01  8.00000000E-01  1.50000000E+00  1.50000000E+00  8.00000000E-01
  8.00000000E-01  1.50000000E+00  1.50000000E+00  8.00000000E-01  8.00000000E-01
  1.50000000E+00  1.50000000E+00  8.00000000E-01  8.00000000E-01  1.50000000E+00
  1.50000000E+00  8.00000000E-01  8.00000000E-01  1.50000000E+00  1.50000000E+00
  8.00000000E-01  8.00000000E-01  1.50000000E+00  1.50000000E+00  8.00000000E-01
  8.00000000E-01  1.50000000E+00  1.50000000E+00  8.00000000E-01  8.00000000E-01
  1.50000000E+00  1.50000000E+00  8.00000000E-01  8.00000000E-01  1.50000000E+00
  1.50000000E+00  8.00000000E-01  8.00000000E-01  1.50000000E+00  1.50000000E+00
  8.00000000E-01  8.00000000E-01  1.50000000E+00  1.50000000E+00  8.00000000E-01
  8.00000000E-01  1.50000000E+00  1.50000000E+00  8.00000000E-01  8.00000000E-01
  1.50000000E+00  1.50000000E+00  8.00000000E-01  8.00000000E-01  1.50000000E+00
  1.50000000E+00  8.00000000E-01  8.00000000E-01  1.50000000E+00  1.50000000E+00
  8.00000000E-01  8.00000000E-01  1.50000000E+00  1.50000000E+00  8.00000000E-01
  8.00000000E-01  1.50000000E+00  1.50000000E+00  8.00000000E-01  8.00000000E-01
  1.50000000E+00  1.50000000E+00  8.00000000E-01  8.00000000E-01  1.50000000E+00
  1.50000000E+00  8.00000000E-01  8.00000000E-01  1.50000000E+00  1.50000000E+00
  8.00000000E-01  8.00000000E-01  1.50000000E+00  1.50000000E+00  8.00000000E-01
  8.00000000E-01  1.50000000E+00  1.50000000E+00  8.00000000E-01  8.00000000E-01
  1.50000000E+00  1.50000000E+00  8.00000000E-01  8.00000000E-01  1.50000000E+00
  1.50000000E+00  8.00000000E-01  8.00000000E-01  1.50000000E+00  1.50000000E+00
  8.00000000E-01  8.00000000E-01  1.50000000E+00  1.50000000E+00  8.00000000E-01
  8.00000000E-01  1.50000000E+00  1.50000000E+00  8.00000000E-01  8.00000000E-01
  1.50000000E+00  1.50000000E+00  8.00000000E-01  8.00000000E-01  1.50000000E+00
  1.50000000E+00  8.00000000E-01  8.00000000E-01  1.50000000E+00  1.50000000E+00
  8.00000000E-01  8.00000000E-01  1.50000000E+00  1.50000000E+00  8.00000000E-01
  8.00000000E-01  1.50000000E+00  1.50000000E+00  8.00000000E-01  8.00000000E-01
  1.50000000E+00  1.50000000E+00  8.00000000E-01  8.00000000E-01  1.50000000E+00
  1.50000000E+00  8.00000000E-01  8.00000000E-01  1.50000000E+00  1.50000000E+00
  8.00000000E-01  8.00000000E-01  1.50000000E+00  1.50000000E+00  8.00000000E-01
  8.00000000E-01  1.50000000E+00  1.50000000E+00  8.00000000E-01  8.00000000E-01
  1.50000000E+00  1.50000000E+00  8.00000000E-01  8.00000000E-01  1.50000000E+00
  1.50000000E+00  8.00000000E-01  8.00000000E-01  1.50000000E+00  1.50000000E+00
  8.00000000E-01  8.00000000E-01  1.50000000E+00  1.50000000E+00  8.00000000E-01
  8.00000000E-01  1.50000000E+00  1.50000000E+00  8.00000000E-01  8.00000000E-01
  1.50000000E+00  1.50000000E+00  8.00000000E-01  8.00000000E-01  1.50000000E+00
  1.50000000E+00  8.00000000E-01  8.00000000E-01  1.50000000E+00  1.50000000E+00
  8.00000000E-01  8.00000000E-01  1.50000000E+00  1.50000000E+00  8.00000000E-01
  8.00000000E-01  1.50000000E+00  1.50000000E+00  8.00000000E-01  8.00000000E-01
  1.50000000E+00  1.50000000E+00  8.00000000E-01  8.00000000E-01  1.50000000E+00
  1.50000000E+00  8.00000000E-01  8.00000000E-01  1.50000000E+00  1.50000000E+00
  8.00000000E-01  8.00000000E-01  1.50000000E+00  1.50000000E+00  8.00000000E-01
  8.00000000E-01  1.50000000E+00  1.50000000E+00  8.00000000E-01  8.00000000E-01
  1.50000000E+00  1.50000000E+00  8.00000000E-01  8.00000000E-01  1.50000000E+00
  1.50000000E+00  8.00000000E-01  8.00000000E-01  1.50000000E+00  1.50000000E+00
  8.00000000E-01  8.00000000E-01  1.50000000E+00  1.50000000E+00  8.00000000E-01
  8.00000000E-01  1.50000000E+00  1.50000000E+00  8.00000000E-01  8.00000000E-01
  1.50000000E+00  1.50000000E+00  8.00000000E-01  8.00000000E-01  1.50000000E+00
  1.50000000E+00  8.00000000E-01  8.00000000E-01  1.50000000E+00  1.50000000E+00
  8.00000000E-01  8.00000000E-01  1.50000000E+00  1.50000000E+00  8.00000000E-01
  8.00000000E-01  1.50000000E+00  1.50000000E+00  8.00000000E-01  8.00000000E-01
  1.50000000E+00  1.50000000E+00  8.00000000E-01  8.00000000E-01  1.50000000E+00
  1.50000000E+00  8.00000000E-01  8.00000000E-01  1.50000000E+00  1.50000000E+00
  8.00000000E-01  8.00000000E-01  1.50000000E+00  1.50000000E+00  8.00000000E-01
  8.00000000E-01  1.50000000E+00  1.50000000E+00  8.00000000E-01  8.00000000E-01
  1.50000000E+00  1.50000000E+00  8.00000000E-01  8.00000000E-01  1.50000000E+00
  1.50000000E+00  8.00000000E-01  8.00000000E-01  1.50000000E+00  1.50000000E+00
  8.00000000E-01  8.00000000E-01  1.50000000E+00  1.50000000E+00  8.00000000E-01
  8.00000000E-01  1.50000000E+00  1.50000000E+00  8.00000000E-01  8.00000000E-01
  1.50000000E+00  1.50000000E+00  8.00000000E-01  8.00000000E-01  1.50000000E+00
  1.50000000E+00  8.00000000E-01  8.00000000E-01  1.50000000E+00  1.50000000E+00
  8.00000000E-01  8.00000000E-01  1.50000000E+00  1.50000000E+00  8.00000000E-01
  8.00000000E-01  1.50000000E+00  1.50000000E+00  8.00000000E-01  8.00000000E-01
  1.50000000E+00  1.50000000E+00  8.00000000E-01  8.00000000E-01  1.50000000E+00
  1.50000000E+00  8.00000000E-01  8.00000000E-01  1.50000000E+00  1.50000000E+00
  8.00000000E-01  8.00000000E-01  1.50000000E+00  1.50000000E+00  8.00000000E-01
  8.00000000E-01  1.50000000E+00  1.50000000E+00  8.00000000E-01  8.00000000E-01
  1.50000000E+00  1.50000000E+00  8.00000000E-01  8.00000000E-01  1.50000000E+00
  1.50000000E+00  8.00000000E-01  8.00000000E-01  1.50000000E+00  1.50000000E+00
  8.00000000E-01  8.00000000E-01  1.50000000E+00  1.50000000E+00  8.00000000E-01
  8.00000000E-01  1.50000000E+00  1.50000000E+00  8.00000000E-01  8.00000000E-01
  1.50000000E+00  1.50000000E+00  8.00000000E-01  8.00000000E-01  1.50000000E+00
  1.50000000E+00  8.00000000E-01  8.00000000E-01  1.50000000E+00  1.50000000E+00
  8.00000000E-01  8.00000000E-01  1.50000000E+00  1.50000000E+00  8.00000000E-01
  8.00000000E-01  1.50000000E+00  1.50000000E+00  8.00000000E-01  8.00000000E-01
  1.50000000E+00  1.50000000E+00  8.00000000E-01  8.00000000E-01  1.50000000E+00
  1.50000000E+00  8.00000000E-01  8.00000000E-01  1.50000000E+00  1.50000000E+00
  8.00000000E-01  8.00000000E-01  1.50000000E+00  1.50000000E+00  8.00000000E-01
  8.00000000E-01  1.50000000E+00  1.50000000E+00  8.00000000E-01  8.00000000E-01
  1.50000000E+00  1.50000000E+00  8.00000000E-01  8.00000000E-01  1.50000000E+00
  1.50000000E+00  8.00000000E-01  8.00000000E-01  1.50000000E+00  1.50000000E+00
  8.00000000E-01  8.00000000E-01  1.50000000E+00  1.50000000E+00  8.00000000E-01
  8.00000000E-01  1.50000000E+00  1.50000000E+00  8.00000000E-01  8.00000000E-01
  1.50000000E+00  1.50000000E+00  8.00000000E-01  8.00000000E-01  1.50000000E+00
  1.50000000E+00  8.00000000E-01  8.00000000E-01  1.50000000E+00  1.50000000E+00
  8.00000000E-01  8.00000000E-01  1.50000000E+00  1.50000000E+00  8.00000000E-01
  8.00000000E-01  1.50000000E+00  1.50000000E+00  8.00000000E-01  8.00000000E-01
  1.50000000E+00  1.50000000E+00  8.00000000E-01  8.00000000E-01  1.50000000E+00
  1.50000000E+00  8.00000000E-01  8.00000000E-01  1.50000000E+00  1.50000000E+00
  8.00000000E-01  8.00000000E-01  1.50000000E+00  1.50000000E+00  8.00000000E-01
  8.00000000E-01  1.50000000E+00  1.50000000E+00  8.00000000E-01  8.00000000E-01
  1.50000000E+00  1.50000000E+00  8.00000000E-01  8.00000000E-01  1.50000000E+00
  1.50000000E+00  8.00000000E-01  8.00000000E-01  1.50000000E+00  1.50000000E+00
  8.00000000E-01  8.00000000E-01  1.50000000E+00  1.50000000E+00  8.00000000E-01
  8.00000000E-01  1.50000000E+00  1.50000000E+00  8.00000000E-01  8.00000000E-01
  1.50000000E+00  1.50000000E+00  8.00000000E-01  8.00000000E-01  1.50000000E+00
  1.50000000E+00  8.00000000E-01  8.00000000E-01  1.50000000E+00  1.50000000E+00
  8.00000000E-01  8.00000000E-01  1.50000000E+00  1.50000000E+00  8.00000000E-01
  8.00000000E-01  1.50000000E+00  1.50000000E+00  8.00000000E-01  8.00000000E-01
  1.50000000E+00  1.50000000E+00  8.00000000E-01  8.00000000E-01  1.50000000E+00
  1.50000000E+00  8.00000000E-01  8.00000000E-01  1.50000000E+00  1.50000000E+00
  8.00000000E-01  8.00000000E-01  1.50000000E+00  1.50000000E+00  8.00000000E-01
  8.00000000E-01  1.50000000E+00  1.50000000E+00  8.00000000E-01  8.00000000E-01
  1.50000000E+00  1.50000000E+00  8.00000000E-01  8.00000000E-01  1.50000000E+00
  1.50000000E+00  8.00000000E-01  8.00000000E-01  1.50000000E+00  1.50000000E+00
  8.00000000E-01  8.00000000E-01  1.50000000E+00  1.50000000E+00  8.00000000E-01
  8.00000000E-01  1.50000000E+00  1.50000000E+00  8.00000000E-01  8.00000000E-01
  1.50000000E+00  1.50000000E+00  8.00000000E-01  8.00000000E-01  1.50000000E+00
  1.50000000E+00  8.00000000E-01  8.00000000E-01  1.50000000E+00  1.50000000E+00
  8.00000000E-01  8.00000000E-01  1.50000000E+00  1.50000000E+00  8.00000000E-01
  8.00000000E-01  1.50000000E+00  1.50000000E+00  8.00000000E-01  8.00000000E-01
  1.50000000E+00  1.50000000E+00  8.00000000E-01  8.00000000E-01  1.50000000E+00
  1.50000000E+00  8.00000000E-01  8.00000000E-01  1.50000000E+00  1.50000000E+00
  8.00000000E-01  8.00000000E-01  1.50000000E+00  1.50000000E+00  8.00000000E-01
  8.00000000E-01  1.50000000E+00  1.50000000E+00  8.00000000E-01  8.00000000E-01
  1.50000000E+00  1.50000000E+00  8.00000000E-01  8.00000000E-01  1.50000000E+00
  1.50000000E+00  8.00000000E-01  8.00000000E-01  1.50000000E+00  1.50000000E+00
  8.00000000E-01  8.00000000E-01  1.50000000E+00  1.50000000E+00  8.00000000E-01
  8.00000000E-01  1.50000000E+00  1.50000000E+00  8.00000000E-01  8.00000000E-01
  1.50000000E+00  1.50000000E+00  8.00000000E-01  8.00000000E-01  1.50000000E+00
  1.50000000E+00  8.00000000E-01  8.00000000E-01  1.50000000E+00  1.50000000E+00
  8.00000000E-01  8.00000000E-01  1.50000000E+00  1.50000000E+00  8.00000000E-01
  8.00000000E-01  1.50000000E+00  1.50000000E+00  8.00000000E-01  8.00000000E-01
  1.50000000E+00  1.50000000E+00  8.00000000E-01  8.00000000E-01  1.50000000E+00
  1.50000000E+00  8.00000000E-01  8.00000000E-01  1.50000000E+00  1.50000000E+00
  8.00000000E-01  8.00000000E-01  1.50000000E+00  1.50000000E+00  8.00000000E-01
  8.00000000E-01  1.50000000E+00  1.50000000E+00  8.00000000E-01  8.00000000E-01
  1.50000000E+00  1.50000000E+00  8.00000000E-01  8.00000000E-01  1.50000000E+00
  1.50000000E+00  8.00000000E-01  8.00000000E-01  1.50000000E+00  1.50000000E+00
  8.00000000E-01  8.00000000E-01  1.50000000E+00  1.50000000E+00  8.00000000E-01
  8.00000000E-01  1.50000000E+00  1.50000000E+00  8.00000000E-01  8.00000000E-01
  1.50000000E+00  1.50000000E+00  8.00000000E-01  8.00000000E-01  1.50000000E+00
  1.50000000E+00  8.00000000E-01  8.00000000E-01  1.50000000E+00  1.50000000E+00
  8.00000000E-01  8.00000000E-01  1.50000000E+00  1.50000000E+00  8.00000000E-01
  8.00000000E-01  1.50000000E+00  1.50000000E+00  8.00000000E-01  8.00000000E-01
  1.50000000E+00  1.50000000E+00  8.00000000E-01  8.00000000E-01  1.50000000E+00
  1.50000000E+00  8.00000000E-01  8.00000000E-01  1.50000000E+00  1.50000000E+00
  8.00000000E-01  8.00000000E-01  1.50000000E+00  1.50000000E+00  8.00000000E-01
  8.00000000E-01  1.50000000E+00  1.50000000E+00  8.00000000E-01  8.00000000E-01
  1.50000000E+00  1.50000000E+00  8.00000000E-01  8.00000000E-01  1.50000000E+00
  1.50000000E+00  8.00000000E-01  8.00000000E-01  1.50000000E+00  1.50000000E+00
  8.00000000E-01  8.00000000E-01  1.50000000E+00  1.50000000E+00  8.00000000E-01
  8.00000000E-01  1.50000000E+00  1.50000000E+00  8.00000000E-01  8.00000000E-01
  1.50000000E+00  1.50000000E+00  8.00000000E-01  8.00000000E-01  1.50000000E+00
  1.50000000E+00  8.00000000E-01  8.00000000E-01  1.50000000E+00  1.50000000E+00
  8.00000000E-01  8.00000000E-01  1.50000000E+00  1.50000000E+00  8.00000000E-01
  8.00000000E-01  1.50000000E+00  1.50000000E+00  8.00000000E-01  8.00000000E-01
  1.50000000E+00  1.50000000E+00  8.00000000E-01  8.00000000E-01  1.50000000E+00
  1.50000000E+00  8.00000000E-01  8.00000000E-01  1.50000000E+00  1.50000000E+00
  8.00000000E-01  8.00000000E-01  1.50000000E+00  1.50000000E+00  8.00000000E-01
  8.00000000E-01  1.50000000E+00  1.50000000E+00  8.00000000E-01  8.00000000E-01
  1.50000000E+00  1.50000000E+00  8.00000000E-01  8.00000000E-01  1.50000000E+00
  1.50000000E+00  8.00000000E-01  8.00000000E-01  1.50000000E+00  1.50000000E+00
  8.00000000E-01  8.00000000E-01  1.50000000E+00  1.50000000E+00  8.00000000E-01
  8.00000000E-01  1.50000000E+00  1.50000000E+00  8.00000000E-01  8.00000000E-01
  1.50000000E+00  1.50000000E+00  8.00000000E-01  8.00000000E-01  1.50000000E+00
  1.50000000E+00  8.00000000E-01  8.00000000E-01  1.50000000E+00  1.50000000E+00
  8.00000000E-01  8.00000000E-01  1.50000000E+00  1.50000000E+00  8.00000000E-01
  8.00000000E-01  1.50000000E+00  1.50000000E+00  8.00000000E-01  8.00000000E-01
  1.50000000E+00  1.50000000E+00  8.00000000E-01  8.00000000E-01  1.50000000E+00
  1.50000000E+00  8.00000000E-01  8.00000000E-01  1.50000000E+00  1.50000000E+00
  8.00000000E-01  8.00000000E-01  1.50000000E+00  1.50000000E+00  8.00000000E-01
  8.00000000E-01  1.50000000E+00  1.50000000E+00  8.00000000E-01  8.00000000E-01
  1.50000000E+00  1.50000000E+00  8.00000000E-01  8.00000000E-01  1.50000000E+00
  1.50000000E+00  8.00000000E-01  8.00000000E-01  1.50000000E+00  1.50000000E+00
  8.00000000E-01  8.00000000E-01  1.50000000E+00  1.50000000E+00  8.00000000E-01
  8.00000000E-01  1.50000000E+00  1.50000000E+00  8.00000000E-01  8.00000000E-01
  1.50000000E+00  1.50000000E+00  8.00000000E-01  8.00000000E-01  1.50000000E+00
  1.50000000E+00  8.00000000E-01  8.00000000E-01  1.50000000E+00  1.50000000E+00
  8.00000000E-01  8.00000000E-01  1.50000000E+00  1.50000000E+00  8.00000000E-01
  8.00000000E-01  1.50000000E+00  1.50000000E+00  8.00000000E-01  8.00000000E-01
  1.50000000E+00  1.50000000E+00  8.00000000E-01  8.00000000E-01  1.50000000E+00
  1.50000000E+00  8.00000000E-01  8.00000000E-01  1.50000000E+00  1.50000000E+00
  8.00000000E-01  8.00000000E-01  1.50000000E+00  1.50000000E+00  8.00000000E-01
  8.00000000E-01  1.50000000E+00  1.50000000E+00  8.00000000E-01  8.00000000E-01
  1.50000000E+00  1.50000000E+00  8.00000000E-01  8.00000000E-01  1.50000000E+00
  1.50000000E+00  8.00000000E-01  8.00000000E-01  1.50000000E+00  1.50000000E+00
  8.00000000E-01  8.00000000E-01  1.50000000E+00  1.50000000E+00  8.00000000E-01
  8.00000000E-01  1.50000000E+00  1.50000000E+00  8.00000000E-01  8.00000000E-01
  1.50000000E+00  1.50000000E+00  8.00000000E-01  8.00000000E-01  1.50000000E+00
  1.50000000E+00  8.00000000E-01  8.00000000E-01  1.50000000E+00  1.50000000E+00
  8.00000000E-01  8.00000000E-01  1.50000000E+00  1.50000000E+00  8.00000000E-01
  8.00000000E-01  1.50000000E+00  1.50000000E+00  8.00000000E-01  8.00000000E-01
  1.50000000E+00  1.50000000E+00  8.00000000E-01  8.00000000E-01  1.50000000E+00
  1.50000000E+00  8.00000000E-01  8.00000000E-01  1.50000000E+00  1.50000000E+00
  8.00000000E-01  8.00000000E-01  1.50000000E+00  1.50000000E+00  8.00000000E-01
  8.00000000E-01  1.50000000E+00  1.50000000E+00  8.00000000E-01  8.00000000E-01
  1.50000000E+00  1.50000000E+00  8.00000000E-01  8.00000000E-01  1.50000000E+00
  1.50000000E+00  8.00000000E-01  8.00000000E-01  1.50000000E+00  1.50000000E+00
  8.00000000E-01  8.00000000E-01  1.50000000E+00  1.50000000E+00  8.00000000E-01
  8.00000000E-01  1.50000000E+00  1.50000000E+00  8.00000000E-01  8.00000000E-01
  1.50000000E+00  1.50000000E+00  8.00000000E-01  8.00000000E-01  1.50000000E+00
  1.50000000E+00  8.00000000E-01  8.00000000E-01  1.50000000E+00  1.50000000E+00
  8.00000000E-01  8.00000000E-01  1.50000000E+00  1.50000000E+00  8.00000000E-01
  8.00000000E-01  1.50000000E+00  1.50000000E+00  8.00000000E-01  8.00000000E-01
  1.50000000E+00  1.50000000E+00  8.00000000E-01  8.00000000E-01  1.50000000E+00
  1.50000000E+00  8.00000000E-01  8.00000000E-01  1.50000000E+00  1.50000000E+00
  8.00000000E-01  8.00000000E-01  1.50000000E+00  1.50000000E+00  8.00000000E-01
  8.00000000E-01  1.50000000E+00  1.50000000E+00  8.00000000E-01  8.00000000E-01
  1.50000000E+00  1.50000000E+00  8.00000000E-01  8.00000000E-01  1.50000000E+00
  1.50000000E+00  8.00000000E-01  8.00000000E-01  1.50000000E+00  1.50000000E+00
  8.00000000E-01  8.00000000E-01  1.50000000E+00  1.50000000E+00  8.00000000E-01
  8.00000000E-01  1.50000000E+00  1.50000000E+00  8.00000000E-01  8.00000000E-01
  1.50000000E+00  1.50000000E+00  8.00000000E-01  8.00000000E-01  1.50000000E+00
  1.50000000E+00  8.00000000E-01  8.00000000E-01  1.50000000E+00  1.50000000E+00
  8.00000000E-01  8.00000000E-01  1.50000000E+00  1.50000000E+00  8.00000000E-01
  8.00000000E-01  1.50000000E+00  1.50000000E+00  8.00000000E-01  8.00000000E-01
  1.50000000E+00  1.50000000E+00  8.00000000E-01  8.00000000E-01  1.50000000E+00
  1.50000000E+00  8.00000000E-01  8.00000000E-01  1.50000000E+00  1.50000000E+00
  8.00000000E-01  8.00000000E-01  1.50000000E+00  1.50000000E+00  8.00000000E-01
  8.00000000E-01  1.50000000E+00  1.50000000E+00  8.00000000E-01  8.00000000E-01
  1.50000000E+00  1.50000000E+00  8.00000000E-01  8.00000000E-01  1.50000000E+00
  1.50000000E+00  8.00000000E-01  8.00000000E-01  1.50000000E+00  1.50000000E+00
  8.00000000E-01  8.00000000E-01  1.50000000E+00  1.50000000E+00  8.00000000E-01
  8.00000000E-01  1.50000000E+00  1.50000000E+00  8.00000000E-01  8.00000000E-01
  1.50000000E+00  1.50000000E+00  8.00000000E-01  8.00000000E-01  1.50000000E+00
  1.50000000E+00  8.00000000E-01  8.00000000E-01  1.50000000E+00  1.50000000E+00
  8.00000000E-01  8.00000000E-01  1.50000000E+00  1.50000000E+00  8.00000000E-01
  8.00000000E-01  1.50000000E+00  1.50000000E+00  8.00000000E-01  8.00000000E-01
  1.50000000E+00  1.50000000E+00  8.00000000E-01  8.00000000E-01  1.50000000E+00
  1.50000000E+00  8.00000000E-01  8.00000000E-01  1.50000000E+00  1.50000000E+00
  8.00000000E-01  8.00000000E-01  1.50000000E+00  1.50000000E+00  8.00000000E-01
  8.00000000E-01  1.50000000E+00  1.50000000E+00  8.00000000E-01  8.00000000E-01
  1.50000000E+00  1.50000000E+00  8.00000000E-01  8.00000000E-01  1.50000000E+00
  1.50000000E+00  8.00000000E-01  8.00000000E-01  1.50000000E+00  1.50000000E+00
  8.00000000E-01  8.00000000E-01  1.50000000E+00  1.50000000E+00  8.00000000E-01
  8.00000000E-01  1.50000000E+00  1.50000000E+00  8.00000000E-01  8.00000000E-01
  1.50000000E+00  1.50000000E+00  8.00000000E-01  8.00000000E-01  1.50000000E+00
  1.50000000E+00  8.00000000E-01  8.00000000E-01  1.50000000E+00  1.50000000E+00
  8.00000000E-01  8.00000000E-01  1.50000000E+00  1.50000000E+00  8.00000000E-01
  8.00000000E-01  1.50000000E+00  1.50000000E+00  8.00000000E-01  8.00000000E-01
  1.50000000E+00  1.50000000E+00  8.00000000E-01  8.00000000E-01  1.50000000E+00
  1.50000000E+00  8.00000000E-01  8.00000000E-01  1.50000000E+00  1.50000000E+00
  8.00000000E-01  8.00000000E-01  1.50000000E+00  1.50000000E+00  8.00000000E-01
  8.00000000E-01  1.50000000E+00  1.50000000E+00  8.00000000E-01  8.00000000E-01
  1.50000000E+00  1.50000000E+00  8.00000000E-01  8.00000000E-01  1.50000000E+00
  1.50000000E+00  8.00000000E-01  8.00000000E-01  1.50000000E+00  1.50000000E+00
  8.00000000E-01  8.00000000E-01  1.50000000E+00  1.50000000E+00  8.00000000E-01
  8.00000000E-01  1.50000000E+00  1.50000000E+00  8.00000000E-01  8.00000000E-01
  1.50000000E+00  1.50000000E+00  8.00000000E-01  8.00000000E-01  1.50000000E+00
  1.50000000E+00  8.00000000E-01  8.00000000E-01  1.50000000E+00  1.50000000E+00
  8.00000000E-01  8.00000000E-01  1.50000000E+00  1.50000000E+00  8.00000000E-01
  8.00000000E-01  1.50000000E+00  1.50000000E+00  8.00000000E-01  8.00000000E-01
  1.50000000E+00  1.50000000E+00  8.00000000E-01  8.00000000E-01  1.50000000E+00
  1.50000000E+00  8.00000000E-01  8.00000000E-01  1.50000000E+00  1.50000000E+00
  8.00000000E-01  8.00000000E-01  1.50000000E+00  1.50000000E+00  8.00000000E-01
  8.00000000E-01  1.50000000E+00  1.50000000E+00  8.00000000E-01  8.00000000E-01
  1.50000000E+00  1.50000000E+00  8.00000000E-01  8.00000000E-01  1.50000000E+00
  1.50000000E+00  8.00000000E-01  8.00000000E-01  1.50000000E+00  1.50000000E+00
  8.00000000E-01  8.00000000E-01  1.50000000E+00  1.50000000E+00  8.00000000E-01
  8.00000000E-01  1.50000000E+00  1.50000000E+00  8.00000000E-01  8.00000000E-01
  1.50000000E+00  1.50000000E+00  8.00000000E-01  8.00000000E-01  1.50000000E+00
  1.50000000E+00  8.00000000E-01  8.00000000E-01  1.50000000E+00  1.50000000E+00
  8.00000000E-01  8.00000000E-01  1.50000000E+00  1.50000000E+00  8.00000000E-01
  8.00000000E-01  1.50000000E+00  1.50000000E+00  8.00000000E-01  8.00000000E-01
  1.50000000E+00  1.50000000E+00  8.00000000E-01  8.00000000E-01  1.50000000E+00
  1.50000000E+00  8.00000000E-01  8.00000000E-01  1.50000000E+00  1.50000000E+00
  8.00000000E-01  8.00000000E-01  1.50000000E+00  1.50000000E+00  8.00000000E-01
  8.00000000E-01  1.50000000E+00  1.50000000E+00  8.00000000E-01  8.00000000E-01
  1.50000000E+00  1.50000000E+00  8.00000000E-01  8.00000000E-01  1.50000000E+00
  1.50000000E+00  8.00000000E-01  8.00000000E-01  1.50000000E+00  1.50000000E+00
  8.00000000E-01  8.00000000E-01  1.50000000E+00  1.50000000E+00  8.00000000E-01
  8.00000000E-01  1.50000000E+00  1.50000000E+00  8.00000000E-01  8.00000000E-01
  1.50000000E+00  1.50000000E+00  8.00000000E-01  8.00000000E-01  1.50000000E+00
  1.50000000E+00  8.00000000E-01  8.00000000E-01  1.50000000E+00  1.50000000E+00
  8.00000000E-01  8.00000000E-01  1.50000000E+00  1.50000000E+00  8.00000000E-01
  8.00000000E-01  1.50000000E+00  1.50000000E+00  8.00000000E-01  8.00000000E-01
  1.50000000E+00  1.50000000E+00  8.00000000E-01  8.00000000E-01  1.50000000E+00
  1.50000000E+00  8.00000000E-01  8.00000000E-01  1.50000000E+00  1.50000000E+00
  8.00000000E-01  8.00000000E-01  1.50000000E+00  1.50000000E+00  8.00000000E-01
  8.00000000E-01  1.50000000E+00  1.50000000E+00  8.00000000E-01  8.00000000E-01
  1.50000000E+00  1.50000000E+00  8.00000000E-01  8.00000000E-01  1.50000000E+00
  1.50000000E+00  8.00000000E-01  8.00000000E-01  1.50000000E+00  1.50000000E+00
  8.00000000E-01  8.00000000E-01  1.50000000E+00  1.50000000E+00  8.00000000E-01
  8.00000000E-01  1.50000000E+00  1.50000000E+00  8.00000000E-01  8.00000000E-01
  1.50000000E+00  1.50000000E+00  8.00000000E-01  8.00000000E-01  1.50000000E+00
  1.50000000E+00  8.00000000E-01  8.00000000E-01  1.50000000E+00  1.50000000E+00
  8.00000000E-01  8.00000000E-01  1.50000000E+00  1.50000000E+00  8.00000000E-01
  8.00000000E-01  1.50000000E+00  1.50000000E+00  8.00000000E-01  8.00000000E-01
  1.50000000E+00  1.50000000E+00  8.00000000E-01  8.00000000E-01  1.50000000E+00
  1.50000000E+00  8.00000000E-01  8.00000000E-01  1.50000000E+00  1.50000000E+00
  8.00000000E-01  8.00000000E-01  1.50000000E+00  1.50000000E+00  8.00000000E-01
  8.00000000E-01  1.50000000E+00  1.50000000E+00  8.00000000E-01  8.00000000E-01
  1.50000000E+00  1.50000000E+00  8.00000000E-01  8.00000000E-01  1.50000000E+00
  1.50000000E+00  8.00000000E-01  8.00000000E-01  1.50000000E+00  1.50000000E+00
  8.00000000E-01  8.00000000E-01  1.50000000E+00  1.50000000E+00  8.00000000E-01
  8.00000000E-01  1.50000000E+00  1.50000000E+00  8.00000000E-01  8.00000000E-01
  1.50000000E+00  1.50000000E+00  8.00000000E-01  8.00000000E-01  1.50000000E+00
  1.50000000E+00  8.00000000E-01  8.00000000E-01  1.50000000E+00  1.50000000E+00
  8.00000000E-01  8.00000000E-01  1.50000000E+00  1.50000000E+00  8.00000000E-01
  8.00000000E-01  1.50000000E+00  1.50000000E+00  8.00000000E-01  8.00000000E-01
  1.50000000E+00  1.50000000E+00  8.00000000E-01  8.00000000E-01  1.50000000E+00
  1.50000000E+00  8.00000000E-01  8.00000000E-01  1.50000000E+00  1.50000000E+00
  8.00000000E-01  8.00000000E-01  1.50000000E+00  1.50000000E+00  8.00000000E-01
  8.00000000E-01  1.50000000E+00  1.50000000E+00  8.00000000E-01  8.00000000E-01
  1.50000000E+00  1.50000000E+00  8.00000000E-01  8.00000000E-01  1.50000000E+00
  1.50000000E+00  8.00000000E-01  8.00000000E-01  1.50000000E+00  1.50000000E+00
  8.00000000E-01  8.00000000E-01  1.50000000E+00  1.50000000E+00  8.00000000E-01
  8.00000000E-01  1.50000000E+00  1.50000000E+00  8.00000000E-01  8.00000000E-01
  1.50000000E+00  1.50000000E+00  8.00000000E-01  8.00000000E-01  1.50000000E+00
  1.50000000E+00  8.00000000E-01  8.00000000E-01  1.50000000E+00  1.50000000E+00
  8.00000000E-01  8.00000000E-01  1.50000000E+00  1.50000000E+00  8.00000000E-01
  8.00000000E-01  1.50000000E+00  1.50000000E+00  8.00000000E-01  8.00000000E-01
  1.50000000E+00  1.50000000E+00  8.00000000E-01  8.00000000E-01  1.50000000E+00
  1.50000000E+00  8.00000000E-01  8.00000000E-01  1.50000000E+00  1.50000000E+00
  8.00000000E-01  8.00000000E-01  1.50000000E+00  1.50000000E+00  8.00000000E-01
  8.00000000E-01  1.50000000E+00  1.50000000E+00  8.00000000E-01  8.00000000E-01
  1.50000000E+00  1.50000000E+00  8.00000000E-01  8.00000000E-01  1.50000000E+00
  1.50000000E+00  8.00000000E-01  8.00000000E-01  1.50000000E+00  1.50000000E+00
  8.00000000E-01  8.00000000E-01  1.50000000E+00  1.50000000E+00  8.00000000E-01
  8.00000000E-01  1.50000000E+00  1.50000000E+00  8.00000000E-01  8.00000000E-01
  1.50000000E+00  1.50000000E+00  8.00000000E-01  8.00000000E-01  1.50000000E+00
  1.50000000E+00  8.00000000E-01  8.00000000E-01  1.50000000E+00  1.50000000E+00
  8.00000000E-01  8.00000000E-01  1.50000000E+00  1.50000000E+00  8.00000000E-01
  8.00000000E-01  1.50000000E+00  1.50000000E+00  8.00000000E-01  8.00000000E-01
  1.50000000E+00  1.50000000E+00  8.00000000E-01  8.00000000E-01  1.50000000E+00
  1.50000000E+00  8.00000000E-01  8.00000000E-01  1.50000000E+00  1.50000000E+00
  8.00000000E-01  8.00000000E-01  1.50000000E+00  1.50000000E+00  8.00000000E-01
  8.00000000E-01  1.50000000E+00  1.50000000E+00  8.00000000E-01  8.00000000E-01
  1.50000000E+00  1.50000000E+00  8.00000000E-01  8.00000000E-01  1.50000000E+00
  1.50000000E+00  8.00000000E-01  8.00000000E-01  1.50000000E+00  1.50000000E+00
  8.00000000E-01  8.00000000E-01  1.50000000E+00  1.50000000E+00  8.00000000E-01
  8.00000000E-01  1.50000000E+00  1.50000000E+00  8.00000000E-01  8.00000000E-01
  1.50000000E+00  1.50000000E+00  8.00000000E-01  8.00000000E-01  1.50000000E+00
  1.50000000E+00  8.00000000E-01  8.00000000E-01  1.50000000E+00  1.50000000E+00
  8.00000000E-01  8.00000000E-01  1.50000000E+00  1.50000000E+00  8.00000000E-01
  8.00000000E-01  1.50000000E+00  1.50000000E+00  8.00000000E-01  8.00000000E-01
  1.50000000E+00  1.50000000E+00  8.00000000E-01  8.00000000E-01  1.50000000E+00
  1.50000000E+00  8.00000000E-01  8.00000000E-01  1.50000000E+00  1.50000000E+00
  8.00000000E-01  8.00000000E-01  1.50000000E+00  1.50000000E+00  8.00000000E-01
  8.00000000E-01  1.50000000E+00  1.50000000E+00  8.00000000E-01  8.00000000E-01
  1.50000000E+00  1.50000000E+00  8.00000000E-01  8.00000000E-01  1.50000000E+00
  1.50000000E+00  8.00000000E-01  8.00000000E-01  1.50000000E+00  1.50000000E+00
  8.00000000E-01  8.00000000E-01  1.50000000E+00  1.50000000E+00  8.00000000E-01
  8.00000000E-01  1.50000000E+00  1.50000000E+00  8.00000000E-01  8.00000000E-01
  1.50000000E+00  1.50000000E+00  8.00000000E-01  8.00000000E-01  1.50000000E+00
  1.50000000E+00  8.00000000E-01  8.00000000E-01  1.50000000E+00  1.50000000E+00
  8.00000000E-01  8.00000000E-01  1.50000000E+00  1.50000000E+00  8.00000000E-01
  8.00000000E-01  1.50000000E+00  1.50000000E+00  8.00000000E-01  8.00000000E-01
  1.50000000E+00  1.50000000E+00  8.00000000E-01  8.00000000E-01  1.50000000E+00
  1.50000000E+00  8.00000000E-01  8.00000000E-01  1.50000000E+00  1.50000000E+00
  8.00000000E-01  8.00000000E-01  1.50000000E+00  1.50000000E+00  8.00000000E-01
  8.00000000E-01  1.50000000E+00  1.50000000E+00  8.00000000E-01  8.00000000E-01
  1.50000000E+00  1.50000000E+00  8.00000000E-01  8.00000000E-01  1.50000000E+00
  1.50000000E+00  8.00000000E-01  8.00000000E-01  1.50000000E+00  1.50000000E+00
  8.00000000E-01  8.00000000E-01  1.50000000E+00  1.50000000E+00  8.00000000E-01
  8.00000000E-01  1.50000000E+00  1.50000000E+00  8.00000000E-01  8.00000000E-01
  1.50000000E+00  1.50000000E+00  8.00000000E-01  8.00000000E-01  1.50000000E+00
  1.50000000E+00  8.00000000E-01  8.00000000E-01  1.50000000E+00  1.50000000E+00
  8.00000000E-01  8.00000000E-01  1.50000000E+00  1.50000000E+00  8.00000000E-01
  8.00000000E-01  1.50000000E+00  1.50000000E+00  8.00000000E-01  8.00000000E-01
  1.50000000E+00  1.50000000E+00  8.00000000E-01  8.00000000E-01  1.50000000E+00
  1.50000000E+00  8.00000000E-01  8.00000000E-01  1.50000000E+00  1.50000000E+00
  8.00000000E-01  8.00000000E-01  1.50000000E+00  1.50000000E+00  8.00000000E-01
  8.00000000E-01  1.50000000E+00  1.50000000E+00  8.00000000E-01  8.00000000E-01
  1.50000000E+00  1.50000000E+00  8.00000000E-01  8.00000000E-01  1.50000000E+00
  1.50000000E+00  8.00000000E-01  8.00000000E-01  1.50000000E+00  1.50000000E+00
  8.00000000E-01  8.00000000E-01  1.50000000E+00  1.50000000E+00  8.00000000E-01
  8.00000000E-01  1.50000000E+00  1.50000000E+00  8.00000000E-01  8.00000000E-01
  1.50000000E+00  1.50000000E+00  8.00000000E-01  8.00000000E-01  1.50000000E+00
  1.50000000E+00  8.00000000E-01  8.00000000E-01  1.50000000E+00  1.50000000E+00
  8.00000000E-01  8.00000000E-01  1.50000000E+00  1.50000000E+00  8.00000000E-01
  8.00000000E-01  1.50000000E+00  1.50000000E+00  8.00000000E-01  8.00000000E-01
  1.50000000E+00  1.50000000E+00  8.00000000E-01  8.00000000E-01  1.50000000E+00
  1.50000000E+00  8.00000000E-01  8.00000000E-01  1.50000000E+00  1.50000000E+00
  8.00000000E-01  8.00000000E-01  1.50000000E+00  1.50000000E+00  8.00000000E-01
  8.00000000E-01  1.50000000E+00  1.50000000E+00  8.00000000E-01  8.00000000E-01
  1.50000000E+00  1.50000000E+00  8.00000000E-01  8.00000000E-01  1.50000000E+00
  1.50000000E+00  8.00000000E-01  8.00000000E-01  1.50000000E+00  1.50000000E+00
  8.00000000E-01  8.00000000E-01  1.50000000E+00  1.50000000E+00  8.00000000E-01
  8.00000000E-01  1.50000000E+00  1.50000000E+00  8.00000000E-01  8.00000000E-01
  1.50000000E+00  1.50000000E+00  8.00000000E-01  8.00000000E-01  1.50000000E+00
  1.50000000E+00  8.00000000E-01  8.00000000E-01  1.50000000E+00  1.50000000E+00
  8.00000000E-01  8.00000000E-01  1.50000000E+00  1.50000000E+00  8.00000000E-01
  8.00000000E-01  1.50000000E+00  1.50000000E+00  8.00000000E-01  8.00000000E-01
  1.50000000E+00  1.50000000E+00  8.00000000E-01  8.00000000E-01  1.50000000E+00
  1.50000000E+00  8.00000000E-01  8.00000000E-01  1.50000000E+00  1.50000000E+00
  8.00000000E-01  8.00000000E-01  1.50000000E+00  1.50000000E+00  8.00000000E-01
  8.00000000E-01  1.50000000E+00  1.50000000E+00  8.00000000E-01  8.00000000E-01
  1.50000000E+00  1.50000000E+00  8.00000000E-01  8.00000000E-01  1.50000000E+00
  1.50000000E+00  8.00000000E-01  8.00000000E-01  1.50000000E+00  1.50000000E+00
  8.00000000E-01  8.00000000E-01  1.50000000E+00  1.50000000E+00  8.00000000E-01
  8.00000000E-01  1.50000000E+00  1.50000000E+00  8.00000000E-01  8.00000000E-01
  1.50000000E+00  1.50000000E+00  8.00000000E-01  8.00000000E-01  1.50000000E+00
  1.50000000E+00  8.00000000E-01  8.00000000E-01  1.50000000E+00  1.50000000E+00
  8.00000000E-01  8.00000000E-01  1.50000000E+00  1.50000000E+00  8.00000000E-01
  8.00000000E-01  1.50000000E+00  1.50000000E+00  8.00000000E-01  8.00000000E-01
  1.50000000E+00  1.50000000E+00  8.00000000E-01  8.00000000E-01  1.50000000E+00
  1.50000000E+00  8.00000000E-01  8.00000000E-01  1.50000000E+00  1.50000000E+00
  8.00000000E-01  8.00000000E-01  1.50000000E+00  1.50000000E+00  8.00000000E-01
  8.00000000E-01  1.50000000E+00  1.50000000E+00  8.00000000E-01  8.00000000E-01
  1.50000000E+00  1.50000000E+00  8.00000000E-01  8.00000000E-01  1.50000000E+00
  1.50000000E+00  8.00000000E-01  8.00000000E-01  1.50000000E+00  1.50000000E+00
  8.00000000E-01  8.00000000E-01  1.50000000E+00  1.50000000E+00  8.00000000E-01
  8.00000000E-01  1.50000000E+00  1.50000000E+00  8.00000000E-01  8.00000000E-01
  1.50000000E+00  1.50000000E+00  8.00000000E-01  8.00000000E-01  1.50000000E+00
  1.50000000E+00  8.00000000E-01  8.00000000E-01  1.50000000E+00  1.50000000E+00
  8.00000000E-01  8.00000000E-01  1.50000000E+00  1.50000000E+00  8.00000000E-01
  8.00000000E-01  1.50000000E+00  1.50000000E+00  8.00000000E-01  8.00000000E-01
  1.50000000E+00  1.50000000E+00  8.00000000E-01  8.00000000E-01  1.50000000E+00
  1.50000000E+00  8.00000000E-01  8.00000000E-01  1.50000000E+00  1.50000000E+00
  8.00000000E-01  8.00000000E-01  1.50000000E+00  1.50000000E+00  8.00000000E-01
  8.00000000E-01  1.50000000E+00  1.50000000E+00  8.00000000E-01  8.00000000E-01
  1.50000000E+00  1.50000000E+00  8.00000000E-01  8.00000000E-01  1.50000000E+00
  1.50000000E+00  8.00000000E-01  8.00000000E-01  1.50000000E+00  1.50000000E+00
  8.00000000E-01  8.00000000E-01  1.50000000E+00  1.50000000E+00  8.00000000E-01
  8.00000000E-01  1.50000000E+00  1.50000000E+00  8.00000000E-01  8.00000000E-01
  1.50000000E+00  1.50000000E+00  8.00000000E-01  8.00000000E-01  1.50000000E+00
  1.50000000E+00  8.00000000E-01  8.00000000E-01  1.50000000E+00  1.50000000E+00
  8.00000000E-01  8.00000000E-01  1.50000000E+00  1.50000000E+00  8.00000000E-01
  8.00000000E-01  1.50000000E+00  1.50000000E+00  8.00000000E-01  8.00000000E-01
  1.50000000E+00  1.50000000E+00  8.00000000E-01  8.00000000E-01  1.50000000E+00
  1.50000000E+00  8.00000000E-01  8.00000000E-01  1.50000000E+00  1.50000000E+00
  8.00000000E-01  8.00000000E-01  1.50000000E+00  1.50000000E+00  8.00000000E-01
  8.00000000E-01  1.50000000E+00  1.50000000E+00  8.00000000E-01  8.00000000E-01
  1.50000000E+00  1.50000000E+00  8.00000000E-01  8.00000000E-01  1.50000000E+00
  1.50000000E+00  8.00000000E-01  8.00000000E-01  1.50000000E+00  1.50000000E+00
  8.00000000E-01  8.00000000E-01  1.50000000E+00  1.50000000E+00  8.00000000E-01
  8.00000000E-01  1.50000000E+00  1.50000000E+00  8.00000000E-01  8.00000000E-01
  1.50000000E+00  1.50000000E+00  8.00000000E-01  8.00000000E-01  1.50000000E+00
  1.50000000E+00  8.00000000E-01  8.00000000E-01  1.50000000E+00  1.50000000E+00
  8.00000000E-01  8.00000000E-01  1.50000000E+00  1.50000000E+00  8.00000000E-01
  8.00000000E-01  1.50000000E+00  1.50000000E+00  8.00000000E-01  8.00000000E-01
  1.50000000E+00  1.50000000E+00  8.00000000E-01  8.00000000E-01  1.50000000E+00
  1.50000000E+00  8.00000000E-01  8.00000000E-01  1.50000000E+00  1.50000000E+00
  8.00000000E-01  8.00000000E-01  1.50000000E+00  1.50000000E+00  8.00000000E-01
  8.00000000E-01  1.50000000E+00  1.50000000E+00  8.00000000E-01  8.00000000E-01
  1.50000000E+00  1.50000000E+00  8.00000000E-01  8.00000000E-01  1.50000000E+00
  1.50000000E+00  8.00000000E-01  8.00000000E-01  1.50000000E+00  1.50000000E+00
  8.00000000E-01  8.00000000E-01  1.50000000E+00  1.50000000E+00  8.00000000E-01
  8.00000000E-01  1.50000000E+00  1.50000000E+00  8.00000000E-01  8.00000000E-01
  1.50000000E+00  1.50000000E+00  8.00000000E-01  8.00000000E-01  1.50000000E+00
  1.50000000E+00  8.00000000E-01  8.00000000E-01  1.50000000E+00  1.50000000E+00
  8.00000000E-01  8.00000000E-01  1.50000000E+00  1.50000000E+00  8.00000000E-01
  8.00000000E-01  1.50000000E+00  1.50000000E+00  8.00000000E-01  8.00000000E-01
  1.50000000E+00  1.50000000E+00  8.00000000E-01  8.00000000E-01  1.50000000E+00
  1.50000000E+00  8.00000000E-01  8.00000000E-01  1.50000000E+00  1.50000000E+00
  8.00000000E-01  8.00000000E-01  1.50000000E+00  1.50000000E+00  8.00000000E-01
  8.00000000E-01  1.50000000E+00  1.50000000E+00  8.00000000E-01  8.00000000E-01
  1.50000000E+00  1.50000000E+00  8.00000000E-01  8.00000000E-01  1.50000000E+00
  1.50000000E+00  8.00000000E-01  8.00000000E-01  1.50000000E+00  1.50000000E+00
  8.00000000E-01  8.00000000E-01  1.50000000E+00  1.50000000E+00  8.00000000E-01
  8.00000000E-01  1.50000000E+00  1.50000000E+00  8.00000000E-01  8.00000000E-01
  1.50000000E+00  1.50000000E+00  8.00000000E-01  8.00000000E-01  1.50000000E+00
  1.50000000E+00  8.00000000E-01  8.00000000E-01  1.50000000E+00  1.50000000E+00
  8.00000000E-01  8.00000000E-01  1.50000000E+00  1.50000000E+00  8.00000000E-01
  8.00000000E-01  1.50000000E+00  1.50000000E+00  8.00000000E-01  8.00000000E-01
  1.50000000E+00  1.50000000E+00  8.00000000E-01  8.00000000E-01  1.50000000E+00
  1.50000000E+00  8.00000000E-01  8.00000000E-01  1.50000000E+00  1.50000000E+00
  8.00000000E-01  8.00000000E-01  1.50000000E+00  1.50000000E+00  8.00000000E-01
  8.00000000E-01  1.50000000E+00  1.50000000E+00  8.00000000E-01  8.00000000E-01
  1.50000000E+00  1.50000000E+00  8.00000000E-01  8.00000000E-01  1.50000000E+00
  1.50000000E+00  8.00000000E-01  8.00000000E-01  1.50000000E+00  1.50000000E+00
  8.00000000E-01  8.00000000E-01  1.50000000E+00  1.50000000E+00  8.00000000E-01
  8.00000000E-01  1.50000000E+00  1.50000000E+00  8.00000000E-01  8.00000000E-01
  1.50000000E+00  1.50000000E+00  8.00000000E-01  8.00000000E-01  1.50000000E+00
  1.50000000E+00  8.00000000E-01  8.00000000E-01  1.50000000E+00  1.50000000E+00
  8.00000000E-01  8.00000000E-01  1.50000000E+00  1.50000000E+00  8.00000000E-01
  8.00000000E-01  1.50000000E+00  1.50000000E+00  8.00000000E-01  8.00000000E-01
  1.50000000E+00  1.50000000E+00  8.00000000E-01  8.00000000E-01  1.50000000E+00
  1.50000000E+00  8.00000000E-01  8.00000000E-01  1.50000000E+00  1.50000000E+00
  8.00000000E-01  8.00000000E-01  1.50000000E+00  1.50000000E+00  8.00000000E-01
  8.00000000E-01  1.50000000E+00  1.50000000E+00  8.00000000E-01  8.00000000E-01
  1.50000000E+00  1.50000000E+00  8.00000000E-01  8.00000000E-01  1.50000000E+00
  1.50000000E+00  8.00000000E-01  8.00000000E-01  1.50000000E+00  1.50000000E+00
  8.00000000E-01  8.00000000E-01  1.50000000E+00  1.50000000E+00  8.00000000E-01
  8.00000000E-01  1.50000000E+00  1.50000000E+00  8.00000000E-01  8.00000000E-01
  1.50000000E+00  1.50000000E+00  8.00000000E-01  8.00000000E-01  1.50000000E+00
  1.50000000E+00  8.00000000E-01  8.00000000E-01  1.50000000E+00  1.50000000E+00
  8.00000000E-01  8.00000000E-01  1.50000000E+00  1.50000000E+00  8.00000000E-01
  8.00000000E-01  1.50000000E+00  1.50000000E+00  8.00000000E-01  8.00000000E-01
  1.50000000E+00  1.50000000E+00  8.00000000E-01  8.00000000E-01  1.50000000E+00
  1.50000000E+00  8.00000000E-01  8.00000000E-01  1.50000000E+00  1.50000000E+00
  8.00000000E-01  8.00000000E-01  1.50000000E+00  1.50000000E+00  8.00000000E-01
  8.00000000E-01  1.50000000E+00  1.50000000E+00  8.00000000E-01  8.00000000E-01
  1.50000000E+00  1.50000000E+00  8.00000000E-01  8.00000000E-01  1.50000000E+00
  1.50000000E+00  8.00000000E-01  8.00000000E-01  1.50000000E+00  1.50000000E+00
  8.00000000E-01  8.00000000E-01  1.50000000E+00  1.50000000E+00  8.00000000E-01
  8.00000000E-01  1.50000000E+00  1.50000000E+00  8.00000000E-01  8.00000000E-01
  1.50000000E+00  1.50000000E+00  8.00000000E-01  8.00000000E-01  1.50000000E+00
  1.50000000E+00  8.00000000E-01  8.00000000E-01  1.50000000E+00  1.50000000E+00
  8.00000000E-01  8.00000000E-01  1.50000000E+00  1.50000000E+00  8.00000000E-01
  8.00000000E-01  1.50000000E+00  1.50000000E+00  8.00000000E-01  8.00000000E-01
  1.50000000E+00  1.50000000E+00  8.00000000E-01  8.00000000E-01  1.50000000E+00
  1.50000000E+00  8.00000000E-01  8.00000000E-01  1.50000000E+00  1.50000000E+00
  8.00000000E-01  8.00000000E-01  1.50000000E+00  1.50000000E+00  8.00000000E-01
  8.00000000E-01  1.50000000E+00  1.50000000E+00  8.00000000E-01  8.00000000E-01
  1.50000000E+00  1.50000000E+00  8.00000000E-01  8.00000000E-01  1.50000000E+00
  1.50000000E+00  8.00000000E-01  8.00000000E-01  1.50000000E+00  1.50000000E+00
  8.00000000E-01  8.00000000E-01  1.50000000E+00  1.50000000E+00  8.00000000E-01
  8.00000000E-01  1.50000000E+00  1.50000000E+00  8.00000000E-01  8.00000000E-01
  1.50000000E+00  1.50000000E+00  8.00000000E-01  8.00000000E-01  1.50000000E+00
  1.50000000E+00  8.00000000E-01  8.00000000E-01  1.50000000E+00  1.50000000E+00
  8.00000000E-01  8.00000000E-01  1.50000000E+00  1.50000000E+00  8.00000000E-01
  8.00000000E-01  1.50000000E+00  1.50000000E+00  8.00000000E-01  8.00000000E-01
  1.50000000E+00  1.50000000E+00  8.00000000E-01  8.00000000E-01  1.50000000E+00
  1.50000000E+00  8.00000000E-01  8.00000000E-01  1.50000000E+00  1.50000000E+00
  8.00000000E-01  8.00000000E-01  1.50000000E+00  1.50000000E+00  8.00000000E-01
  8.00000000E-01  1.50000000E+00  1.50000000E+00  8.00000000E-01  8.00000000E-01
  1.50000000E+00  1.50000000E+00  8.00000000E-01  8.00000000E-01  1.50000000E+00
  1.50000000E+00  8.00000000E-01  8.00000000E-01  1.50000000E+00  1.50000000E+00
  8.00000000E-01  8.00000000E-01  1.50000000E+00  1.50000000E+00  8.00000000E-01
  8.00000000E-01  1.50000000E+00  1.50000000E+00  8.00000000E-01  8.00000000E-01
  1.50000000E+00  1.50000000E+00  8.00000000E-01  8.00000000E-01  1.50000000E+00
  1.50000000E+00  8.00000000E-01  8.00000000E-01  1.50000000E+00  1.50000000E+00
  8.00000000E-01  8.00000000E-01  1.50000000E+00  1.50000000E+00  8.00000000E-01
  8.00000000E-01  1.50000000E+00  1.50000000E+00  8.00000000E-01  8.00000000E-01
  1.50000000E+00  1.50000000E+00  8.00000000E-01  8.00000000E-01  1.50000000E+00
  1.50000000E+00  8.00000000E-01  8.00000000E-01  1.50000000E+00  1.50000000E+00
  8.00000000E-01  8.00000000E-01  1.50000000E+00  1.50000000E+00  8.00000000E-01
  8.00000000E-01  1.50000000E+00  1.50000000E+00  8.00000000E-01  8.00000000E-01
  1.50000000E+00  1.50000000E+00  8.00000000E-01  8.00000000E-01  1.50000000E+00
  1.50000000E+00  8.00000000E-01  8.00000000E-01  1.50000000E+00  1.50000000E+00
  8.00000000E-01  8.00000000E-01  1.50000000E+00  1.50000000E+00  8.00000000E-01
  8.00000000E-01  1.50000000E+00  1.50000000E+00  8.00000000E-01  8.00000000E-01
  1.50000000E+00  1.50000000E+00  8.00000000E-01  8.00000000E-01  1.50000000E+00
  1.50000000E+00  8.00000000E-01  8.00000000E-01  1.50000000E+00  1.50000000E+00
  8.00000000E-01  8.00000000E-01  1.50000000E+00  1.50000000E+00  8.00000000E-01
  8.00000000E-01  1.50000000E+00  1.50000000E+00  8.00000000E-01  8.00000000E-01
  1.50000000E+00  1.50000000E+00  8.00000000E-01  8.00000000E-01  1.50000000E+00
  1.50000000E+00  8.00000000E-01  8.00000000E-01  1.50000000E+00  1.50000000E+00
  8.00000000E-01  8.00000000E-01  1.50000000E+00  1.50000000E+00  8.00000000E-01
  8.00000000E-01  1.50000000E+00  1.50000000E+00  8.00000000E-01  8.00000000E-01
  1.50000000E+00  1.50000000E+00  8.00000000E-01  8.00000000E-01  1.50000000E+00
  1.50000000E+00  8.00000000E-01  8.00000000E-01  1.50000000E+00  1.50000000E+00
  8.00000000E-01  8.00000000E-01  1.50000000E+00  1.50000000E+00  8.00000000E-01
  8.00000000E-01  1.50000000E+00  1.50000000E+00  8.00000000E-01  8.00000000E-01
  1.50000000E+00  1.50000000E+00  8.00000000E-01  8.00000000E-01  1.50000000E+00
  1.50000000E+00  8.00000000E-01  8.00000000E-01  1.50000000E+00  1.50000000E+00
  8.00000000E-01  8.00000000E-01  1.50000000E+00  1.50000000E+00  8.00000000E-01
  8.00000000E-01  1.50000000E+00  1.50000000E+00  8.00000000E-01  8.00000000E-01
  1.50000000E+00  1.50000000E+00  8.00000000E-01  8.00000000E-01  1.50000000E+00
  1.50000000E+00  8.00000000E-01  8.00000000E-01  1.50000000E+00  1.50000000E+00
  8.00000000E-01  8.00000000E-01  1.50000000E+00  1.50000000E+00  8.00000000E-01
  8.00000000E-01  1.50000000E+00  1.50000000E+00  8.00000000E-01  8.00000000E-01
  1.50000000E+00  1.50000000E+00  8.00000000E-01  8.00000000E-01  1.50000000E+00
  1.50000000E+00  8.00000000E-01  8.00000000E-01  1.50000000E+00  1.50000000E+00
  8.00000000E-01  8.00000000E-01  1.50000000E+00  1.50000000E+00  8.00000000E-01
  8.00000000E-01  1.50000000E+00  1.50000000E+00  8.00000000E-01  8.00000000E-01
  1.50000000E+00  1.50000000E+00  8.00000000E-01  8.00000000E-01  1.50000000E+00
  1.50000000E+00  8.00000000E-01  8.00000000E-01  1.50000000E+00  1.50000000E+00
  8.00000000E-01  8.00000000E-01  1.50000000E+00  1.50000000E+00  8.00000000E-01
  8.00000000E-01  1.50000000E+00  1.50000000E+00  8.00000000E-01  8.00000000E-01
  1.50000000E+00  1.50000000E+00  8.00000000E-01  8.00000000E-01  1.50000000E+00
  1.50000000E+00  8.00000000E-01  8.00000000E-01  1.50000000E+00  1.50000000E+00
  8.00000000E-01  8.00000000E-01  1.50000000E+00  1.50000000E+00  8.00000000E-01
  8.00000000E-01  1.50000000E+00  1.50000000E+00  8.00000000E-01  8.00000000E-01
  1.50000000E+00  1.50000000E+00  8.00000000E-01  8.00000000E-01  1.50000000E+00
  1.50000000E+00  8.00000000E-01  8.00000000E-01  1.50000000E+00  1.50000000E+00
  8.00000000E-01  8.00000000E-01  1.50000000E+00  1.50000000E+00  8.00000000E-01
  8.00000000E-01  1.50000000E+00  1.50000000E+00  8.00000000E-01  8.00000000E-01
  1.50000000E+00  1.50000000E+00  8.00000000E-01  8.00000000E-01  1.50000000E+00
  1.50000000E+00  8.00000000E-01  8.00000000E-01  1.50000000E+00  1.50000000E+00
  8.00000000E-01  8.00000000E-01  1.50000000E+00  1.50000000E+00  8.00000000E-01
  8.00000000E-01  1.50000000E+00  1.50000000E+00  8.00000000E-01  8.00000000E-01
  1.50000000E+00  1.50000000E+00  8.00000000E-01  8.00000000E-01  1.50000000E+00
  1.50000000E+00  8.00000000E-01  8.00000000E-01  1.50000000E+00  1.50000000E+00
  8.00000000E-01  8.00000000E-01  1.50000000E+00  1.50000000E+00  8.00000000E-01
  8.00000000E-01  1.50000000E+00  1.50000000E+00  8.00000000E-01  8.00000000E-01
  1.50000000E+00  1.50000000E+00  8.00000000E-01  8.00000000E-01  1.50000000E+00
  1.50000000E+00  8.00000000E-01  8.00000000E-01  1.50000000E+00  1.50000000E+00
  8.00000000E-01  8.00000000E-01  1.50000000E+00  1.50000000E+00  8.00000000E-01
  8.00000000E-01  1.50000000E+00  1.50000000E+00  8.00000000E-01  8.00000000E-01
  1.50000000E+00  1.50000000E+00  8.00000000E-01  8.00000000E-01  1.50000000E+00
  1.50000000E+00  8.00000000E-01  8.00000000E-01  1.50000000E+00  1.50000000E+00
  8.00000000E-01  8.00000000E-01  1.50000000E+00  1.50000000E+00  8.00000000E-01
  8.00000000E-01  1.50000000E+00  1.50000000E+00  8.00000000E-01  8.00000000E-01
  1.50000000E+00  1.50000000E+00  8.00000000E-01  8.00000000E-01  1.50000000E+00
  1.50000000E+00  8.00000000E-01  8.00000000E-01  1.50000000E+00  1.50000000E+00
  8.00000000E-01  8.00000000E-01  1.50000000E+00  1.50000000E+00  8.00000000E-01
  8.00000000E-01  1.50000000E+00  1.50000000E+00  8.00000000E-01  8.00000000E-01
  1.50000000E+00  1.50000000E+00  8.00000000E-01  8.00000000E-01  1.50000000E+00
  1.50000000E+00  8.00000000E-01  8.00000000E-01  1.50000000E+00  1.50000000E+00
  8.00000000E-01  8.00000000E-01  1.50000000E+00  1.50000000E+00  8.00000000E-01
  8.00000000E-01  1.50000000E+00  1.50000000E+00  8.00000000E-01  8.00000000E-01
  1.50000000E+00  1.50000000E+00  8.00000000E-01  8.00000000E-01  1.50000000E+00
  1.50000000E+00  8.00000000E-01  8.00000000E-01  1.50000000E+00  1.50000000E+00
  8.00000000E-01  8.00000000E-01  1.50000000E+00  1.50000000E+00  8.00000000E-01
  8.00000000E-01  1.50000000E+00  1.50000000E+00  8.00000000E-01  8.00000000E-01
  1.50000000E+00  1.50000000E+00  8.00000000E-01  8.00000000E-01  1.50000000E+00
  1.50000000E+00  8.00000000E-01  8.00000000E-01  1.50000000E+00  1.50000000E+00
  8.00000000E-01  8.00000000E-01  1.50000000E+00  1.50000000E+00  8.00000000E-01
  8.00000000E-01  1.50000000E+00  1.50000000E+00  8.00000000E-01  8.00000000E-01
  1.50000000E+00  1.50000000E+00  8.00000000E-01  8.00000000E-01  1.50000000E+00
  1.50000000E+00  8.00000000E-01  8.00000000E-01  1.50000000E+00  1.50000000E+00
  8.00000000E-01  8.00000000E-01  1.50000000E+00  1.50000000E+00  8.00000000E-01
  8.00000000E-01  1.50000000E+00  1.50000000E+00  8.00000000E-01  8.00000000E-01
  1.50000000E+00  1.50000000E+00  8.00000000E-01  8.00000000E-01  1.50000000E+00
  1.50000000E+00  8.00000000E-01  8.00000000E-01  1.50000000E+00  1.50000000E+00
  8.00000000E-01  8.00000000E-01  1.50000000E+00  1.50000000E+00  8.00000000E-01
  8.00000000E-01  1.50000000E+00  1.50000000E+00  8.00000000E-01  8.00000000E-01
  1.50000000E+00  1.50000000E+00  8.00000000E-01  8.00000000E-01  1.50000000E+00
  1.50000000E+00  8.00000000E-01  8.00000000E-01  1.50000000E+00  1.50000000E+00
  8.00000000E-01  8.00000000E-01  1.50000000E+00  1.50000000E+00  8.00000000E-01
  8.00000000E-01  1.50000000E+00  1.50000000E+00  8.00000000E-01  8.00000000E-01
  1.50000000E+00  1.50000000E+00  8.00000000E-01  8.00000000E-01  1.50000000E+00
  1.50000000E+00  8.00000000E-01  8.00000000E-01  1.50000000E+00  1.50000000E+00
  8.00000000E-01  8.00000000E-01  1.50000000E+00  1.50000000E+00  8.00000000E-01
  8.00000000E-01  1.50000000E+00  1.50000000E+00  8.00000000E-01  8.00000000E-01
  1.50000000E+00  1.50000000E+00  8.00000000E-01  8.00000000E-01  1.50000000E+00
  1.50000000E+00  8.00000000E-01  8.00000000E-01  1.50000000E+00  1.50000000E+00
  8.00000000E-01  8.00000000E-01  1.50000000E+00  1.50000000E+00  8.00000000E-01
  8.00000000E-01  1.50000000E+00  1.50000000E+00  8.00000000E-01  8.00000000E-01
  1.50000000E+00  1.50000000E+00  8.00000000E-01  8.00000000E-01  1.50000000E+00
  1.50000000E+00  8.00000000E-01  8.00000000E-01  1.50000000E+00  1.50000000E+00
  8.00000000E-01  8.00000000E-01  1.50000000E+00  1.50000000E+00  8.00000000E-01
  8.00000000E-01  1.50000000E+00  1.50000000E+00  8.00000000E-01  8.00000000E-01
  1.50000000E+00  1.50000000E+00  8.00000000E-01  8.00000000E-01  1.50000000E+00
  1.50000000E+00  8.00000000E-01  8.00000000E-01  1.50000000E+00  1.50000000E+00
  8.00000000E-01  8.00000000E-01  1.50000000E+00  1.50000000E+00  8.00000000E-01
  8.00000000E-01  1.50000000E+00  1.50000000E+00  8.00000000E-01  8.00000000E-01
  1.50000000E+00  1.50000000E+00  8.00000000E-01  8.00000000E-01  1.50000000E+00
  1.50000000E+00  8.00000000E-01  8.00000000E-01  1.50000000E+00  1.50000000E+00
  8.00000000E-01  8.00000000E-01  1.50000000E+00  1.50000000E+00  8.00000000E-01
  8.00000000E-01  1.50000000E+00  1.50000000E+00  8.00000000E-01  8.00000000E-01
  1.50000000E+00  1.50000000E+00  8.00000000E-01  8.00000000E-01  1.50000000E+00
  1.50000000E+00  8.00000000E-01  8.00000000E-01  1.50000000E+00  1.50000000E+00
  8.00000000E-01  8.00000000E-01  1.50000000E+00  1.50000000E+00  8.00000000E-01
  8.00000000E-01  1.50000000E+00  1.50000000E+00  8.00000000E-01  8.00000000E-01
  1.50000000E+00  1.50000000E+00  8.00000000E-01  8.00000000E-01  1.50000000E+00
  1.50000000E+00  8.00000000E-01  8.00000000E-01  1.50000000E+00  1.50000000E+00
  8.00000000E-01  8.00000000E-01  1.50000000E+00  1.50000000E+00  8.00000000E-01
  8.00000000E-01  1.50000000E+00  1.50000000E+00  8.00000000E-01  8.00000000E-01
  1.50000000E+00  1.50000000E+00  8.00000000E-01  8.00000000E-01  1.50000000E+00
  1.50000000E+00  8.00000000E-01  8.00000000E-01  1.50000000E+00  1.50000000E+00
  8.00000000E-01  8.00000000E-01  1.50000000E+00  1.50000000E+00  8.00000000E-01
  8.00000000E-01  1.50000000E+00  1.50000000E+00  8.00000000E-01  8.00000000E-01
  1.50000000E+00  1.50000000E+00  8.00000000E-01  8.00000000E-01  1.50000000E+00
  1.50000000E+00  8.00000000E-01  8.00000000E-01  1.50000000E+00  1.50000000E+00
  8.00000000E-01  8.00000000E-01  1.50000000E+00  1.50000000E+00  8.00000000E-01
  8.00000000E-01  1.50000000E+00  1.50000000E+00  8.00000000E-01  8.00000000E-01
  1.50000000E+00  1.50000000E+00  8.00000000E-01  8.00000000E-01  1.50000000E+00
  1.50000000E+00  8.00000000E-01  8.00000000E-01  1.50000000E+00  1.50000000E+00
  8.00000000E-01  8.00000000E-01  1.50000000E+00  1.50000000E+00  8.00000000E-01
  8.00000000E-01  1.50000000E+00  1.50000000E+00  8.00000000E-01  8.00000000E-01
  1.50000000E+00  1.50000000E+00  8.00000000E-01  8.00000000E-01  1.50000000E+00
  1.50000000E+00  8.00000000E-01  8.00000000E-01  1.50000000E+00  1.50000000E+00
  8.00000000E-01  8.00000000E-01  1.50000000E+00  1.50000000E+00  8.00000000E-01
  8.00000000E-01  1.50000000E+00  1.50000000E+00  8.00000000E-01  8.00000000E-01
  1.50000000E+00  1.50000000E+00  8.00000000E-01  8.00000000E-01  1.50000000E+00
  1.50000000E+00  8.00000000E-01  8.00000000E-01  1.50000000E+00  1.50000000E+00
  8.00000000E-01  8.00000000E-01  1.50000000E+00  1.50000000E+00  8.00000000E-01
  8.00000000E-01  1.50000000E+00  1.50000000E+00  8.00000000E-01  8.00000000E-01
  1.50000000E+00  1.50000000E+00  8.00000000E-01  8.00000000E-01  1.50000000E+00
  1.50000000E+00  8.00000000E-01  8.00000000E-01  1.50000000E+00  1.50000000E+00
  8.00000000E-01  8.00000000E-01  1.50000000E+00  1.50000000E+00  8.00000000E-01
  8.00000000E-01  1.50000000E+00  1.50000000E+00  8.00000000E-01  8.00000000E-01
  1.50000000E+00  1.50000000E+00  8.00000000E-01  8.00000000E-01  1.50000000E+00
  1.50000000E+00  8.00000000E-01  8.00000000E-01  1.50000000E+00  1.50000000E+00
  8.00000000E-01  8.00000000E-01  1.50000000E+00  1.50000000E+00  8.00000000E-01
  8.00000000E-01  1.50000000E+00  1.50000000E+00  8.00000000E-01  8.00000000E-01
  1.50000000E+00  1.50000000E+00  8.00000000E-01  8.00000000E-01  1.50000000E+00
  1.50000000E+00  8.00000000E-01  8.00000000E-01  1.50000000E+00  1.50000000E+00
  8.00000000E-01  8.00000000E-01  1.50000000E+00  1.50000000E+00  8.00000000E-01
  8.00000000E-01  1.50000000E+00  1.50000000E+00  8.00000000E-01  8.00000000E-01
  1.50000000E+00  1.50000000E+00  8.00000000E-01  8.00000000E-01  1.50000000E+00
  1.50000000E+00  8.00000000E-01  8.00000000E-01  1.50000000E+00  1.50000000E+00
  8.00000000E-01  8.00000000E-01  1.50000000E+00  1.50000000E+00  8.00000000E-01
  8.00000000E-01  1.50000000E+00  1.50000000E+00  8.00000000E-01  8.00000000E-01
  1.50000000E+00  1.50000000E+00  8.00000000E-01  8.00000000E-01  1.50000000E+00
  1.50000000E+00  8.00000000E-01  8.00000000E-01  1.50000000E+00  1.50000000E+00
  8.00000000E-01  8.00000000E-01  1.50000000E+00  1.50000000E+00  8.00000000E-01
  8.00000000E-01  1.50000000E+00  1.50000000E+00  8.00000000E-01  8.00000000E-01
  1.50000000E+00  1.50000000E+00  8.00000000E-01  8.00000000E-01  1.50000000E+00
  1.50000000E+00  8.00000000E-01  8.00000000E-01  1.50000000E+00  1.50000000E+00
  8.00000000E-01  8.00000000E-01  1.50000000E+00  1.50000000E+00  8.00000000E-01
  8.00000000E-01  1.50000000E+00  1.50000000E+00  8.00000000E-01  8.00000000E-01
  1.50000000E+00  1.50000000E+00  8.00000000E-01  8.00000000E-01  1.50000000E+00
  1.50000000E+00  8.00000000E-01  8.00000000E-01  1.50000000E+00  1.50000000E+00
  8.00000000E-01  8.00000000E-01  1.50000000E+00  1.50000000E+00  8.00000000E-01
  8.00000000E-01  1.50000000E+00  1.50000000E+00  8.00000000E-01  8.00000000E-01
  1.50000000E+00  1.50000000E+00  8.00000000E-01  8.00000000E-01  1.50000000E+00
  1.50000000E+00  8.00000000E-01  8.00000000E-01  1.50000000E+00  1.50000000E+00
  8.00000000E-01  8.00000000E-01  1.50000000E+00  1.50000000E+00  8.00000000E-01
  8.00000000E-01  1.50000000E+00  1.50000000E+00  8.00000000E-01  8.00000000E-01
  1.50000000E+00  1.50000000E+00  8.00000000E-01  8.00000000E-01  1.50000000E+00
  1.50000000E+00  8.00000000E-01  8.00000000E-01  1.50000000E+00  1.50000000E+00
  8.00000000E-01  8.00000000E-01  1.50000000E+00  1.50000000E+00  8.00000000E-01
  8.00000000E-01  1.50000000E+00  1.50000000E+00  8.00000000E-01  8.00000000E-01
  1.50000000E+00  1.50000000E+00  8.00000000E-01  8.00000000E-01  1.50000000E+00
  1.50000000E+00  8.00000000E-01  8.00000000E-01  1.50000000E+00  1.50000000E+00
  8.00000000E-01  8.00000000E-01  1.50000000E+00  1.50000000E+00  8.00000000E-01
  8.00000000E-01  1.50000000E+00  1.50000000E+00  8.00000000E-01  8.00000000E-01
  1.50000000E+00  1.50000000E+00  8.00000000E-01  8.00000000E-01  1.50000000E+00
  1.50000000E+00  8.00000000E-01  8.00000000E-01  1.50000000E+00  1.50000000E+00
  8.00000000E-01  8.00000000E-01  1.50000000E+00  1.50000000E+00  8.00000000E-01
  8.00000000E-01  1.50000000E+00  1.50000000E+00  8.00000000E-01  8.00000000E-01
  1.50000000E+00  1.50000000E+00  8.00000000E-01  8.00000000E-01  1.50000000E+00
  1.50000000E+00  8.00000000E-01  8.00000000E-01  1.50000000E+00  1.50000000E+00
  8.00000000E-01  8.00000000E-01  1.50000000E+00  1.50000000E+00  8.00000000E-01
  8.00000000E-01  1.50000000E+00  1.50000000E+00  8.00000000E-01  8.00000000E-01
  1.50000000E+00  1.50000000E+00  8.00000000E-01  8.00000000E-01  1.50000000E+00
  1.50000000E+00  8.00000000E-01  8.00000000E-01  1.50000000E+00  1.50000000E+00
  8.00000000E-01  8.00000000E-01  1.50000000E+00  1.50000000E+00  8.00000000E-01
  8.00000000E-01  1.50000000E+00  1.50000000E+00  8.00000000E-01  8.00000000E-01
  1.50000000E+00  1.50000000E+00  8.00000000E-01  8.00000000E-01  1.50000000E+00
  1.50000000E+00  8.00000000E-01  8.00000000E-01  1.50000000E+00  1.50000000E+00
  8.00000000E-01  8.00000000E-01  1.50000000E+00  1.50000000E+00  8.00000000E-01
  8.00000000E-01  1.50000000E+00  1.50000000E+00  8.00000000E-01  8.00000000E-01
  1.50000000E+00  1.50000000E+00  8.00000000E-01  8.00000000E-01  1.50000000E+00
  1.50000000E+00  8.00000000E-01  8.00000000E-01  1.50000000E+00  1.50000000E+00
  8.00000000E-01  8.00000000E-01  1.50000000E+00  1.50000000E+00  8.00000000E-01
  8.00000000E-01  1.50000000E+00  1.50000000E+00  8.00000000E-01  8.00000000E-01
  1.50000000E+00  1.50000000E+00  8.00000000E-01  8.00000000E-01  1.50000000E+00
  1.50000000E+00  8.00000000E-01  8.00000000E-01  1.50000000E+00  1.50000000E+00
  8.00000000E-01  8.00000000E-01  1.50000000E+00  1.50000000E+00  8.00000000E-01
  8.00000000E-01  1.50000000E+00  1.50000000E+00  8.00000000E-01  8.00000000E-01
  1.50000000E+00  1.50000000E+00  8.00000000E-01  8.00000000E-01  1.50000000E+00
  1.50000000E+00  8.00000000E-01  8.00000000E-01  1.50000000E+00  1.50000000E+00
  8.00000000E-01  8.00000000E-01  1.50000000E+00  1.50000000E+00  8.00000000E-01
  8.00000000E-01  1.50000000E+00  1.50000000E+00  8.00000000E-01  8.00000000E-01
  1.50000000E+00  1.50000000E+00  8.00000000E-01  8.00000000E-01  1.50000000E+00
  1.50000000E+00  8.00000000E-01  8.00000000E-01  1.50000000E+00  1.50000000E+00
  8.00000000E-01  8.00000000E-01  1.50000000E+00  1.50000000E+00  8.00000000E-01
  8.00000000E-01  1.50000000E+00  1.50000000E+00  8.00000000E-01  8.00000000E-01
  1.50000000E+00  1.50000000E+00  8.00000000E-01  8.00000000E-01  1.50000000E+00
  1.50000000E+00  8.00000000E-01  8.00000000E-01  1.50000000E+00  1.50000000E+00
  8.00000000E-01  8.00000000E-01  1.50000000E+00  1.50000000E+00  8.00000000E-01
  8.00000000E-01  1.50000000E+00  1.50000000E+00  8.00000000E-01  8.00000000E-01
  1.50000000E+00  1.50000000E+00  8.00000000E-01  8.00000000E-01  1.50000000E+00
  1.50000000E+00  8.00000000E-01  8.00000000E-01  1.50000000E+00  1.50000000E+00
  8.00000000E-01  8.00000000E-01  1.50000000E+00  1.50000000E+00  8.00000000E-01
  8.00000000E-01  1.50000000E+00  1.50000000E+00  8.00000000E-01  8.00000000E-01
  1.50000000E+00  1.50000000E+00  8.00000000E-01  8.00000000E-01  1.50000000E+00
  1.50000000E+00  8.00000000E-01  8.00000000E-01  1.50000000E+00  1.50000000E+00
  8.00000000E-01  8.00000000E-01  1.50000000E+00  1.50000000E+00  8.00000000E-01
  8.00000000E-01  1.50000000E+00  1.50000000E+00  8.00000000E-01  8.00000000E-01
  1.50000000E+00  1.50000000E+00  8.00000000E-01  8.00000000E-01  1.50000000E+00
  1.50000000E+00  8.00000000E-01  8.00000000E-01  1.50000000E+00  1.50000000E+00
  8.00000000E-01  8.00000000E-01  1.50000000E+00  1.50000000E+00  8.00000000E-01
  8.00000000E-01  1.50000000E+00  1.50000000E+00  8.00000000E-01  8.00000000E-01
  1.50000000E+00  1.50000000E+00  8.00000000E-01  8.00000000E-01  1.50000000E+00
  1.50000000E+00  8.00000000E-01  8.00000000E-01  1.50000000E+00  1.50000000E+00
  8.00000000E-01  8.00000000E-01  1.50000000E+00  1.50000000E+00  8.00000000E-01
  8.00000000E-01  1.50000000E+00  1.50000000E+00  8.00000000E-01  8.00000000E-01
  1.50000000E+00  1.50000000E+00  8.00000000E-01  8.00000000E-01  1.50000000E+00
  1.50000000E+00  8.00000000E-01  8.00000000E-01  1.50000000E+00  1.50000000E+00
  8.00000000E-01  8.00000000E-01  1.50000000E+00  1.50000000E+00  8.00000000E-01
  8.00000000E-01  1.50000000E+00  1.50000000E+00  8.00000000E-01  8.00000000E-01
  1.50000000E+00  1.50000000E+00  8.00000000E-01  8.00000000E-01  1.50000000E+00
  1.50000000E+00  8.00000000E-01  8.00000000E-01  1.50000000E+00  1.50000000E+00
  8.00000000E-01  8.00000000E-01  1.50000000E+00  1.50000000E+00  8.00000000E-01
  8.00000000E-01  1.50000000E+00  1.50000000E+00  8.00000000E-01  8.00000000E-01
  1.50000000E+00  1.50000000E+00  8.00000000E-01  8.00000000E-01  1.50000000E+00
  1.50000000E+00  8.00000000E-01  8.00000000E-01  1.50000000E+00  1.50000000E+00
  8.00000000E-01  8.00000000E-01  1.50000000E+00  1.50000000E+00  8.00000000E-01
  8.00000000E-01  1.50000000E+00  1.50000000E+00  8.00000000E-01  8.00000000E-01
  1.50000000E+00  1.50000000E+00  8.00000000E-01  8.00000000E-01  1.50000000E+00
  1.50000000E+00  8.00000000E-01  8.00000000E-01  1.50000000E+00  1.50000000E+00
  8.00000000E-01  8.00000000E-01  1.50000000E+00  1.50000000E+00  8.00000000E-01
  8.00000000E-01  1.50000000E+00  1.50000000E+00  8.00000000E-01  8.00000000E-01
  1.50000000E+00  1.50000000E+00  8.00000000E-01  8.00000000E-01  1.50000000E+00
  1.50000000E+00  8.00000000E-01  8.00000000E-01  1.50000000E+00  1.50000000E+00
  8.00000000E-01  8.00000000E-01  1.50000000E+00  1.50000000E+00  8.00000000E-01
  8.00000000E-01  1.50000000E+00  1.50000000E+00  8.00000000E-01  8.00000000E-01
  1.50000000E+00  1.50000000E+00  8.00000000E-01  8.00000000E-01  1.50000000E+00
  1.50000000E+00  8.00000000E-01  8.00000000E-01  1.50000000E+00  1.50000000E+00
  8.00000000E-01  8.00000000E-01  1.50000000E+00  1.50000000E+00  8.00000000E-01
  8.00000000E-01  1.50000000E+00  1.50000000E+00  8.00000000E-01  8.00000000E-01
  1.50000000E+00  1.50000000E+00  8.00000000E-01  8.00000000E-01  1.50000000E+00
  1.50000000E+00  8.00000000E-01  8.00000000E-01  1.50000000E+00  1.50000000E+00
  8.00000000E-01  8.00000000E-01  1.50000000E+00  1.50000000E+00  8.00000000E-01
  8.00000000E-01  1.50000000E+00  1.50000000E+00  8.00000000E-01  8.00000000E-01
  1.50000000E+00  1.50000000E+00  8.00000000E-01  8.00000000E-01  1.50000000E+00
  1.50000000E+00  8.00000000E-01  8.00000000E-01  1.50000000E+00  1.50000000E+00
  8.00000000E-01  8.00000000E-01  1.50000000E+00  1.50000000E+00  8.00000000E-01
  8.00000000E-01  1.50000000E+00  1.50000000E+00  8.00000000E-01  8.00000000E-01
  1.50000000E+00  1.50000000E+00  8.00000000E-01  8.00000000E-01  1.50000000E+00
  1.50000000E+00  8.00000000E-01  8.00000000E-01  1.50000000E+00  1.50000000E+00
  8.00000000E-01  8.00000000E-01  1.50000000E+00  1.50000000E+00  8.00000000E-01
  8.00000000E-01  1.50000000E+00  1.50000000E+00  8.00000000E-01  8.00000000E-01
  1.50000000E+00  1.50000000E+00  8.00000000E-01  8.00000000E-01  1.50000000E+00
  1.50000000E+00  8.00000000E-01  8.00000000E-01  1.50000000E+00  1.50000000E+00
  8.00000000E-01  8.00000000E-01  1.50000000E+00  1.50000000E+00  8.00000000E-01
  8.00000000E-01  1.50000000E+00  1.50000000E+00  8.00000000E-01  8.00000000E-01
  1.50000000E+00  1.50000000E+00  8.00000000E-01  8.00000000E-01  1.50000000E+00
  1.50000000E+00  8.00000000E-01  8.00000000E-01  1.50000000E+00  1.50000000E+00
  8.00000000E-01  8.00000000E-01  1.50000000E+00  1.50000000E+00  8.00000000E-01
  8.00000000E-01  1.50000000E+00  1.50000000E+00  8.00000000E-01  8.00000000E-01
  1.50000000E+00  1.50000000E+00  8.00000000E-01  8.00000000E-01  1.50000000E+00
  1.50000000E+00  8.00000000E-01  8.00000000E-01  1.50000000E+00  1.50000000E+00
  8.00000000E-01  8.00000000E-01  1.50000000E+00  1.50000000E+00  8.00000000E-01
  8.00000000E-01  1.50000000E+00  1.50000000E+00  8.00000000E-01  8.00000000E-01
  1.50000000E+00  1.50000000E+00  8.00000000E-01  8.00000000E-01  1.50000000E+00
  1.50000000E+00  8.00000000E-01  8.00000000E-01  1.50000000E+00  1.50000000E+00
  8.00000000E-01  8.00000000E-01  1.50000000E+00  1.50000000E+00  8.00000000E-01
  8.00000000E-01  1.50000000E+00  1.50000000E+00  8.00000000E-01  8.00000000E-01
  1.50000000E+00  1.50000000E+00  8.00000000E-01  8.00000000E-01  1.50000000E+00
  1.50000000E+00  8.00000000E-01  8.00000000E-01  1.50000000E+00  1.50000000E+00
  8.00000000E-01  8.00000000E-01  1.50000000E+00  1.50000000E+00  8.00000000E-01
  8.00000000E-01  1.50000000E+00  1.50000000E+00  8.00000000E-01  8.00000000E-01
  1.50000000E+00  1.50000000E+00  8.00000000E-01  8.00000000E-01  1.50000000E+00
  1.50000000E+00  8.00000000E-01  8.00000000E-01  1.50000000E+00  1.50000000E+00
  8.00000000E-01  8.00000000E-01  1.50000000E+00  1.50000000E+00  8.00000000E-01
  8.00000000E-01  1.50000000E+00  1.50000000E+00  8.00000000E-01  8.00000000E-01
  1.50000000E+00  1.50000000E+00  8.00000000E-01  8.00000000E-01  1.50000000E+00
  1.50000000E+00  8.00000000E-01  8.00000000E-01  1.50000000E+00  1.50000000E+00
  8.00000000E-01  8.00000000E-01  1.50000000E+00  1.50000000E+00  8.00000000E-01
  8.00000000E-01  1.50000000E+00  1.50000000E+00  8.00000000E-01  8.00000000E-01
  1.50000000E+00  1.50000000E+00  8.00000000E-01  8.00000000E-01  1.50000000E+00
  1.50000000E+00  8.00000000E-01  8.00000000E-01  1.50000000E+00  1.50000000E+00
  8.00000000E-01  8.00000000E-01  1.50000000E+00  1.50000000E+00  8.00000000E-01
  8.00000000E-01  1.50000000E+00  1.50000000E+00  8.00000000E-01  8.00000000E-01
  1.50000000E+00  1.50000000E+00  8.00000000E-01  8.00000000E-01  1.50000000E+00
  1.50000000E+00  8.00000000E-01  8.00000000E-01  1.50000000E+00  1.50000000E+00
  8.00000000E-01  8.00000000E-01  1.50000000E+00  1.50000000E+00  8.00000000E-01
  8.00000000E-01  1.50000000E+00  1.50000000E+00  8.00000000E-01  8.00000000E-01
  1.50000000E+00  1.50000000E+00  8.00000000E-01  8.00000000E-01  1.50000000E+00
  1.50000000E+00  8.00000000E-01  8.00000000E-01  1.50000000E+00  1.50000000E+00
  8.00000000E-01  8.00000000E-01  1.50000000E+00  1.50000000E+00  8.00000000E-01
  8.00000000E-01  1.50000000E+00  1.50000000E+00  8.00000000E-01  8.00000000E-01
  1.50000000E+00  1.50000000E+00  8.00000000E-01  8.00000000E-01  1.50000000E+00
  1.50000000E+00  8.00000000E-01  8.00000000E-01  1.50000000E+00  1.50000000E+00
  8.00000000E-01  8.00000000E-01  1.50000000E+00  1.50000000E+00  8.00000000E-01
  8.00000000E-01  1.50000000E+00  1.50000000E+00  8.00000000E-01  8.00000000E-01
  1.50000000E+00  1.50000000E+00  8.00000000E-01  8.00000000E-01  1.50000000E+00
  1.50000000E+00  8.00000000E-01  8.00000000E-01  1.50000000E+00  1.50000000E+00
  8.00000000E-01  8.00000000E-01  1.50000000E+00  1.50000000E+00  8.00000000E-01
  8.00000000E-01  1.50000000E+00  1.50000000E+00  8.00000000E-01  8.00000000E-01
  1.50000000E+00  1.50000000E+00  8.00000000E-01  8.00000000E-01  1.50000000E+00
  1.50000000E+00  8.00000000E-01  8.00000000E-01  1.50000000E+00  1.50000000E+00
  8.00000000E-01  8.00000000E-01  1.50000000E+00  1.50000000E+00  8.00000000E-01
  8.00000000E-01  1.50000000E+00  1.50000000E+00  8.00000000E-01  8.00000000E-01
  1.50000000E+00  1.50000000E+00  8.00000000E-01  8.00000000E-01  1.50000000E+00
  1.50000000E+00  8.00000000E-01  8.00000000E-01  1.50000000E+00  1.50000000E+00
  8.00000000E-01  8.00000000E-01  1.50000000E+00  1.50000000E+00  8.00000000E-01
  8.00000000E-01  1.50000000E+00  1.50000000E+00  8.00000000E-01  8.00000000E-01
  1.50000000E+00  1.50000000E+00  8.00000000E-01  8.00000000E-01  1.50000000E+00
  1.50000000E+00  8.00000000E-01  8.00000000E-01  1.50000000E+00  1.50000000E+00
  8.00000000E-01  8.00000000E-01  1.50000000E+00  1.50000000E+00  8.00000000E-01
  8.00000000E-01  1.50000000E+00  1.50000000E+00  8.00000000E-01  8.00000000E-01
  1.50000000E+00  1.50000000E+00  8.00000000E-01  8.00000000E-01  1.50000000E+00
  1.50000000E+00  8.00000000E-01  8.00000000E-01  1.50000000E+00  1.50000000E+00
  8.00000000E-01  8.00000000E-01  1.50000000E+00  1.50000000E+00  8.00000000E-01
  8.00000000E-01  1.50000000E+00  1.50000000E+00  8.00000000E-01  8.00000000E-01
  1.50000000E+00  1.50000000E+00  8.00000000E-01  8.00000000E-01  1.50000000E+00
  1.50000000E+00  8.00000000E-01  8.00000000E-01  1.50000000E+00  1.50000000E+00
  8.00000000E-01  8.00000000E-01  1.50000000E+00  1.50000000E+00  8.00000000E-01
  8.00000000E-01  1.50000000E+00  1.50000000E+00  8.00000000E-01  8.00000000E-01
  1.50000000E+00  1.50000000E+00  8.00000000E-01  8.00000000E-01  1.50000000E+00
  1.50000000E+00  8.00000000E-01  8.00000000E-01  1.50000000E+00  1.50000000E+00
  8.00000000E-01  8.00000000E-01  1.50000000E+00  1.50000000E+00  8.00000000E-01
  8.00000000E-01  1.50000000E+00  1.50000000E+00  8.00000000E-01  8.00000000E-01
  1.50000000E+00  1.50000000E+00  8.00000000E-01  8.00000000E-01  1.50000000E+00
  1.50000000E+00  8.00000000E-01  8.00000000E-01  1.50000000E+00  1.50000000E+00
  8.00000000E-01  8.00000000E-01  1.50000000E+00  1.50000000E+00  8.00000000E-01
  8.00000000E-01  1.50000000E+00  1.50000000E+00  8.00000000E-01  8.00000000E-01
  1.50000000E+00  1.50000000E+00  8.00000000E-01  8.00000000E-01  1.50000000E+00
  1.50000000E+00  8.00000000E-01  8.00000000E-01  1.50000000E+00  1.50000000E+00
  8.00000000E-01  8.00000000E-01  1.50000000E+00  1.50000000E+00  8.00000000E-01
  8.00000000E-01  1.50000000E+00  1.50000000E+00  8.00000000E-01  8.00000000E-01
  1.50000000E+00  1.50000000E+00  8.00000000E-01  8.00000000E-01  1.50000000E+00
  1.50000000E+00  8.00000000E-01  8.00000000E-01  1.50000000E+00  1.50000000E+00
  8.00000000E-01  8.00000000E-01  1.50000000E+00  1.50000000E+00  8.00000000E-01
  8.00000000E-01  1.50000000E+00  1.50000000E+00  8.00000000E-01  8.00000000E-01
  1.50000000E+00  1.50000000E+00  8.00000000E-01  8.00000000E-01  1.50000000E+00
  1.50000000E+00  8.00000000E-01  8.00000000E-01  1.50000000E+00  1.50000000E+00
  8.00000000E-01  8.00000000E-01  1.50000000E+00  1.50000000E+00  8.00000000E-01
  8.00000000E-01  1.50000000E+00  1.50000000E+00  8.00000000E-01  8.00000000E-01
  1.50000000E+00  1.50000000E+00  8.00000000E-01  8.00000000E-01  1.50000000E+00
  1.50000000E+00  8.00000000E-01  8.00000000E-01  1.50000000E+00  1.50000000E+00
  8.00000000E-01  8.00000000E-01  1.50000000E+00  1.50000000E+00  8.00000000E-01
  8.00000000E-01  1.50000000E+00  1.50000000E+00  8.00000000E-01  8.00000000E-01
  1.50000000E+00  1.50000000E+00  8.00000000E-01  8.00000000E-01  1.50000000E+00
  1.50000000E+00  8.00000000E-01  8.00000000E-01  1.50000000E+00  1.50000000E+00
  8.00000000E-01  8.00000000E-01  1.50000000E+00  1.50000000E+00  8.00000000E-01
  8.00000000E-01  1.50000000E+00  1.50000000E+00  8.00000000E-01  8.00000000E-01
  1.50000000E+00  1.50000000E+00  8.00000000E-01  8.00000000E-01  1.50000000E+00
  1.50000000E+00  8.00000000E-01  8.00000000E-01  1.50000000E+00  1.50000000E+00
  8.00000000E-01  8.00000000E-01  1.50000000E+00  1.50000000E+00  8.00000000E-01
  8.00000000E-01  1.50000000E+00  1.50000000E+00  8.00000000E-01  8.00000000E-01
  1.50000000E+00  1.50000000E+00  8.00000000E-01  8.00000000E-01  1.50000000E+00
  1.50000000E+00  8.00000000E-01  8.00000000E-01  1.50000000E+00  1.50000000E+00
  8.00000000E-01  8.00000000E-01  1.50000000E+00  1.50000000E+00  8.00000000E-01
  8.00000000E-01  1.50000000E+00  1.50000000E+00  8.00000000E-01  8.00000000E-01
  1.50000000E+00  1.50000000E+00  8.00000000E-01  8.00000000E-01  1.50000000E+00
  1.50000000E+00  8.00000000E-01  8.00000000E-01  1.50000000E+00  1.50000000E+00
  8.00000000E-01  8.00000000E-01  1.50000000E+00  1.50000000E+00  8.00000000E-01
  8.00000000E-01  1.50000000E+00  1.50000000E+00  8.00000000E-01  8.00000000E-01
  1.50000000E+00  1.50000000E+00  8.00000000E-01  8.00000000E-01  1.50000000E+00
  1.50000000E+00  8.00000000E-01  8.00000000E-01  1.50000000E+00  1.50000000E+00
  8.00000000E-01  8.00000000E-01  1.50000000E+00  1.50000000E+00  8.00000000E-01
  8.00000000E-01  1.50000000E+00  1.50000000E+00  8.00000000E-01  8.00000000E-01
  1.50000000E+00  1.50000000E+00  8.00000000E-01  8.00000000E-01  1.50000000E+00
  1.50000000E+00  8.00000000E-01  8.00000000E-01  1.50000000E+00  1.50000000E+00
  8.00000000E-01  8.00000000E-01  1.50000000E+00  1.50000000E+00  8.00000000E-01
  8.00000000E-01  1.50000000E+00  1.50000000E+00  8.00000000E-01  8.00000000E-01
  1.50000000E+00  1.50000000E+00  8.00000000E-01  8.00000000E-01  1.50000000E+00
  1.50000000E+00  8.00000000E-01  8.00000000E-01  1.50000000E+00  1.50000000E+00
  8.00000000E-01  8.00000000E-01  1.50000000E+00  1.50000000E+00  8.00000000E-01
  8.00000000E-01  1.50000000E+00  1.50000000E+00  8.00000000E-01  8.00000000E-01
  1.50000000E+00  1.50000000E+00  8.00000000E-01  8.00000000E-01  1.50000000E+00
  1.50000000E+00  8.00000000E-01  8.00000000E-01  1.50000000E+00  1.50000000E+00
  8.00000000E-01  8.00000000E-01  1.50000000E+00  1.50000000E+00  8.00000000E-01
  8.00000000E-01  1.50000000E+00  1.50000000E+00  8.00000000E-01  8.00000000E-01
  1.50000000E+00  1.50000000E+00  8.00000000E-01  8.00000000E-01  1.50000000E+00
  1.50000000E+00  8.00000000E-01  8.00000000E-01  1.50000000E+00  1.50000000E+00
  8.00000000E-01  8.00000000E-01  1.50000000E+00  1.50000000E+00  8.00000000E-01
  8.00000000E-01  1.50000000E+00  1.50000000E+00  8.00000000E-01  8.00000000E-01
  1.50000000E+00  1.50000000E+00  8.00000000E-01  8.00000000E-01  1.50000000E+00
  1.50000000E+00  8.00000000E-01  8.00000000E-01  1.50000000E+00  1.50000000E+00
  8.00000000E-01  8.00000000E-01  1.50000000E+00  1.50000000E+00  8.00000000E-01
  8.00000000E-01  1.50000000E+00  1.50000000E+00  8.00000000E-01  8.00000000E-01
  1.50000000E+00  1.50000000E+00  8.00000000E-01  8.00000000E-01  1.50000000E+00
  1.50000000E+00  8.00000000E-01  8.00000000E-01  1.50000000E+00  1.50000000E+00
  8.00000000E-01  8.00000000E-01  1.50000000E+00  1.50000000E+00  8.00000000E-01
  8.00000000E-01  1.50000000E+00  1.50000000E+00  8.00000000E-01  8.00000000E-01
  1.50000000E+00  1.50000000E+00  8.00000000E-01  8.00000000E-01  1.50000000E+00
  1.50000000E+00  8.00000000E-01  8.00000000E-01  1.50000000E+00  1.50000000E+00
  8.00000000E-01  8.00000000E-01  1.50000000E+00  1.50000000E+00  8.00000000E-01
  8.00000000E-01  1.50000000E+00  1.50000000E+00  8.00000000E-01  8.00000000E-01
  1.50000000E+00  1.50000000E+00  8.00000000E-01  8.00000000E-01  1.50000000E+00
  1.50000000E+00  8.00000000E-01  8.00000000E-01  1.50000000E+00  1.50000000E+00
  8.00000000E-01  8.00000000E-01  1.50000000E+00  1.50000000E+00  8.00000000E-01
  8.00000000E-01  1.50000000E+00  1.50000000E+00  8.00000000E-01  8.00000000E-01
  1.50000000E+00  1.50000000E+00  8.00000000E-01  8.00000000E-01  1.50000000E+00
  1.50000000E+00  8.00000000E-01  8.00000000E-01  1.50000000E+00  1.50000000E+00
  8.00000000E-01  8.00000000E-01  1.50000000E+00  1.50000000E+00  8.00000000E-01
  8.00000000E-01  1.50000000E+00  1.50000000E+00  8.00000000E-01  8.00000000E-01
  1.50000000E+00  1.50000000E+00  8.00000000E-01  8.00000000E-01  1.50000000E+00
  1.50000000E+00  8.00000000E-01  8.00000000E-01  1.50000000E+00  1.50000000E+00
  8.00000000E-01  8.00000000E-01  1.50000000E+00  1.50000000E+00  8.00000000E-01
  8.00000000E-01  1.50000000E+00  1.50000000E+00  8.00000000E-01  8.00000000E-01
  1.50000000E+00  1.50000000E+00  8.00000000E-01  8.00000000E-01  1.50000000E+00
  1.50000000E+00  8.00000000E-01  8.00000000E-01  1.50000000E+00  1.50000000E+00
  8.00000000E-01  8.00000000E-01  1.50000000E+00  1.50000000E+00  8.00000000E-01
  8.00000000E-01  1.50000000E+00  1.50000000E+00  8.00000000E-01  8.00000000E-01
  1.50000000E+00  1.50000000E+00  8.00000000E-01  8.00000000E-01  1.50000000E+00
  1.50000000E+00  8.00000000E-01  8.00000000E-01  1.50000000E+00  1.50000000E+00
  8.00000000E-01  8.00000000E-01  1.50000000E+00  1.50000000E+00  8.00000000E-01
  8.00000000E-01  1.50000000E+00  1.50000000E+00  8.00000000E-01  8.00000000E-01
  1.50000000E+00  1.50000000E+00  8.00000000E-01  8.00000000E-01  1.50000000E+00
  1.50000000E+00  8.00000000E-01  8.00000000E-01  1.50000000E+00  1.50000000E+00
  8.00000000E-01  8.00000000E-01  1.50000000E+00  1.50000000E+00  8.00000000E-01
  8.00000000E-01  1.50000000E+00  1.50000000E+00  8.00000000E-01  8.00000000E-01
  1.50000000E+00  1.50000000E+00  8.00000000E-01  8.00000000E-01  1.50000000E+00
  1.50000000E+00  8.00000000E-01  8.00000000E-01  1.50000000E+00  1.50000000E+00
  8.00000000E-01  8.00000000E-01  1.50000000E+00  1.50000000E+00  8.00000000E-01
  8.00000000E-01  1.50000000E+00  1.50000000E+00  8.00000000E-01  8.00000000E-01
  1.50000000E+00  1.50000000E+00  8.00000000E-01  8.00000000E-01  1.50000000E+00
  1.50000000E+00  8.00000000E-01  8.00000000E-01  1.50000000E+00  1.50000000E+00
  8.00000000E-01  8.00000000E-01  1.50000000E+00  1.50000000E+00  8.00000000E-01
  8.00000000E-01  1.50000000E+00  1.50000000E+00  8.00000000E-01  8.00000000E-01
  1.50000000E+00  1.50000000E+00  8.00000000E-01  8.00000000E-01  1.50000000E+00
  1.50000000E+00  8.00000000E-01  8.00000000E-01  1.50000000E+00  1.50000000E+00
  8.00000000E-01  8.00000000E-01  1.50000000E+00  1.50000000E+00  8.00000000E-01
  8.00000000E-01  1.50000000E+00  1.50000000E+00  8.00000000E-01  8.00000000E-01
  1.50000000E+00  1.50000000E+00  8.00000000E-01  8.00000000E-01  1.50000000E+00
  1.50000000E+00  8.00000000E-01  8.00000000E-01  1.50000000E+00  1.50000000E+00
  8.00000000E-01  8.00000000E-01  1.50000000E+00  1.50000000E+00  8.00000000E-01
  8.00000000E-01  1.50000000E+00  1.50000000E+00  8.00000000E-01  8.00000000E-01
  1.50000000E+00  1.50000000E+00  8.00000000E-01  8.00000000E-01  1.50000000E+00
  1.50000000E+00  8.00000000E-01  8.00000000E-01  1.50000000E+00  1.50000000E+00
  8.00000000E-01  8.00000000E-01  1.50000000E+00  1.50000000E+00  8.00000000E-01
  8.00000000E-01  1.50000000E+00  1.50000000E+00  8.00000000E-01  8.00000000E-01
  1.50000000E+00  1.50000000E+00  8.00000000E-01  8.00000000E-01  1.50000000E+00
  1.50000000E+00  8.00000000E-01  8.00000000E-01  1.50000000E+00  1.50000000E+00
  8.00000000E-01  8.00000000E-01  1.50000000E+00  1.50000000E+00  8.00000000E-01
  8.00000000E-01  1.50000000E+00  1.50000000E+00  8.00000000E-01  8.00000000E-01
  1.50000000E+00  1.50000000E+00  8.00000000E-01  8.00000000E-01  1.50000000E+00
  1.50000000E+00  8.00000000E-01  8.00000000E-01  1.50000000E+00  1.50000000E+00
  8.00000000E-01  8.00000000E-01  1.50000000E+00  1.50000000E+00  8.00000000E-01
  8.00000000E-01  1.50000000E+00  1.50000000E+00  8.00000000E-01  8.00000000E-01
  1.50000000E+00  1.50000000E+00  8.00000000E-01  8.00000000E-01  1.50000000E+00
  1.50000000E+00  8.00000000E-01  8.00000000E-01  1.50000000E+00  1.50000000E+00
  8.00000000E-01  8.00000000E-01  1.50000000E+00  1.50000000E+00  8.00000000E-01
  8.00000000E-01  1.50000000E+00  1.50000000E+00  8.00000000E-01  8.00000000E-01
  1.50000000E+00  1.50000000E+00  8.00000000E-01  8.00000000E-01  1.50000000E+00
  1.50000000E+00  8.00000000E-01  8.00000000E-01  1.50000000E+00  1.50000000E+00
  8.00000000E-01  8.00000000E-01  1.50000000E+00  1.50000000E+00  8.00000000E-01
  8.00000000E-01  1.50000000E+00  1.50000000E+00  8.00000000E-01  8.00000000E-01
  1.50000000E+00  1.50000000E+00  8.00000000E-01  8.00000000E-01  1.50000000E+00
  1.50000000E+00  8.00000000E-01  8.00000000E-01  1.50000000E+00  1.50000000E+00
  8.00000000E-01  8.00000000E-01  1.50000000E+00  1.50000000E+00  8.00000000E-01
  8.00000000E-01  1.50000000E+00  1.50000000E+00  8.00000000E-01  8.00000000E-01
  1.50000000E+00  1.50000000E+00  8.00000000E-01  8.00000000E-01  1.50000000E+00
  1.50000000E+00  8.00000000E-01  8.00000000E-01  1.50000000E+00  1.50000000E+00
  8.00000000E-01  8.00000000E-01  1.50000000E+00  1.50000000E+00  8.00000000E-01
  8.00000000E-01  1.50000000E+00  1.50000000E+00  8.00000000E-01  8.00000000E-01
  1.50000000E+00  1.50000000E+00  8.00000000E-01  8.00000000E-01  1.50000000E+00
  1.50000000E+00  8.00000000E-01  8.00000000E-01  1.50000000E+00  1.50000000E+00
  8.00000000E-01  8.00000000E-01  1.50000000E+00  1.50000000E+00  8.00000000E-01
  8.00000000E-01  1.50000000E+00  1.50000000E+00  8.00000000E-01  8.00000000E-01
  1.50000000E+00  1.50000000E+00  8.00000000E-01  8.00000000E-01  1.50000000E+00
  1.50000000E+00  8.00000000E-01  8.00000000E-01  1.50000000E+00  1.50000000E+00
  8.00000000E-01  8.00000000E-01  1.50000000E+00  1.50000000E+00  8.00000000E-01
  8.00000000E-01  1.50000000E+00  1.50000000E+00  8.00000000E-01  8.00000000E-01
  1.50000000E+00  1.50000000E+00  8.00000000E-01  8.00000000E-01  1.50000000E+00
  1.50000000E+00  8.00000000E-01  8.00000000E-01  1.50000000E+00  1.50000000E+00
  8.00000000E-01  8.00000000E-01  1.50000000E+00  1.50000000E+00  8.00000000E-01
  8.00000000E-01  1.50000000E+00  1.50000000E+00  8.00000000E-01  8.00000000E-01
  1.50000000E+00  1.50000000E+00  8.00000000E-01  8.00000000E-01  1.50000000E+00
  1.50000000E+00  8.00000000E-01  8.00000000E-01  1.50000000E+00  1.50000000E+00
  8.00000000E-01  8.00000000E-01  1.50000000E+00  1.50000000E+00  8.00000000E-01
  8.00000000E-01  1.50000000E+00  1.50000000E+00  8.00000000E-01  8.00000000E-01
  1.50000000E+00  1.50000000E+00  8.00000000E-01  8.00000000E-01  1.50000000E+00
  1.50000000E+00  8.00000000E-01  8.00000000E-01  1.50000000E+00  1.50000000E+00
  8.00000000E-01  8.00000000E-01  1.50000000E+00  1.50000000E+00  8.00000000E-01
  8.00000000E-01  1.50000000E+00  1.50000000E+00  8.00000000E-01  8.00000000E-01
  1.50000000E+00  1.50000000E+00  8.00000000E-01  8.00000000E-01  1.50000000E+00
  1.50000000E+00  8.00000000E-01  8.00000000E-01  1.50000000E+00  1.50000000E+00
  8.00000000E-01  8.00000000E-01  1.50000000E+00  1.50000000E+00  8.00000000E-01
  8.00000000E-01  1.50000000E+00  1.50000000E+00  8.00000000E-01  8.00000000E-01
  1.50000000E+00  1.50000000E+00  8.00000000E-01  8.00000000E-01  1.50000000E+00
  1.50000000E+00  8.00000000E-01  8.00000000E-01  1.50000000E+00  1.50000000E+00
  8.00000000E-01  8.00000000E-01  1.50000000E+00  1.50000000E+00  8.00000000E-01
  8.00000000E-01  1.50000000E+00  1.50000000E+00  8.00000000E-01  8.00000000E-01
  1.50000000E+00  1.50000000E+00  8.00000000E-01  8.00000000E-01  1.50000000E+00
  1.50000000E+00  8.00000000E-01  8.00000000E-01  1.50000000E+00  1.50000000E+00
  8.00000000E-01  8.00000000E-01  1.50000000E+00  1.50000000E+00  8.00000000E-01
  8.00000000E-01  1.50000000E+00  1.50000000E+00  8.00000000E-01  8.00000000E-01
  1.50000000E+00  1.50000000E+00  8.00000000E-01  8.00000000E-01  1.50000000E+00
  1.50000000E+00  8.00000000E-01  8.00000000E-01  1.50000000E+00  1.50000000E+00
  8.00000000E-01  8.00000000E-01  1.50000000E+00  1.50000000E+00  8.00000000E-01
  8.00000000E-01  1.50000000E+00  1.50000000E+00  8.00000000E-01  8.00000000E-01
  1.50000000E+00  1.50000000E+00  8.00000000E-01  8.00000000E-01  1.50000000E+00
  1.50000000E+00  8.00000000E-01  8.00000000E-01  1.50000000E+00  1.50000000E+00
  8.00000000E-01  8.00000000E-01  1.50000000E+00  1.50000000E+00  8.00000000E-01
  8.00000000E-01  1.50000000E+00  1.50000000E+00  8.00000000E-01  8.00000000E-01
  1.50000000E+00  1.50000000E+00  8.00000000E-01  8.00000000E-01  1.50000000E+00
  1.50000000E+00  8.00000000E-01  8.00000000E-01  1.50000000E+00  1.50000000E+00
  8.00000000E-01  8.00000000E-01  1.50000000E+00  1.50000000E+00  8.00000000E-01
  8.00000000E-01  1.50000000E+00  1.50000000E+00  8.00000000E-01  8.00000000E-01
  1.50000000E+00  1.50000000E+00  8.00000000E-01  8.00000000E-01  1.50000000E+00
  1.50000000E+00  8.00000000E-01  8.00000000E-01  1.50000000E+00  1.50000000E+00
  8.00000000E-01  8.00000000E-01  1.50000000E+00  1.50000000E+00  8.00000000E-01
  8.00000000E-01  1.50000000E+00  1.50000000E+00  8.00000000E-01  8.00000000E-01
  1.50000000E+00  1.50000000E+00  8.00000000E-01  8.00000000E-01  1.50000000E+00
  1.50000000E+00  8.00000000E-01  8.00000000E-01  1.50000000E+00  1.50000000E+00
  8.00000000E-01  8.00000000E-01  1.50000000E+00  1.50000000E+00  8.00000000E-01
  8.00000000E-01  1.50000000E+00  1.50000000E+00  8.00000000E-01  8.00000000E-01
  1.50000000E+00  1.50000000E+00  8.00000000E-01  8.00000000E-01  1.50000000E+00
  1.50000000E+00  8.00000000E-01  8.00000000E-01  1.50000000E+00  1.50000000E+00
  8.00000000E-01  8.00000000E-01  1.50000000E+00  1.50000000E+00  8.00000000E-01
  8.00000000E-01  1.50000000E+00  1.50000000E+00  8.00000000E-01  8.00000000E-01
  1.50000000E+00  1.50000000E+00  8.00000000E-01  8.00000000E-01  1.50000000E+00
  1.50000000E+00  8.00000000E-01  8.00000000E-01  1.50000000E+00  1.50000000E+00
  8.00000000E-01  8.00000000E-01  1.50000000E+00  1.50000000E+00  8.00000000E-01
  8.00000000E-01  1.50000000E+00  1.50000000E+00  8.00000000E-01  8.00000000E-01
  1.50000000E+00  1.50000000E+00  8.00000000E-01  8.00000000E-01  1.50000000E+00
  1.50000000E+00  8.00000000E-01  8.00000000E-01  1.50000000E+00  1.50000000E+00
  8.00000000E-01  8.00000000E-01  1.50000000E+00  1.50000000E+00  8.00000000E-01
  8.00000000E-01  1.50000000E+00  1.50000000E+00  8.00000000E-01  8.00000000E-01
  1.50000000E+00  1.50000000E+00  8.00000000E-01  8.00000000E-01  1.50000000E+00
  1.50000000E+00  8.00000000E-01  8.00000000E-01  1.50000000E+00  1.50000000E+00
  8.00000000E-01  8.00000000E-01  1.50000000E+00  1.50000000E+00  8.00000000E-01
  8.00000000E-01  1.50000000E+00  1.50000000E+00  8.00000000E-01  8.00000000E-01
  1.50000000E+00  1.50000000E+00  8.00000000E-01  8.00000000E-01  1.50000000E+00
  1.50000000E+00  8.00000000E-01  8.00000000E-01  1.50000000E+00  1.50000000E+00
  8.00000000E-01  8.00000000E-01  1.50000000E+00  1.50000000E+00  8.00000000E-01
  8.00000000E-01  1.50000000E+00  1.50000000E+00  8.00000000E-01  8.00000000E-01
  1.50000000E+00  1.50000000E+00  8.00000000E-01  8.00000000E-01  1.50000000E+00
  1.50000000E+00  8.00000000E-01  8.00000000E-01  1.50000000E+00  1.50000000E+00
  8.00000000E-01  8.00000000E-01  1.50000000E+00  1.50000000E+00  8.00000000E-01
  8.00000000E-01  1.50000000E+00  1.50000000E+00  8.00000000E-01  8.00000000E-01
  1.50000000E+00  1.50000000E+00  8.00000000E-01  8.00000000E-01  1.50000000E+00
  1.50000000E+00  8.00000000E-01  8.00000000E-01  1.50000000E+00  1.50000000E+00
  8.00000000E-01  8.00000000E-01  1.50000000E+00  1.50000000E+00  8.00000000E-01
  8.00000000E-01  1.50000000E+00  1.50000000E+00  8.00000000E-01  8.00000000E-01
  1.50000000E+00  1.50000000E+00  8.00000000E-01  8.00000000E-01  1.50000000E+00
  1.50000000E+00  8.00000000E-01  8.00000000E-01  1.50000000E+00  1.50000000E+00
  8.00000000E-01  8.00000000E-01  1.50000000E+00  1.50000000E+00  8.00000000E-01
  8.00000000E-01  1.50000000E+00  1.50000000E+00  8.00000000E-01  8.00000000E-01
  1.50000000E+00  1.50000000E+00  8.00000000E-01  8.00000000E-01  1.50000000E+00
  1.50000000E+00  8.00000000E-01  8.00000000E-01  1.50000000E+00  1.50000000E+00
  8.00000000E-01  8.00000000E-01  1.50000000E+00  1.50000000E+00  8.00000000E-01
  8.00000000E-01  1.50000000E+00  1.50000000E+00  8.00000000E-01  8.00000000E-01
  1.50000000E+00  1.50000000E+00  8.00000000E-01  8.00000000E-01  1.50000000E+00
  1.50000000E+00  8.00000000E-01  8.00000000E-01  1.50000000E+00  1.50000000E+00
  8.00000000E-01  8.00000000E-01  1.50000000E+00  1.50000000E+00  8.00000000E-01
  8.00000000E-01  1.50000000E+00  1.50000000E+00  8.00000000E-01  8.00000000E-01
  1.50000000E+00  1.50000000E+00  8.00000000E-01  8.00000000E-01  1.50000000E+00
  1.50000000E+00  8.00000000E-01  8.00000000E-01  1.50000000E+00  1.50000000E+00
  8.00000000E-01  8.00000000E-01  1.50000000E+00  1.50000000E+00  8.00000000E-01
  8.00000000E-01  1.50000000E+00  1.50000000E+00  8.00000000E-01  8.00000000E-01
  1.50000000E+00  1.50000000E+00  8.00000000E-01  8.00000000E-01  1.50000000E+00
  1.50000000E+00  8.00000000E-01  8.00000000E-01  1.50000000E+00  1.50000000E+00
  8.00000000E-01  8.00000000E-01  1.50000000E+00  1.50000000E+00  8.00000000E-01
  8.00000000E-01  1.50000000E+00  1.50000000E+00  8.00000000E-01  8.00000000E-01
  1.50000000E+00  1.50000000E+00  8.00000000E-01  8.00000000E-01  1.50000000E+00
  1.50000000E+00  8.00000000E-01  8.00000000E-01  1.50000000E+00  1.50000000E+00
  8.00000000E-01  8.00000000E-01  1.50000000E+00  1.50000000E+00  8.00000000E-01
  8.00000000E-01  1.50000000E+00  1.50000000E+00  8.00000000E-01  8.00000000E-01
  1.50000000E+00  1.50000000E+00  8.00000000E-01  8.00000000E-01  1.50000000E+00
  1.50000000E+00  8.00000000E-01  8.00000000E-01  1.50000000E+00  1.50000000E+00
  8.00000000E-01  8.00000000E-01  1.50000000E+00  1.50000000E+00  8.00000000E-01
  8.00000000E-01  1.50000000E+00  1.50000000E+00  8.00000000E-01  8.00000000E-01
  1.50000000E+00  1.50000000E+00  8.00000000E-01  8.00000000E-01  1.50000000E+00
  1.50000000E+00  8.00000000E-01  8.00000000E-01  1.50000000E+00  1.50000000E+00
  8.00000000E-01  8.00000000E-01  1.50000000E+00  1.50000000E+00  8.00000000E-01
  8.00000000E-01  1.50000000E+00  1.50000000E+00  8.00000000E-01  8.00000000E-01
  1.50000000E+00  1.50000000E+00  8.00000000E-01  8.00000000E-01  1.50000000E+00
  1.50000000E+00  8.00000000E-01  8.00000000E-01  1.50000000E+00  1.50000000E+00
  8.00000000E-01  8.00000000E-01  1.50000000E+00  1.50000000E+00  8.00000000E-01
  8.00000000E-01  1.50000000E+00  1.50000000E+00  8.00000000E-01  8.00000000E-01
  1.50000000E+00  1.50000000E+00  8.00000000E-01  8.00000000E-01  1.50000000E+00
  1.50000000E+00  8.00000000E-01  8.00000000E-01  1.50000000E+00  1.50000000E+00
  8.00000000E-01  8.00000000E-01  1.50000000E+00  1.50000000E+00  8.00000000E-01
  8.00000000E-01  1.50000000E+00  1.50000000E+00  8.00000000E-01  8.00000000E-01
  1.50000000E+00  1.50000000E+00  8.00000000E-01  8.00000000E-01  1.50000000E+00
  1.50000000E+00  8.00000000E-01  8.00000000E-01  1.50000000E+00  1.50000000E+00
  8.00000000E-01  8.00000000E-01  1.50000000E+00  1.50000000E+00  8.00000000E-01
  8.00000000E-01  1.50000000E+00  1.50000000E+00  8.00000000E-01  8.00000000E-01
  1.50000000E+00  1.50000000E+00  8.00000000E-01  8.00000000E-01  1.50000000E+00
  1.50000000E+00  8.00000000E-01  8.00000000E-01  1.50000000E+00  1.50000000E+00
  8.00000000E-01  8.00000000E-01  1.50000000E+00  1.50000000E+00  8.00000000E-01
  8.00000000E-01  1.50000000E+00  1.50000000E+00  8.00000000E-01  8.00000000E-01
  1.50000000E+00  1.50000000E+00  8.00000000E-01  8.00000000E-01  1.50000000E+00
  1.50000000E+00  8.00000000E-01  8.00000000E-01  1.50000000E+00  1.50000000E+00
  8.00000000E-01  8.00000000E-01  1.50000000E+00  1.50000000E+00  8.00000000E-01
  8.00000000E-01  1.50000000E+00  1.50000000E+00  8.00000000E-01  8.00000000E-01
  1.50000000E+00  1.50000000E+00  8.00000000E-01  8.00000000E-01  1.50000000E+00
  1.50000000E+00  8.00000000E-01  8.00000000E-01  1.50000000E+00  1.50000000E+00
  8.00000000E-01  8.00000000E-01  1.50000000E+00  1.50000000E+00  8.00000000E-01
  8.00000000E-01  1.50000000E+00  1.50000000E+00  8.00000000E-01  8.00000000E-01
  1.50000000E+00  1.50000000E+00  8.00000000E-01  8.00000000E-01  1.50000000E+00
  1.50000000E+00  8.00000000E-01  8.00000000E-01  1.50000000E+00  1.50000000E+00
  8.00000000E-01  8.00000000E-01  1.50000000E+00  1.50000000E+00  8.00000000E-01
  8.00000000E-01  1.50000000E+00  1.50000000E+00  8.00000000E-01  8.00000000E-01
  1.50000000E+00  1.50000000E+00  8.00000000E-01  8.00000000E-01  1.50000000E+00
  1.50000000E+00  8.00000000E-01  8.00000000E-01  1.50000000E+00  1.50000000E+00
  8.00000000E-01  8.00000000E-01  1.50000000E+00  1.50000000E+00  8.00000000E-01
  8.00000000E-01  1.50000000E+00  1.50000000E+00  8.00000000E-01  8.00000000E-01
  1.50000000E+00  1.50000000E+00  8.00000000E-01  8.00000000E-01  1.50000000E+00
  1.50000000E+00  8.00000000E-01  8.00000000E-01  1.50000000E+00  1.50000000E+00
  8.00000000E-01  8.00000000E-01  1.50000000E+00  1.50000000E+00  8.00000000E-01
  8.00000000E-01  1.50000000E+00  1.50000000E+00  8.00000000E-01  8.00000000E-01
  1.50000000E+00  1.50000000E+00  8.00000000E-01  8.00000000E-01  1.50000000E+00
  1.50000000E+00  8.00000000E-01  8.00000000E-01  1.50000000E+00  1.50000000E+00
  8.00000000E-01  8.00000000E-01  1.50000000E+00  1.50000000E+00  8.00000000E-01
  8.00000000E-01  1.50000000E+00  1.50000000E+00  8.00000000E-01  8.00000000E-01
  1.50000000E+00  1.50000000E+00  8.00000000E-01  8.00000000E-01  1.50000000E+00
  1.50000000E+00  8.00000000E-01  8.00000000E-01  1.50000000E+00  1.50000000E+00
  8.00000000E-01  8.00000000E-01  1.50000000E+00  1.50000000E+00  8.00000000E-01
  8.00000000E-01  1.50000000E+00  1.50000000E+00  8.00000000E-01  8.00000000E-01
  1.50000000E+00  1.50000000E+00  8.00000000E-01  8.00000000E-01  1.50000000E+00
  1.50000000E+00  8.00000000E-01  8.00000000E-01  1.50000000E+00  1.50000000E+00
  8.00000000E-01  8.00000000E-01  1.50000000E+00  1.50000000E+00  8.00000000E-01
  8.00000000E-01  1.50000000E+00  1.50000000E+00  8.00000000E-01  8.00000000E-01
  1.50000000E+00  1.50000000E+00  8.00000000E-01  8.00000000E-01  1.50000000E+00
  1.50000000E+00  8.00000000E-01  8.00000000E-01  1.50000000E+00  1.50000000E+00
  8.00000000E-01  8.00000000E-01  1.50000000E+00  1.50000000E+00  8.00000000E-01
  8.00000000E-01  1.50000000E+00  1.50000000E+00  8.00000000E-01  8.00000000E-01
  1.50000000E+00  1.50000000E+00  8.00000000E-01  8.00000000E-01  1.50000000E+00
  1.50000000E+00  8.00000000E-01  8.00000000E-01  1.50000000E+00  1.50000000E+00
  8.00000000E-01  8.00000000E-01  1.50000000E+00  1.50000000E+00  8.00000000E-01
  8.00000000E-01  1.50000000E+00  1.50000000E+00  8.00000000E-01  8.00000000E-01
  1.50000000E+00  1.50000000E+00  8.00000000E-01  8.00000000E-01  1.50000000E+00
  1.50000000E+00  8.00000000E-01  8.00000000E-01  1.50000000E+00  1.50000000E+00
  8.00000000E-01  8.00000000E-01  1.50000000E+00  1.50000000E+00  8.00000000E-01
  8.00000000E-01  1.50000000E+00  1.50000000E+00  8.00000000E-01  8.00000000E-01
  1.50000000E+00  1.50000000E+00  8.00000000E-01  8.00000000E-01  1.50000000E+00
  1.50000000E+00  8.00000000E-01  8.00000000E-01  1.50000000E+00  1.50000000E+00
  8.00000000E-01  8.00000000E-01  1.50000000E+00  1.50000000E+00  8.00000000E-01
  8.00000000E-01  1.50000000E+00  1.50000000E+00  8.00000000E-01  8.00000000E-01
  1.50000000E+00  1.50000000E+00  8.00000000E-01  8.00000000E-01  1.50000000E+00
  1.50000000E+00  8.00000000E-01  8.00000000E-01  1.50000000E+00  1.50000000E+00
  8.00000000E-01  8.00000000E-01  1.50000000E+00  1.50000000E+00  8.00000000E-01
  8.00000000E-01  1.50000000E+00  1.50000000E+00  8.00000000E-01  8.00000000E-01
  1.50000000E+00  1.50000000E+00  8.00000000E-01  8.00000000E-01  1.50000000E+00
  1.50000000E+00  8.00000000E-01  8.00000000E-01  1.50000000E+00  1.50000000E+00
  8.00000000E-01  8.00000000E-01  1.50000000E+00  1.50000000E+00  8.00000000E-01
  8.00000000E-01  1.50000000E+00  1.50000000E+00  8.00000000E-01  8.00000000E-01
  1.50000000E+00  1.50000000E+00  8.00000000E-01  8.00000000E-01  1.50000000E+00
  1.50000000E+00  8.00000000E-01  8.00000000E-01  1.50000000E+00  1.50000000E+00
  8.00000000E-01  8.00000000E-01  1.50000000E+00  1.50000000E+00  8.00000000E-01
  8.00000000E-01  1.50000000E+00  1.50000000E+00  8.00000000E-01  8.00000000E-01
  1.50000000E+00  1.50000000E+00  8.00000000E-01  8.00000000E-01  1.50000000E+00
  1.50000000E+00  8.00000000E-01  8.00000000E-01  1.50000000E+00  1.50000000E+00
  8.00000000E-01  8.00000000E-01  1.50000000E+00  1.50000000E+00  8.00000000E-01
  8.00000000E-01  1.50000000E+00  1.50000000E+00  8.00000000E-01  8.00000000E-01
  1.50000000E+00  1.50000000E+00  8.00000000E-01  8.00000000E-01  1.50000000E+00
  1.50000000E+00  8.00000000E-01  8.00000000E-01  1.50000000E+00  1.50000000E+00
  8.00000000E-01  8.00000000E-01  1.50000000E+00  1.50000000E+00  8.00000000E-01
  8.00000000E-01  1.50000000E+00  1.50000000E+00  8.00000000E-01  8.00000000E-01
  1.50000000E+00  1.50000000E+00  8.00000000E-01  8.00000000E-01  1.50000000E+00
  1.50000000E+00  8.00000000E-01  8.00000000E-01  1.50000000E+00  1.50000000E+00
  8.00000000E-01  8.00000000E-01  1.50000000E+00  1.50000000E+00  8.00000000E-01
  8.00000000E-01  1.50000000E+00  1.50000000E+00  8.00000000E-01  8.00000000E-01
  1.50000000E+00  1.50000000E+00  8.00000000E-01  8.00000000E-01  1.50000000E+00
  1.50000000E+00  8.00000000E-01  8.00000000E-01  1.50000000E+00  1.50000000E+00
  8.00000000E-01  8.00000000E-01  1.50000000E+00  1.50000000E+00  8.00000000E-01
  8.00000000E-01  1.50000000E+00  1.50000000E+00  8.00000000E-01  8.00000000E-01
  1.50000000E+00  1.50000000E+00  8.00000000E-01  8.00000000E-01  1.50000000E+00
  1.50000000E+00  8.00000000E-01  8.00000000E-01  1.50000000E+00  1.50000000E+00
  8.00000000E-01  8.00000000E-01  1.50000000E+00  1.50000000E+00  8.00000000E-01
  8.00000000E-01  1.50000000E+00  1.50000000E+00  8.00000000E-01  8.00000000E-01
  1.50000000E+00  1.50000000E+00  8.00000000E-01  8.00000000E-01  1.50000000E+00
  1.50000000E+00  8.00000000E-01  8.00000000E-01  1.50000000E+00  1.50000000E+00
  8.00000000E-01  8.00000000E-01  1.50000000E+00  1.50000000E+00  8.00000000E-01
  8.00000000E-01  1.50000000E+00  1.50000000E+00  8.00000000E-01  8.00000000E-01
  1.50000000E+00  1.50000000E+00  8.00000000E-01  8.00000000E-01  1.50000000E+00
  1.50000000E+00  8.00000000E-01  8.00000000E-01  1.50000000E+00  1.50000000E+00
  8.00000000E-01  8.00000000E-01  1.50000000E+00  1.50000000E+00  8.00000000E-01
  8.00000000E-01  1.50000000E+00  1.50000000E+00  8.00000000E-01  8.00000000E-01
  1.50000000E+00  1.50000000E+00  8.00000000E-01  8.00000000E-01  1.50000000E+00
  1.50000000E+00  8.00000000E-01  8.00000000E-01  1.50000000E+00  1.50000000E+00
  8.00000000E-01  8.00000000E-01  1.50000000E+00  1.50000000E+00  8.00000000E-01
  8.00000000E-01  1.50000000E+00  1.50000000E+00  8.00000000E-01  8.00000000E-01
  1.50000000E+00  1.50000000E+00  8.00000000E-01  8.00000000E-01  1.50000000E+00
  1.50000000E+00  8.00000000E-01  8.00000000E-01  1.50000000E+00  1.50000000E+00
  8.00000000E-01  8.00000000E-01  1.50000000E+00  1.50000000E+00  8.00000000E-01
  8.00000000E-01  1.50000000E+00  1.50000000E+00  8.00000000E-01  8.00000000E-01
  1.50000000E+00  1.50000000E+00  8.00000000E-01  8.00000000E-01  1.50000000E+00
  1.50000000E+00  8.00000000E-01  8.00000000E-01  1.50000000E+00  1.50000000E+00
  8.00000000E-01  8.00000000E-01  1.50000000E+00  1.50000000E+00  8.00000000E-01
  8.00000000E-01  1.50000000E+00  1.50000000E+00  8.00000000E-01  8.00000000E-01
  1.50000000E+00  1.50000000E+00  8.00000000E-01  8.00000000E-01  1.50000000E+00
  1.50000000E+00  8.00000000E-01  8.00000000E-01  1.50000000E+00  1.50000000E+00
  8.00000000E-01  8.00000000E-01  1.50000000E+00  1.50000000E+00  8.00000000E-01
  8.00000000E-01  1.50000000E+00  1.50000000E+00  8.00000000E-01  8.00000000E-01
  1.50000000E+00  1.50000000E+00  8.00000000E-01  8.00000000E-01  1.50000000E+00
  1.50000000E+00  8.00000000E-01  8.00000000E-01  1.50000000E+00  1.50000000E+00
  8.00000000E-01  8.00000000E-01  1.50000000E+00  1.50000000E+00  8.00000000E-01
  8.00000000E-01  1.50000000E+00  1.50000000E+00  8.00000000E-01  8.00000000E-01
  1.50000000E+00  1.50000000E+00  8.00000000E-01  8.00000000E-01  1.50000000E+00
  1.50000000E+00  8.00000000E-01  8.00000000E-01  1.50000000E+00  1.50000000E+00
  8.00000000E-01  8.00000000E-01  1.50000000E+00  1.50000000E+00  8.00000000E-01
  8.00000000E-01  1.50000000E+00  1.50000000E+00  8.00000000E-01  8.00000000E-01
  1.50000000E+00  1.50000000E+00  8.00000000E-01  8.00000000E-01  1.50000000E+00
  1.50000000E+00  8.00000000E-01  8.00000000E-01  1.50000000E+00  1.50000000E+00
  8.00000000E-01  8.00000000E-01  1.50000000E+00  1.50000000E+00  8.00000000E-01
  8.00000000E-01  1.50000000E+00  1.50000000E+00  8.00000000E-01  8.00000000E-01
  1.50000000E+00  1.50000000E+00  8.00000000E-01  8.00000000E-01  1.50000000E+00
  1.50000000E+00  8.00000000E-01  8.00000000E-01  1.50000000E+00  1.50000000E+00
  8.00000000E-01  8.00000000E-01  1.50000000E+00  1.50000000E+00  8.00000000E-01
  8.00000000E-01  1.50000000E+00  1.50000000E+00  8.00000000E-01  8.00000000E-01
  1.50000000E+00  1.50000000E+00  8.00000000E-01  8.00000000E-01  1.50000000E+00
  1.50000000E+00  8.00000000E-01  8.00000000E-01  1.50000000E+00  1.50000000E+00
  8.00000000E-01  8.00000000E-01  1.50000000E+00  1.50000000E+00  8.00000000E-01
  8.00000000E-01  1.50000000E+00  1.50000000E+00  8.00000000E-01  8.00000000E-01
  1.50000000E+00  1.50000000E+00  8.00000000E-01  8.00000000E-01  1.50000000E+00
  1.50000000E+00  8.00000000E-01  8.00000000E-01  1.50000000E+00  1.50000000E+00
  8.00000000E-01  8.00000000E-01  1.50000000E+00  1.50000000E+00  8.00000000E-01
  8.00000000E-01  1.50000000E+00  1.50000000E+00  8.00000000E-01  8.00000000E-01
  1.50000000E+00  1.50000000E+00  8.00000000E-01  8.00000000E-01  1.50000000E+00
  1.50000000E+00  8.00000000E-01  8.00000000E-01  1.50000000E+00  1.50000000E+00
  8.00000000E-01  8.00000000E-01  1.50000000E+00  1.50000000E+00  8.00000000E-01
  8.00000000E-01  1.50000000E+00  1.50000000E+00  8.00000000E-01  8.00000000E-01
  1.50000000E+00  1.50000000E+00  8.00000000E-01  8.00000000E-01  1.50000000E+00
  1.50000000E+00  8.00000000E-01  8.00000000E-01  1.50000000E+00  1.50000000E+00
  8.00000000E-01  8.00000000E-01  1.50000000E+00  1.50000000E+00  8.00000000E-01
  8.00000000E-01  1.50000000E+00  1.50000000E+00  8.00000000E-01  8.00000000E-01
  1.50000000E+00  1.50000000E+00  8.00000000E-01  8.00000000E-01  1.50000000E+00
  1.50000000E+00  8.00000000E-01  8.00000000E-01  1.50000000E+00  1.50000000E+00
  8.00000000E-01  8.00000000E-01  1.50000000E+00  1.50000000E+00  8.00000000E-01
  8.00000000E-01  1.50000000E+00  1.50000000E+00  8.00000000E-01  8.00000000E-01
  1.50000000E+00  1.50000000E+00  8.00000000E-01  8.00000000E-01  1.50000000E+00
  1.50000000E+00  8.00000000E-01  8.00000000E-01  1.50000000E+00  1.50000000E+00
  8.00000000E-01  8.00000000E-01  1.50000000E+00  1.50000000E+00  8.00000000E-01
  8.00000000E-01  1.50000000E+00  1.50000000E+00  8.00000000E-01  8.00000000E-01
  1.50000000E+00  1.50000000E+00  8.00000000E-01  8.00000000E-01  1.50000000E+00
  1.50000000E+00  8.00000000E-01  8.00000000E-01  1.50000000E+00  1.50000000E+00
  8.00000000E-01  8.00000000E-01  1.50000000E+00  1.50000000E+00  8.00000000E-01
  8.00000000E-01  1.50000000E+00  1.50000000E+00  8.00000000E-01  8.00000000E-01
  1.50000000E+00  1.50000000E+00  8.00000000E-01  8.00000000E-01  1.50000000E+00
  1.50000000E+00  8.00000000E-01  8.00000000E-01  1.50000000E+00  1.50000000E+00
  8.00000000E-01  8.00000000E-01  1.50000000E+00  1.50000000E+00  8.00000000E-01
  8.00000000E-01  1.50000000E+00  1.50000000E+00  8.00000000E-01  8.00000000E-01
  1.50000000E+00  1.50000000E+00  8.00000000E-01  8.00000000E-01  1.50000000E+00
  1.50000000E+00  8.00000000E-01  8.00000000E-01  1.50000000E+00  1.50000000E+00
  8.00000000E-01  8.00000000E-01  1.50000000E+00  1.50000000E+00  8.00000000E-01
  8.00000000E-01  1.50000000E+00  1.50000000E+00  8.00000000E-01  8.00000000E-01
  1.50000000E+00  1.50000000E+00  8.00000000E-01  8.00000000E-01  1.50000000E+00
  1.50000000E+00  8.00000000E-01  8.00000000E-01  1.50000000E+00  1.50000000E+00
  8.00000000E-01  8.00000000E-01  1.50000000E+00  1.50000000E+00  8.00000000E-01
  8.00000000E-01  1.50000000E+00  1.50000000E+00  8.00000000E-01  8.00000000E-01
  1.50000000E+00  1.50000000E+00  8.00000000E-01  8.00000000E-01  1.50000000E+00
  1.50000000E+00  8.00000000E-01  8.00000000E-01  1.50000000E+00  1.50000000E+00
  8.00000000E-01  8.00000000E-01  1.50000000E+00  1.50000000E+00  8.00000000E-01
  8.00000000E-01  1.50000000E+00  1.50000000E+00  8.00000000E-01  8.00000000E-01
  1.50000000E+00  1.50000000E+00  8.00000000E-01  8.00000000E-01  1.50000000E+00
  1.50000000E+00  8.00000000E-01  8.00000000E-01  1.50000000E+00  1.50000000E+00
  8.00000000E-01  8.00000000E-01  1.50000000E+00  1.50000000E+00  8.00000000E-01
  8.00000000E-01  1.50000000E+00  1.50000000E+00  8.00000000E-01  8.00000000E-01
  1.50000000E+00  1.50000000E+00  8.00000000E-01  8.00000000E-01  1.50000000E+00
  1.50000000E+00  8.00000000E-01  8.00000000E-01  1.50000000E+00  1.50000000E+00
  8.00000000E-01  8.00000000E-01  1.50000000E+00  1.50000000E+00  8.00000000E-01
  8.00000000E-01  1.50000000E+00  1.50000000E+00  8.00000000E-01  8.00000000E-01
  1.50000000E+00  1.50000000E+00  8.00000000E-01  8.00000000E-01  1.50000000E+00
  1.50000000E+00  8.00000000E-01  8.00000000E-01  1.50000000E+00  1.50000000E+00
  8.00000000E-01  8.00000000E-01  1.50000000E+00  1.50000000E+00  8.00000000E-01
  8.00000000E-01  1.50000000E+00  1.50000000E+00  8.00000000E-01  8.00000000E-01
  1.50000000E+00  1.50000000E+00  8.00000000E-01  8.00000000E-01  1.50000000E+00
  1.50000000E+00  8.00000000E-01  8.00000000E-01  1.50000000E+00  1.50000000E+00
  8.00000000E-01  8.00000000E-01  1.50000000E+00  1.50000000E+00  8.00000000E-01
  8.00000000E-01  1.50000000E+00  1.50000000E+00  8.00000000E-01  8.00000000E-01
  1.50000000E+00  1.50000000E+00  8.00000000E-01  8.00000000E-01  1.50000000E+00
  1.50000000E+00  8.00000000E-01  8.00000000E-01  1.50000000E+00  1.50000000E+00
  8.00000000E-01  8.00000000E-01  1.50000000E+00  1.50000000E+00  8.00000000E-01
  8.00000000E-01  1.50000000E+00  1.50000000E+00  8.00000000E-01  8.00000000E-01
  1.50000000E+00  1.50000000E+00  8.00000000E-01  8.00000000E-01  1.50000000E+00
  1.50000000E+00  8.00000000E-01  8.00000000E-01  1.50000000E+00  1.50000000E+00
  8.00000000E-01  8.00000000E-01  1.50000000E+00  1.50000000E+00  8.00000000E-01
  8.00000000E-01  1.50000000E+00  1.50000000E+00  8.00000000E-01  8.00000000E-01
  1.50000000E+00  1.50000000E+00  8.00000000E-01  8.00000000E-01  1.50000000E+00
  1.50000000E+00  8.00000000E-01  8.00000000E-01  1.50000000E+00  1.50000000E+00
  8.00000000E-01  8.00000000E-01  1.50000000E+00  1.50000000E+00  8.00000000E-01
  8.00000000E-01  1.50000000E+00  1.50000000E+00  8.00000000E-01  8.00000000E-01
  1.50000000E+00  1.50000000E+00  8.00000000E-01  8.00000000E-01  1.50000000E+00
  1.50000000E+00  8.00000000E-01  8.00000000E-01  1.50000000E+00  1.50000000E+00
  8.00000000E-01  8.00000000E-01  1.50000000E+00  1.50000000E+00  8.00000000E-01
  8.00000000E-01  1.50000000E+00  1.50000000E+00  8.00000000E-01  8.00000000E-01
  1.50000000E+00  1.50000000E+00  8.00000000E-01  8.00000000E-01  1.50000000E+00
  1.50000000E+00  8.00000000E-01  8.00000000E-01  1.50000000E+00  1.50000000E+00
  8.00000000E-01  8.00000000E-01  1.50000000E+00  1.50000000E+00  8.00000000E-01
  8.00000000E-01  1.50000000E+00  1.50000000E+00  8.00000000E-01  8.00000000E-01
  1.50000000E+00  1.50000000E+00  8.00000000E-01  8.00000000E-01  1.50000000E+00
  1.50000000E+00  8.00000000E-01  8.00000000E-01  1.50000000E+00  1.50000000E+00
  8.00000000E-01  8.00000000E-01  1.50000000E+00  1.50000000E+00  8.00000000E-01
  8.00000000E-01  1.50000000E+00  1.50000000E+00  8.00000000E-01  8.00000000E-01
  1.50000000E+00  1.50000000E+00  8.00000000E-01  8.00000000E-01  1.50000000E+00
  1.50000000E+00  8.00000000E-01  8.00000000E-01  1.50000000E+00  1.50000000E+00
  8.00000000E-01  8.00000000E-01  1.50000000E+00  1.50000000E+00  8.00000000E-01
  8.00000000E-01  1.50000000E+00  1.50000000E+00  8.00000000E-01  8.00000000E-01
  1.50000000E+00  1.50000000E+00  8.00000000E-01  8.00000000E-01  1.50000000E+00
  1.50000000E+00  8.00000000E-01  8.00000000E-01  1.50000000E+00  1.50000000E+00
  8.00000000E-01  8.00000000E-01  1.50000000E+00  1.50000000E+00  8.00000000E-01
  8.00000000E-01  1.50000000E+00  1.50000000E+00  8.00000000E-01  8.00000000E-01
  1.50000000E+00  1.50000000E+00  8.00000000E-01  8.00000000E-01  1.50000000E+00
  1.50000000E+00  8.00000000E-01  8.00000000E-01  1.50000000E+00  1.50000000E+00
  8.00000000E-01  8.00000000E-01  1.50000000E+00  1.50000000E+00  8.00000000E-01
  8.00000000E-01  1.50000000E+00  1.50000000E+00  8.00000000E-01  8.00000000E-01
  1.50000000E+00  1.50000000E+00  8.00000000E-01  8.00000000E-01  1.50000000E+00
  1.50000000E+00  8.00000000E-01  8.00000000E-01  1.50000000E+00  1.50000000E+00
  8.00000000E-01  8.00000000E-01  1.50000000E+00  1.50000000E+00  8.00000000E-01
  8.00000000E-01  1.50000000E+00  1.50000000E+00  8.00000000E-01  8.00000000E-01
  1.50000000E+00  1.50000000E+00  8.00000000E-01  8.00000000E-01  1.50000000E+00
  1.50000000E+00  8.00000000E-01  8.00000000E-01  1.50000000E+00  1.50000000E+00
  8.00000000E-01  8.00000000E-01  1.50000000E+00  1.50000000E+00  8.00000000E-01
  8.00000000E-01  1.50000000E+00  1.50000000E+00  8.00000000E-01  8.00000000E-01
  1.50000000E+00  1.50000000E+00  8.00000000E-01  8.00000000E-01  1.50000000E+00
  1.50000000E+00  8.00000000E-01  8.00000000E-01  1.50000000E+00  1.50000000E+00
  8.00000000E-01  8.00000000E-01  1.50000000E+00  1.50000000E+00  8.00000000E-01
  8.00000000E-01  1.50000000E+00  1.50000000E+00  8.00000000E-01  8.00000000E-01
  1.50000000E+00  1.50000000E+00  8.00000000E-01  8.00000000E-01  1.50000000E+00
  1.50000000E+00  8.00000000E-01  8.00000000E-01  1.50000000E+00  1.50000000E+00
  8.00000000E-01  8.00000000E-01  1.50000000E+00  1.50000000E+00  8.00000000E-01
  8.00000000E-01  1.50000000E+00  1.50000000E+00  8.00000000E-01  8.00000000E-01
  1.50000000E+00  1.50000000E+00  8.00000000E-01  8.00000000E-01  1.50000000E+00
  1.50000000E+00  8.00000000E-01  8.00000000E-01  1.50000000E+00  1.50000000E+00
  8.00000000E-01  8.00000000E-01  1.50000000E+00  1.50000000E+00  8.00000000E-01
  8.00000000E-01  1.50000000E+00  1.50000000E+00  8.00000000E-01  8.00000000E-01
  1.50000000E+00  1.50000000E+00  8.00000000E-01  8.00000000E-01  1.50000000E+00
  1.50000000E+00  8.00000000E-01  8.00000000E-01  1.50000000E+00  1.50000000E+00
  8.00000000E-01  8.00000000E-01  1.50000000E+00  1.50000000E+00  8.00000000E-01
  8.00000000E-01  1.50000000E+00  1.50000000E+00  8.00000000E-01  8.00000000E-01
  1.50000000E+00  1.50000000E+00  8.00000000E-01  8.00000000E-01  1.50000000E+00
  1.50000000E+00  8.00000000E-01  8.00000000E-01  1.50000000E+00  1.50000000E+00
  8.00000000E-01  8.00000000E-01  1.50000000E+00  1.50000000E+00  8.00000000E-01
  8.00000000E-01  1.50000000E+00  1.50000000E+00  8.00000000E-01  8.00000000E-01
  1.50000000E+00  1.50000000E+00  8.00000000E-01  8.00000000E-01  1.50000000E+00
  1.50000000E+00  8.00000000E-01  8.00000000E-01  1.50000000E+00  1.50000000E+00
  8.00000000E-01  8.00000000E-01  1.50000000E+00  1.50000000E+00  8.00000000E-01
  8.00000000E-01  1.50000000E+00  1.50000000E+00  8.00000000E-01  8.00000000E-01
  1.50000000E+00  1.50000000E+00  8.00000000E-01  8.00000000E-01  1.50000000E+00
  1.50000000E+00  8.00000000E-01  8.00000000E-01  1.50000000E+00  1.50000000E+00
  8.00000000E-01  8.00000000E-01  1.50000000E+00  1.50000000E+00  8.00000000E-01
  8.00000000E-01  1.50000000E+00  1.50000000E+00  8.00000000E-01  8.00000000E-01
  1.50000000E+00  1.50000000E+00  8.00000000E-01  8.00000000E-01  1.50000000E+00
  1.50000000E+00  8.00000000E-01  8.00000000E-01  1.50000000E+00  1.50000000E+00
  8.00000000E-01  8.00000000E-01  1.50000000E+00  1.50000000E+00  8.00000000E-01
  8.00000000E-01  1.50000000E+00  1.50000000E+00  8.00000000E-01  8.00000000E-01
  1.50000000E+00  1.50000000E+00  8.00000000E-01  8.00000000E-01  1.50000000E+00
  1.50000000E+00  8.00000000E-01  8.00000000E-01  1.50000000E+00  1.50000000E+00
  8.00000000E-01  8.00000000E-01  1.50000000E+00  1.50000000E+00  8.00000000E-01
  8.00000000E-01  1.50000000E+00  1.50000000E+00  8.00000000E-01  8.00000000E-01
  1.50000000E+00  1.50000000E+00  8.00000000E-01  8.00000000E-01  1.50000000E+00
  1.50000000E+00  8.00000000E-01  8.00000000E-01  1.50000000E+00  1.50000000E+00
  8.00000000E-01  8.00000000E-01  1.50000000E+00  1.50000000E+00  8.00000000E-01
  8.00000000E-01  1.50000000E+00  1.50000000E+00  8.00000000E-01  8.00000000E-01
  1.50000000E+00  1.50000000E+00  8.00000000E-01  8.00000000E-01  1.50000000E+00
  1.50000000E+00  8.00000000E-01  8.00000000E-01  1.50000000E+00  1.50000000E+00
  8.00000000E-01  8.00000000E-01  1.50000000E+00  1.50000000E+00  8.00000000E-01
  8.00000000E-01  1.50000000E+00  1.50000000E+00  8.00000000E-01  8.00000000E-01
  1.50000000E+00  1.50000000E+00  8.00000000E-01  8.00000000E-01  1.50000000E+00
  1.50000000E+00  8.00000000E-01  8.00000000E-01  1.50000000E+00  1.50000000E+00
  8.00000000E-01  8.00000000E-01  1.50000000E+00  1.50000000E+00  8.00000000E-01
  8.00000000E-01  1.50000000E+00  1.50000000E+00  8.00000000E-01  8.00000000E-01
  1.50000000E+00  1.50000000E+00  8.00000000E-01  8.00000000E-01  1.50000000E+00
  1.50000000E+00  8.00000000E-01  8.00000000E-01  1.50000000E+00  1.50000000E+00
  8.00000000E-01  8.00000000E-01  1.50000000E+00  1.50000000E+00  8.00000000E-01
  8.00000000E-01  1.50000000E+00  1.50000000E+00  8.00000000E-01  8.00000000E-01
  1.50000000E+00  1.50000000E+00  8.00000000E-01  8.00000000E-01  1.50000000E+00
  1.50000000E+00  8.00000000E-01  8.00000000E-01  1.50000000E+00  1.50000000E+00
  8.00000000E-01  8.00000000E-01  1.50000000E+00  1.50000000E+00  8.00000000E-01
  8.00000000E-01  1.50000000E+00  1.50000000E+00  8.00000000E-01  8.00000000E-01
  1.50000000E+00  1.50000000E+00  8.00000000E-01  8.00000000E-01  1.50000000E+00
  1.50000000E+00  8.00000000E-01  8.00000000E-01  1.50000000E+00  1.50000000E+00
  8.00000000E-01  8.00000000E-01  1.50000000E+00  1.50000000E+00  8.00000000E-01
  8.00000000E-01  1.50000000E+00  1.50000000E+00  8.00000000E-01  8.00000000E-01
  1.50000000E+00  1.50000000E+00  8.00000000E-01  8.00000000E-01  1.50000000E+00
  1.50000000E+00  8.00000000E-01  8.00000000E-01  1.50000000E+00  1.50000000E+00
  8.00000000E-01  8.00000000E-01  1.50000000E+00  1.50000000E+00  8.00000000E-01
  8.00000000E-01  1.50000000E+00  1.50000000E+00  8.00000000E-01  8.00000000E-01
  1.50000000E+00  1.50000000E+00  8.00000000E-01  8.00000000E-01  1.50000000E+00
  1.50000000E+00  8.00000000E-01  8.00000000E-01  1.50000000E+00  1.50000000E+00
  8.00000000E-01  8.00000000E-01  1.50000000E+00  1.50000000E+00  8.00000000E-01
  8.00000000E-01  1.50000000E+00  1.50000000E+00  8.00000000E-01  8.00000000E-01
  1.50000000E+00  1.50000000E+00  8.00000000E-01  8.00000000E-01  1.50000000E+00
  1.50000000E+00  8.00000000E-01  8.00000000E-01  1.50000000E+00  1.50000000E+00
  8.00000000E-01  8.00000000E-01  1.50000000E+00  1.50000000E+00  8.00000000E-01
  8.00000000E-01  1.50000000E+00  1.50000000E+00  8.00000000E-01  8.00000000E-01
  1.50000000E+00  1.50000000E+00  8.00000000E-01  8.00000000E-01  1.50000000E+00
  1.50000000E+00  8.00000000E-01  8.00000000E-01  1.50000000E+00  1.50000000E+00
  8.00000000E-01  8.00000000E-01  1.50000000E+00  1.50000000E+00  8.00000000E-01
  8.00000000E-01  1.50000000E+00  1.50000000E+00  8.00000000E-01  8.00000000E-01
  1.50000000E+00  1.50000000E+00  8.00000000E-01  8.00000000E-01  1.50000000E+00
  1.50000000E+00  8.00000000E-01  8.00000000E-01  1.50000000E+00  1.50000000E+00
  8.00000000E-01  8.00000000E-01  1.50000000E+00  1.50000000E+00  8.00000000E-01
  8.00000000E-01  1.50000000E+00  1.50000000E+00  8.00000000E-01  8.00000000E-01
  1.50000000E+00  1.50000000E+00  8.00000000E-01  8.00000000E-01  1.50000000E+00
  1.50000000E+00  8.00000000E-01  8.00000000E-01  1.50000000E+00  1.50000000E+00
  8.00000000E-01  8.00000000E-01  1.50000000E+00  1.50000000E+00  8.00000000E-01
  8.00000000E-01  1.50000000E+00  1.50000000E+00  8.00000000E-01  8.00000000E-01
  1.50000000E+00  1.50000000E+00  8.00000000E-01  8.00000000E-01  1.50000000E+00
  1.50000000E+00  8.00000000E-01  8.00000000E-01  1.50000000E+00  1.50000000E+00
  8.00000000E-01  8.00000000E-01  1.50000000E+00  1.50000000E+00  8.00000000E-01
  8.00000000E-01  1.50000000E+00  1.50000000E+00  8.00000000E-01  8.00000000E-01
  1.50000000E+00  1.50000000E+00  8.00000000E-01  8.00000000E-01  1.50000000E+00
  1.50000000E+00  8.00000000E-01  8.00000000E-01  1.50000000E+00  1.50000000E+00
  8.00000000E-01  8.00000000E-01  1.50000000E+00  1.50000000E+00  8.00000000E-01
  8.00000000E-01  1.50000000E+00  1.50000000E+00  8.00000000E-01  8.00000000E-01
  1.50000000E+00  1.50000000E+00  8.00000000E-01  8.00000000E-01  1.50000000E+00
  1.50000000E+00  8.00000000E-01  8.00000000E-01  1.50000000E+00  1.50000000E+00
  8.00000000E-01  8.00000000E-01  1.50000000E+00  1.50000000E+00  8.00000000E-01
  8.00000000E-01  1.50000000E+00  1.50000000E+00  8.00000000E-01  8.00000000E-01
  1.50000000E+00  1.50000000E+00  8.00000000E-01  8.00000000E-01  1.50000000E+00
  1.50000000E+00  8.00000000E-01  8.00000000E-01  1.50000000E+00  1.50000000E+00
  8.00000000E-01  8.00000000E-01  1.50000000E+00  1.50000000E+00  8.00000000E-01
  8.00000000E-01  1.50000000E+00  1.50000000E+00  8.00000000E-01  8.00000000E-01
  1.50000000E+00  1.50000000E+00  8.00000000E-01  8.00000000E-01  1.50000000E+00
  1.50000000E+00  8.00000000E-01  8.00000000E-01  1.50000000E+00  1.50000000E+00
  8.00000000E-01  8.00000000E-01  1.50000000E+00  1.50000000E+00  8.00000000E-01
  8.00000000E-01  1.50000000E+00  1.50000000E+00  8.00000000E-01  8.00000000E-01
  1.50000000E+00  1.50000000E+00  8.00000000E-01  8.00000000E-01  1.50000000E+00
  1.50000000E+00  8.00000000E-01  8.00000000E-01  1.50000000E+00  1.50000000E+00
  8.00000000E-01  8.00000000E-01  1.50000000E+00  1.50000000E+00  8.00000000E-01
  8.00000000E-01  1.50000000E+00  1.50000000E+00  8.00000000E-01  8.00000000E-01
  1.50000000E+00  1.50000000E+00  8.00000000E-01  8.00000000E-01  1.50000000E+00
  1.50000000E+00  8.00000000E-01  8.00000000E-01  1.50000000E+00  1.50000000E+00
  8.00000000E-01  8.00000000E-01  1.50000000E+00  1.50000000E+00  8.00000000E-01
  8.00000000E-01  1.50000000E+00  1.50000000E+00  8.00000000E-01  8.00000000E-01
  1.50000000E+00  1.50000000E+00  8.00000000E-01  8.00000000E-01  1.50000000E+00
  1.50000000E+00  8.00000000E-01  8.00000000E-01  1.50000000E+00  1.50000000E+00
  8.00000000E-01  8.00000000E-01  1.50000000E+00  1.50000000E+00  8.00000000E-01
  8.00000000E-01  1.50000000E+00  1.50000000E+00  8.00000000E-01  8.00000000E-01
  1.50000000E+00  1.50000000E+00  8.00000000E-01  8.00000000E-01  1.50000000E+00
  1.50000000E+00  8.00000000E-01  8.00000000E-01  1.50000000E+00  1.50000000E+00
  8.00000000E-01  8.00000000E-01  1.50000000E+00  1.50000000E+00  8.00000000E-01
  8.00000000E-01  1.50000000E+00  1.50000000E+00  8.00000000E-01  8.00000000E-01
  1.50000000E+00  1.50000000E+00  8.00000000E-01  8.00000000E-01  1.50000000E+00
  1.50000000E+00  8.00000000E-01  8.00000000E-01  1.50000000E+00  1.50000000E+00
  8.00000000E-01  8.00000000E-01  1.50000000E+00  1.50000000E+00  8.00000000E-01
  8.00000000E-01  1.50000000E+00  1.50000000E+00  8.00000000E-01  8.00000000E-01
  1.50000000E+00  1.50000000E+00  8.00000000E-01  8.00000000E-01  1.50000000E+00
  1.50000000E+00  8.00000000E-01  8.00000000E-01  1.50000000E+00  1.50000000E+00
  8.00000000E-01  8.00000000E-01  1.50000000E+00  1.50000000E+00  8.00000000E-01
  8.00000000E-01  1.50000000E+00  1.50000000E+00  8.00000000E-01  8.00000000E-01
  1.50000000E+00  1.50000000E+00  8.00000000E-01  8.00000000E-01  1.50000000E+00
  1.50000000E+00  8.00000000E-01  8.00000000E-01  1.50000000E+00  1.50000000E+00
  8.00000000E-01  8.00000000E-01  1.50000000E+00  1.50000000E+00  8.00000000E-01
  8.00000000E-01  1.50000000E+00  1.50000000E+00  8.00000000E-01  8.00000000E-01
  1.50000000E+00  1.50000000E+00  8.00000000E-01  8.00000000E-01  1.50000000E+00
  1.50000000E+00  8.00000000E-01  8.00000000E-01  1.50000000E+00  1.50000000E+00
  8.00000000E-01  8.00000000E-01  1.50000000E+00  1.50000000E+00  8.00000000E-01
  8.00000000E-01  1.50000000E+00  1.50000000E+00  8.00000000E-01  8.00000000E-01
  1.50000000E+00  1.50000000E+00  8.00000000E-01  8.00000000E-01  1.50000000E+00
  1.50000000E+00  8.00000000E-01  8.00000000E-01  1.50000000E+00  1.50000000E+00
  8.00000000E-01  8.00000000E-01  1.50000000E+00  1.50000000E+00  8.00000000E-01
  8.00000000E-01  1.50000000E+00  1.50000000E+00  8.00000000E-01  8.00000000E-01
  1.50000000E+00  1.50000000E+00  8.00000000E-01  8.00000000E-01  1.50000000E+00
  1.50000000E+00  8.00000000E-01  8.00000000E-01  1.50000000E+00  1.50000000E+00
  8.00000000E-01  8.00000000E-01  1.50000000E+00  1.50000000E+00  8.00000000E-01
  8.00000000E-01  1.50000000E+00  1.50000000E+00  8.00000000E-01  8.00000000E-01
  1.50000000E+00  1.50000000E+00  8.00000000E-01  8.00000000E-01  1.50000000E+00
  1.50000000E+00  8.00000000E-01  8.00000000E-01  1.50000000E+00  1.50000000E+00
  8.00000000E-01  8.00000000E-01  1.50000000E+00  1.50000000E+00  8.00000000E-01
  8.00000000E-01  1.50000000E+00  1.50000000E+00  8.00000000E-01  8.00000000E-01
  1.50000000E+00  1.50000000E+00  8.00000000E-01  8.00000000E-01  1.50000000E+00
  1.50000000E+00  8.00000000E-01  8.00000000E-01  1.50000000E+00  1.50000000E+00
  8.00000000E-01  8.00000000E-01  1.50000000E+00  1.50000000E+00  8.00000000E-01
  8.00000000E-01  1.50000000E+00  1.50000000E+00  8.00000000E-01  8.00000000E-01
  1.50000000E+00  1.50000000E+00  8.00000000E-01  8.00000000E-01  1.50000000E+00
  1.50000000E+00  8.00000000E-01  8.00000000E-01  1.50000000E+00  1.50000000E+00
  8.00000000E-01  8.00000000E-01  1.50000000E+00  1.50000000E+00  8.00000000E-01
  8.00000000E-01  1.50000000E+00  1.50000000E+00  8.00000000E-01  8.00000000E-01
  1.50000000E+00  1.50000000E+00  8.00000000E-01  8.00000000E-01  1.50000000E+00
  1.50000000E+00  8.00000000E-01  8.00000000E-01  1.50000000E+00  1.50000000E+00
  8.00000000E-01  8.00000000E-01  1.50000000E+00  1.50000000E+00  8.00000000E-01
  8.00000000E-01  1.50000000E+00  1.50000000E+00  8.00000000E-01  8.00000000E-01
  1.50000000E+00  1.50000000E+00  8.00000000E-01  8.00000000E-01  1.50000000E+00
  1.50000000E+00  8.00000000E-01  8.00000000E-01  1.50000000E+00  1.50000000E+00
  8.00000000E-01  8.00000000E-01  1.50000000E+00  1.50000000E+00  8.00000000E-01
  8.00000000E-01  1.50000000E+00  1.50000000E+00  8.00000000E-01  8.00000000E-01
  1.50000000E+00  1.50000000E+00  8.00000000E-01  8.00000000E-01  1.50000000E+00
  1.50000000E+00  8.00000000E-01  8.00000000E-01  1.50000000E+00  1.50000000E+00
  8.00000000E-01  8.00000000E-01  1.50000000E+00  1.50000000E+00  8.00000000E-01
  8.00000000E-01  1.50000000E+00  1.50000000E+00  8.00000000E-01  8.00000000E-01
  1.50000000E+00  1.50000000E+00  8.00000000E-01  8.00000000E-01  1.50000000E+00
  1.50000000E+00  8.00000000E-01  8.00000000E-01  1.50000000E+00  1.50000000E+00
  8.00000000E-01  8.00000000E-01  1.50000000E+00  1.50000000E+00  8.00000000E-01
  8.00000000E-01  1.50000000E+00  1.50000000E+00  8.00000000E-01  8.00000000E-01
  1.50000000E+00  1.50000000E+00  8.00000000E-01  8.00000000E-01  1.50000000E+00
  1.50000000E+00  8.00000000E-01  8.00000000E-01  1.50000000E+00  1.50000000E+00
  8.00000000E-01  8.00000000E-01  1.50000000E+00  1.50000000E+00  8.00000000E-01
  8.00000000E-01  1.50000000E+00  1.50000000E+00  8.00000000E-01  8.00000000E-01
  1.50000000E+00  1.50000000E+00  8.00000000E-01  8.00000000E-01  1.50000000E+00
  1.50000000E+00  8.00000000E-01  8.00000000E-01  1.50000000E+00  1.50000000E+00
  8.00000000E-01  8.00000000E-01  1.50000000E+00  1.50000000E+00  8.00000000E-01
  8.00000000E-01  1.50000000E+00  1.50000000E+00  8.00000000E-01  8.00000000E-01
  1.50000000E+00  1.50000000E+00  8.00000000E-01  8.00000000E-01  1.50000000E+00
  1.50000000E+00  8.00000000E-01  8.00000000E-01  1.50000000E+00  1.50000000E+00
  8.00000000E-01  8.00000000E-01  1.50000000E+00  1.50000000E+00  8.00000000E-01
  8.00000000E-01  1.50000000E+00  1.50000000E+00  8.00000000E-01  8.00000000E-01
  1.50000000E+00  1.50000000E+00  8.00000000E-01  8.00000000E-01  1.50000000E+00
  1.50000000E+00  8.00000000E-01  8.00000000E-01  1.50000000E+00  1.50000000E+00
  8.00000000E-01  8.00000000E-01  1.50000000E+00  1.50000000E+00  8.00000000E-01
  8.00000000E-01  1.50000000E+00  1.50000000E+00  8.00000000E-01  8.00000000E-01
  1.50000000E+00  1.50000000E+00  8.00000000E-01  8.00000000E-01  1.50000000E+00
  1.50000000E+00  8.00000000E-01  8.00000000E-01  1.50000000E+00  1.50000000E+00
  8.00000000E-01  8.00000000E-01  1.50000000E+00  1.50000000E+00  8.00000000E-01
  8.00000000E-01  1.50000000E+00  1.50000000E+00  8.00000000E-01  8.00000000E-01
  1.50000000E+00  1.50000000E+00  8.00000000E-01  8.00000000E-01  1.50000000E+00
  1.50000000E+00  8.00000000E-01  8.00000000E-01  1.50000000E+00  1.50000000E+00
  8.00000000E-01  8.00000000E-01  1.50000000E+00  1.50000000E+00  8.00000000E-01
  8.00000000E-01  1.50000000E+00  1.50000000E+00  8.00000000E-01  8.00000000E-01
  1.50000000E+00  1.50000000E+00  8.00000000E-01  8.00000000E-01  1.50000000E+00
  1.50000000E+00  8.00000000E-01  8.00000000E-01  1.50000000E+00  1.50000000E+00
  8.00000000E-01  8.00000000E-01  1.50000000E+00  1.50000000E+00  8.00000000E-01
  8.00000000E-01  1.50000000E+00  1.50000000E+00  8.00000000E-01  8.00000000E-01
  1.50000000E+00  1.50000000E+00  8.00000000E-01  8.00000000E-01  1.50000000E+00
  1.50000000E+00  8.00000000E-01  8.00000000E-01  1.50000000E+00  1.50000000E+00
  8.00000000E-01  8.00000000E-01  1.50000000E+00  1.50000000E+00  8.00000000E-01
  8.00000000E-01  1.50000000E+00  1.50000000E+00  8.00000000E-01  8.00000000E-01
  1.50000000E+00  1.50000000E+00  8.00000000E-01  8.00000000E-01  1.50000000E+00
  1.50000000E+00  8.00000000E-01  8.00000000E-01  1.50000000E+00  1.50000000E+00
  8.00000000E-01  8.00000000E-01  1.50000000E+00  1.50000000E+00  8.00000000E-01
  8.00000000E-01  1.50000000E+00  1.50000000E+00  8.00000000E-01  8.00000000E-01
  1.50000000E+00  1.50000000E+00  8.00000000E-01  8.00000000E-01  1.50000000E+00
  1.50000000E+00  8.00000000E-01  8.00000000E-01  1.50000000E+00  1.50000000E+00
  8.00000000E-01  8.00000000E-01  1.50000000E+00  1.50000000E+00  8.00000000E-01
  8.00000000E-01  1.50000000E+00  1.50000000E+00  8.00000000E-01  8.00000000E-01
  1.50000000E+00  1.50000000E+00  8.00000000E-01  8.00000000E-01  1.50000000E+00
  1.50000000E+00  8.00000000E-01  8.00000000E-01  1.50000000E+00  1.50000000E+00
  8.00000000E-01  8.00000000E-01  1.50000000E+00  1.50000000E+00  8.00000000E-01
  8.00000000E-01  1.50000000E+00  1.50000000E+00  8.00000000E-01  8.00000000E-01
  1.50000000E+00  1.50000000E+00  8.00000000E-01  8.00000000E-01  1.50000000E+00
  1.50000000E+00  8.00000000E-01  8.00000000E-01  1.50000000E+00  1.50000000E+00
  8.00000000E-01  8.00000000E-01  1.50000000E+00  1.50000000E+00  8.00000000E-01
  8.00000000E-01  1.50000000E+00  1.50000000E+00  8.00000000E-01  8.00000000E-01
  1.50000000E+00  1.50000000E+00  8.00000000E-01  8.00000000E-01  1.50000000E+00
  1.50000000E+00  8.00000000E-01  8.00000000E-01  1.50000000E+00  1.50000000E+00
  8.00000000E-01  8.00000000E-01  1.50000000E+00  1.50000000E+00  8.00000000E-01
  8.00000000E-01  1.50000000E+00  1.50000000E+00  8.00000000E-01  8.00000000E-01
  1.50000000E+00  1.50000000E+00  8.00000000E-01  8.00000000E-01  1.50000000E+00
  1.50000000E+00  8.00000000E-01  8.00000000E-01  1.50000000E+00  1.50000000E+00
  8.00000000E-01  8.00000000E-01  1.50000000E+00  1.50000000E+00  8.00000000E-01
  8.00000000E-01  1.50000000E+00  1.50000000E+00  8.00000000E-01  8.00000000E-01
  1.50000000E+00  1.50000000E+00  8.00000000E-01  8.00000000E-01  1.50000000E+00
  1.50000000E+00  8.00000000E-01  8.00000000E-01  1.50000000E+00  1.50000000E+00
  8.00000000E-01  8.00000000E-01  1.50000000E+00  1.50000000E+00  8.00000000E-01
  8.00000000E-01  1.50000000E+00  1.50000000E+00  8.00000000E-01  8.00000000E-01
  1.50000000E+00  1.50000000E+00  8.00000000E-01  8.00000000E-01  1.50000000E+00
  1.50000000E+00  8.00000000E-01  8.00000000E-01  1.50000000E+00  1.50000000E+00
  8.00000000E-01  8.00000000E-01  1.50000000E+00  1.50000000E+00  8.00000000E-01
  8.00000000E-01  1.50000000E+00  1.50000000E+00  8.00000000E-01  8.00000000E-01
  1.50000000E+00  1.50000000E+00  8.00000000E-01  8.00000000E-01  1.50000000E+00
  1.50000000E+00  8.00000000E-01  8.00000000E-01  1.50000000E+00  1.50000000E+00
  8.00000000E-01  8.00000000E-01  1.50000000E+00  1.50000000E+00  8.00000000E-01
  8.00000000E-01  1.50000000E+00  1.50000000E+00  8.00000000E-01  8.00000000E-01
  1.50000000E+00  1.50000000E+00  8.00000000E-01  8.00000000E-01  1.50000000E+00
  1.50000000E+00  8.00000000E-01  8.00000000E-01  1.50000000E+00  1.50000000E+00
  8.00000000E-01  8.00000000E-01  1.50000000E+00  1.50000000E+00  8.00000000E-01
  8.00000000E-01  1.50000000E+00  1.50000000E+00  8.00000000E-01  8.00000000E-01
  1.50000000E+00  1.50000000E+00  8.00000000E-01  8.00000000E-01  1.50000000E+00
  1.50000000E+00  8.00000000E-01  8.00000000E-01  1.50000000E+00  1.50000000E+00
  8.00000000E-01  8.00000000E-01  1.50000000E+00  1.50000000E+00  8.00000000E-01
  8.00000000E-01  1.50000000E+00  1.50000000E+00  8.00000000E-01  8.00000000E-01
  1.50000000E+00  1.50000000E+00  8.00000000E-01  8.00000000E-01  1.50000000E+00
  1.50000000E+00  8.00000000E-01  8.00000000E-01  1.50000000E+00  1.50000000E+00
  8.00000000E-01  8.00000000E-01  1.50000000E+00  1.50000000E+00  8.00000000E-01
  8.00000000E-01  1.50000000E+00  1.50000000E+00  8.00000000E-01  8.00000000E-01
  1.50000000E+00  1.50000000E+00  8.00000000E-01  8.00000000E-01  1.50000000E+00
  1.50000000E+00  8.00000000E-01  8.00000000E-01  1.50000000E+00  1.50000000E+00
  8.00000000E-01  8.00000000E-01  1.50000000E+00  1.50000000E+00  8.00000000E-01
  8.00000000E-01  1.50000000E+00  1.50000000E+00  8.00000000E-01  8.00000000E-01
  1.50000000E+00  1.50000000E+00  8.00000000E-01  8.00000000E-01  1.50000000E+00
  1.50000000E+00  8.00000000E-01  8.00000000E-01  1.50000000E+00  1.50000000E+00
  8.00000000E-01  8.00000000E-01  1.50000000E+00  1.50000000E+00  8.00000000E-01
  8.00000000E-01  1.50000000E+00  1.50000000E+00  8.00000000E-01  8.00000000E-01
  1.50000000E+00  1.50000000E+00  8.00000000E-01  8.00000000E-01  1.50000000E+00
  1.50000000E+00  8.00000000E-01  8.00000000E-01  1.50000000E+00  1.50000000E+00
  8.00000000E-01  8.00000000E-01  1.50000000E+00  1.50000000E+00  8.00000000E-01
  8.00000000E-01  1.50000000E+00  1.50000000E+00  8.00000000E-01  8.00000000E-01
  1.50000000E+00  1.50000000E+00  8.00000000E-01  8.00000000E-01  1.50000000E+00
  1.50000000E+00  8.00000000E-01  8.00000000E-01  1.50000000E+00  1.50000000E+00
  8.00000000E-01  8.00000000E-01  1.50000000E+00  1.50000000E+00  8.00000000E-01
  8.00000000E-01  1.50000000E+00  1.50000000E+00  8.00000000E-01  8.00000000E-01
  1.50000000E+00  1.50000000E+00  8.00000000E-01  8.00000000E-01  1.50000000E+00
  1.50000000E+00  8.00000000E-01  8.00000000E-01  1.50000000E+00  1.50000000E+00
  8.00000000E-01  8.00000000E-01  1.50000000E+00  1.50000000E+00  8.00000000E-01
  8.00000000E-01  1.50000000E+00  1.50000000E+00  8.00000000E-01  8.00000000E-01
  1.50000000E+00  1.50000000E+00  8.00000000E-01  8.00000000E-01  1.50000000E+00
  1.50000000E+00  8.00000000E-01  8.00000000E-01  1.50000000E+00  1.50000000E+00
  8.00000000E-01  8.00000000E-01  1.50000000E+00  1.50000000E+00  8.00000000E-01
  8.00000000E-01  1.50000000E+00  1.50000000E+00  8.00000000E-01  8.00000000E-01
  1.50000000E+00  1.50000000E+00  8.00000000E-01  8.00000000E-01  1.50000000E+00
  1.50000000E+00  8.00000000E-01  8.00000000E-01  1.50000000E+00  1.50000000E+00
  8.00000000E-01  8.00000000E-01  1.50000000E+00  1.50000000E+00  8.00000000E-01
  8.00000000E-01  1.50000000E+00  1.50000000E+00  8.00000000E-01  8.00000000E-01
  1.50000000E+00  1.50000000E+00  8.00000000E-01  8.00000000E-01  1.50000000E+00
  1.50000000E+00  8.00000000E-01  8.00000000E-01  1.50000000E+00  1.50000000E+00
  8.00000000E-01  8.00000000E-01  1.50000000E+00  1.50000000E+00  8.00000000E-01
  8.00000000E-01  1.50000000E+00  1.50000000E+00  8.00000000E-01  8.00000000E-01
  1.50000000E+00  1.50000000E+00  8.00000000E-01  8.00000000E-01  1.50000000E+00
  1.50000000E+00  8.00000000E-01  8.00000000E-01  1.50000000E+00  1.50000000E+00
  8.00000000E-01  8.00000000E-01  1.50000000E+00  1.50000000E+00  8.00000000E-01
  8.00000000E-01  1.50000000E+00  1.50000000E+00  8.00000000E-01  8.00000000E-01
  1.50000000E+00  1.50000000E+00  8.00000000E-01  8.00000000E-01  1.50000000E+00
  1.50000000E+00  8.00000000E-01  8.00000000E-01  1.50000000E+00  1.50000000E+00
  8.00000000E-01  8.00000000E-01  1.50000000E+00  1.50000000E+00  8.00000000E-01
  8.00000000E-01  1.50000000E+00  1.50000000E+00  8.00000000E-01  8.00000000E-01
  1.50000000E+00  1.50000000E+00  8.00000000E-01  8.00000000E-01  1.50000000E+00
  1.50000000E+00  8.00000000E-01  8.00000000E-01  1.50000000E+00  1.50000000E+00
  8.00000000E-01  8.00000000E-01  1.50000000E+00  1.50000000E+00  8.00000000E-01
  8.00000000E-01  1.50000000E+00  1.50000000E+00  8.00000000E-01  8.00000000E-01
  1.50000000E+00  1.50000000E+00  8.00000000E-01  8.00000000E-01  1.50000000E+00
  1.50000000E+00  8.00000000E-01  8.00000000E-01  1.50000000E+00  1.50000000E+00
  8.00000000E-01  8.00000000E-01  1.50000000E+00  1.50000000E+00  8.00000000E-01
  8.00000000E-01  1.50000000E+00  1.50000000E+00  8.00000000E-01  8.00000000E-01
  1.50000000E+00  1.50000000E+00  8.00000000E-01  8.00000000E-01  1.50000000E+00
  1.50000000E+00  8.00000000E-01  8.00000000E-01  1.50000000E+00  1.50000000E+00
  8.00000000E-01  8.00000000E-01  1.50000000E+00  1.50000000E+00  8.00000000E-01
  8.00000000E-01  1.50000000E+00  1.50000000E+00  8.00000000E-01  8.00000000E-01
  1.50000000E+00  1.50000000E+00  8.00000000E-01  8.00000000E-01  1.50000000E+00
  1.50000000E+00  8.00000000E-01  8.00000000E-01  1.50000000E+00  1.50000000E+00
  8.00000000E-01  8.00000000E-01  1.50000000E+00  1.50000000E+00  8.00000000E-01
  8.00000000E-01  1.50000000E+00  1.50000000E+00  8.00000000E-01  8.00000000E-01
  1.50000000E+00  1.50000000E+00  8.00000000E-01  8.00000000E-01  1.50000000E+00
  1.50000000E+00  8.00000000E-01  8.00000000E-01  1.50000000E+00  1.50000000E+00
  8.00000000E-01  8.00000000E-01  1.50000000E+00  1.50000000E+00  8.00000000E-01
  8.00000000E-01  1.50000000E+00  1.50000000E+00  8.00000000E-01  8.00000000E-01
  1.50000000E+00  1.50000000E+00  8.00000000E-01  8.00000000E-01  1.50000000E+00
  1.50000000E+00  8.00000000E-01  8.00000000E-01  1.50000000E+00  1.50000000E+00
  8.00000000E-01  8.00000000E-01  1.50000000E+00  1.50000000E+00  8.00000000E-01
  8.00000000E-01  1.50000000E+00  1.50000000E+00  8.00000000E-01  8.00000000E-01
  1.50000000E+00  1.50000000E+00  8.00000000E-01  8.00000000E-01  1.50000000E+00
  1.50000000E+00  8.00000000E-01  8.00000000E-01  1.50000000E+00  1.50000000E+00
  8.00000000E-01  8.00000000E-01  1.50000000E+00  1.50000000E+00  8.00000000E-01
  8.00000000E-01  1.50000000E+00  1.50000000E+00  8.00000000E-01  8.00000000E-01
  1.50000000E+00  1.50000000E+00  8.00000000E-01  8.00000000E-01  1.50000000E+00
  1.50000000E+00  8.00000000E-01  8.00000000E-01  1.50000000E+00  1.50000000E+00
  8.00000000E-01  8.00000000E-01  1.50000000E+00  1.50000000E+00  8.00000000E-01
  8.00000000E-01  1.50000000E+00  1.50000000E+00  8.00000000E-01  8.00000000E-01
  1.50000000E+00  1.50000000E+00  8.00000000E-01  8.00000000E-01  1.50000000E+00
  1.50000000E+00  8.00000000E-01  8.00000000E-01  1.50000000E+00  1.50000000E+00
  8.00000000E-01  8.00000000E-01  1.50000000E+00  1.50000000E+00  8.00000000E-01
  8.00000000E-01  1.50000000E+00  1.50000000E+00  8.00000000E-01  8.00000000E-01
  1.50000000E+00  1.50000000E+00  8.00000000E-01  8.00000000E-01  1.50000000E+00
  1.50000000E+00  8.00000000E-01  8.00000000E-01  1.50000000E+00  1.50000000E+00
  8.00000000E-01  8.00000000E-01  1.50000000E+00  1.50000000E+00  8.00000000E-01
  8.00000000E-01  1.50000000E+00  1.50000000E+00  8.00000000E-01  8.00000000E-01
  1.50000000E+00  1.50000000E+00  8.00000000E-01  8.00000000E-01  1.50000000E+00
  1.50000000E+00  8.00000000E-01  8.00000000E-01  1.50000000E+00  1.50000000E+00
  8.00000000E-01  8.00000000E-01  1.50000000E+00  1.50000000E+00  8.00000000E-01
  8.00000000E-01  1.50000000E+00  1.50000000E+00  8.00000000E-01  8.00000000E-01
  1.50000000E+00  1.50000000E+00  8.00000000E-01  8.00000000E-01  1.50000000E+00
  1.50000000E+00  8.00000000E-01  8.00000000E-01  1.50000000E+00  1.50000000E+00
  8.00000000E-01  8.00000000E-01  1.50000000E+00  1.50000000E+00  8.00000000E-01
  8.00000000E-01  1.50000000E+00  1.50000000E+00  8.00000000E-01  8.00000000E-01
  1.50000000E+00  1.50000000E+00  8.00000000E-01  8.00000000E-01  1.50000000E+00
  1.50000000E+00  8.00000000E-01  8.00000000E-01  1.50000000E+00  1.50000000E+00
  8.00000000E-01  8.00000000E-01  1.50000000E+00  1.50000000E+00  8.00000000E-01
  8.00000000E-01  1.50000000E+00  1.50000000E+00  8.00000000E-01  8.00000000E-01
  1.50000000E+00  1.50000000E+00  8.00000000E-01  8.00000000E-01  1.50000000E+00
  1.50000000E+00  8.00000000E-01  8.00000000E-01  1.50000000E+00  1.50000000E+00
  8.00000000E-01  8.00000000E-01  1.50000000E+00  1.50000000E+00  8.00000000E-01
  8.00000000E-01  1.50000000E+00  1.50000000E+00  8.00000000E-01  8.00000000E-01
  1.50000000E+00  1.50000000E+00  8.00000000E-01  8.00000000E-01  1.50000000E+00
  1.50000000E+00  8.00000000E-01  8.00000000E-01  1.50000000E+00  1.50000000E+00
  8.00000000E-01  8.00000000E-01  1.50000000E+00  1.50000000E+00  8.00000000E-01
  8.00000000E-01  1.50000000E+00  1.50000000E+00  8.00000000E-01  8.00000000E-01
  1.50000000E+00  1.50000000E+00  8.00000000E-01  8.00000000E-01  1.50000000E+00
  1.50000000E+00  8.00000000E-01  8.00000000E-01  1.50000000E+00  1.50000000E+00
  8.00000000E-01  8.00000000E-01  1.50000000E+00  1.50000000E+00  8.00000000E-01
  8.00000000E-01  1.50000000E+00  1.50000000E+00  8.00000000E-01  8.00000000E-01
  1.50000000E+00  1.50000000E+00  8.00000000E-01  8.00000000E-01  1.50000000E+00
  1.50000000E+00  8.00000000E-01  8.00000000E-01  1.50000000E+00  1.50000000E+00
  8.00000000E-01  8.00000000E-01  1.50000000E+00  1.50000000E+00  8.00000000E-01
  8.00000000E-01  1.50000000E+00  1.50000000E+00  8.00000000E-01  8.00000000E-01
  1.50000000E+00  1.50000000E+00  8.00000000E-01  8.00000000E-01  1.50000000E+00
  1.50000000E+00  8.00000000E-01  8.00000000E-01  1.50000000E+00  1.50000000E+00
  8.00000000E-01  8.00000000E-01  1.50000000E+00  1.50000000E+00  8.00000000E-01
  8.00000000E-01  1.50000000E+00  1.50000000E+00  8.00000000E-01  8.00000000E-01
  1.50000000E+00  1.50000000E+00  8.00000000E-01  8.00000000E-01  1.50000000E+00
  1.50000000E+00  8.00000000E-01  8.00000000E-01  1.50000000E+00  1.50000000E+00
  8.00000000E-01  8.00000000E-01  1.50000000E+00  1.50000000E+00  8.00000000E-01
  8.00000000E-01  1.50000000E+00  1.50000000E+00  8.00000000E-01  8.00000000E-01
  1.50000000E+00  1.50000000E+00  8.00000000E-01  8.00000000E-01  1.50000000E+00
  1.50000000E+00  8.00000000E-01  8.00000000E-01  1.50000000E+00  1.50000000E+00
  8.00000000E-01  8.00000000E-01  1.50000000E+00  1.50000000E+00  8.00000000E-01
  8.00000000E-01  1.50000000E+00  1.50000000E+00  8.00000000E-01  8.00000000E-01
  1.50000000E+00  1.50000000E+00  8.00000000E-01  8.00000000E-01  1.50000000E+00
  1.50000000E+00  8.00000000E-01  8.00000000E-01  1.50000000E+00  1.50000000E+00
  8.00000000E-01  8.00000000E-01  1.50000000E+00  1.50000000E+00  8.00000000E-01
  8.00000000E-01  1.50000000E+00  1.50000000E+00  8.00000000E-01  8.00000000E-01
  1.50000000E+00  1.50000000E+00  8.00000000E-01  8.00000000E-01  1.50000000E+00
  1.50000000E+00  8.00000000E-01  8.00000000E-01  1.50000000E+00  1.50000000E+00
  8.00000000E-01  8.00000000E-01  1.50000000E+00  1.50000000E+00  8.00000000E-01
  8.00000000E-01  1.50000000E+00  1.50000000E+00  8.00000000E-01  8.00000000E-01
  1.50000000E+00  1.50000000E+00  8.00000000E-01  8.00000000E-01  1.50000000E+00
  1.50000000E+00  8.00000000E-01  8.00000000E-01  1.50000000E+00  1.50000000E+00
  8.00000000E-01  8.00000000E-01  1.50000000E+00  1.50000000E+00  8.00000000E-01
  8.00000000E-01  1.50000000E+00  1.50000000E+00  8.00000000E-01  8.00000000E-01
  1.50000000E+00  1.50000000E+00  8.00000000E-01  8.00000000E-01  1.50000000E+00
  1.50000000E+00  8.00000000E-01  8.00000000E-01  1.50000000E+00  1.50000000E+00
  8.00000000E-01  8.00000000E-01  1.50000000E+00  1.50000000E+00  8.00000000E-01
  8.00000000E-01  1.50000000E+00  1.50000000E+00  8.00000000E-01  8.00000000E-01
  1.50000000E+00  1.50000000E+00  8.00000000E-01  8.00000000E-01  1.50000000E+00
  1.50000000E+00  8.00000000E-01  8.00000000E-01  1.50000000E+00  1.50000000E+00
  8.00000000E-01  8.00000000E-01  1.50000000E+00  1.50000000E+00  8.00000000E-01
  8.00000000E-01  1.50000000E+00  1.50000000E+00  8.00000000E-01  8.00000000E-01
  1.50000000E+00  1.50000000E+00  8.00000000E-01  8.00000000E-01  1.50000000E+00
  1.50000000E+00  8.00000000E-01  8.00000000E-01  1.50000000E+00  1.50000000E+00
  8.00000000E-01  8.00000000E-01  1.50000000E+00  1.50000000E+00  8.00000000E-01
  8.00000000E-01  1.50000000E+00  1.50000000E+00  8.00000000E-01  8.00000000E-01
  1.50000000E+00  1.50000000E+00  8.00000000E-01  8.00000000E-01  1.50000000E+00
  1.50000000E+00  8.00000000E-01  8.00000000E-01  1.50000000E+00  1.50000000E+00
  8.00000000E-01  8.00000000E-01  1.50000000E+00  1.50000000E+00  8.00000000E-01
  8.00000000E-01  1.50000000E+00  1.50000000E+00  8.00000000E-01  8.00000000E-01
  1.50000000E+00  1.50000000E+00  8.00000000E-01  8.00000000E-01  1.50000000E+00
  1.50000000E+00  8.00000000E-01  8.00000000E-01  1.50000000E+00  1.50000000E+00
  8.00000000E-01  8.00000000E-01  1.50000000E+00  1.50000000E+00  8.00000000E-01
  8.00000000E-01  1.50000000E+00  1.50000000E+00  8.00000000E-01  8.00000000E-01
  1.50000000E+00  1.50000000E+00  8.00000000E-01  8.00000000E-01  1.50000000E+00
  1.50000000E+00  8.00000000E-01  8.00000000E-01  1.50000000E+00  1.50000000E+00
  8.00000000E-01  8.00000000E-01  1.50000000E+00  1.50000000E+00  8.00000000E-01
  8.00000000E-01  1.50000000E+00  1.50000000E+00  8.00000000E-01  8.00000000E-01
  1.50000000E+00  1.50000000E+00  8.00000000E-01  8.00000000E-01  1.50000000E+00
  1.50000000E+00  8.00000000E-01  8.00000000E-01  1.50000000E+00  1.50000000E+00
  8.00000000E-01  8.00000000E-01  1.50000000E+00  1.50000000E+00  8.00000000E-01
  8.00000000E-01  1.50000000E+00  1.50000000E+00  8.00000000E-01  8.00000000E-01
  1.50000000E+00  1.50000000E+00  8.00000000E-01  8.00000000E-01  1.50000000E+00
  1.50000000E+00  8.00000000E-01  8.00000000E-01  1.50000000E+00  1.50000000E+00
  8.00000000E-01  8.00000000E-01  1.50000000E+00  1.50000000E+00  8.00000000E-01
  8.00000000E-01  1.50000000E+00  1.50000000E+00  8.00000000E-01  8.00000000E-01
  1.50000000E+00  1.50000000E+00  8.00000000E-01  8.00000000E-01  1.50000000E+00
  1.50000000E+00  8.00000000E-01  8.00000000E-01  1.50000000E+00  1.50000000E+00
  8.00000000E-01  8.00000000E-01  1.50000000E+00  1.50000000E+00  8.00000000E-01
  8.00000000E-01  1.50000000E+00  1.50000000E+00  8.00000000E-01  8.00000000E-01
  1.50000000E+00  1.50000000E+00  8.00000000E-01  8.00000000E-01  1.50000000E+00
  1.50000000E+00  8.00000000E-01  8.00000000E-01  1.50000000E+00  1.50000000E+00
  8.00000000E-01  8.00000000E-01  1.50000000E+00  1.50000000E+00  8.00000000E-01
  8.00000000E-01  1.50000000E+00  1.50000000E+00  8.00000000E-01  8.00000000E-01
  1.50000000E+00  1.50000000E+00  8.00000000E-01  8.00000000E-01  1.50000000E+00
  1.50000000E+00  8.00000000E-01  8.00000000E-01  1.50000000E+00  1.50000000E+00
  8.00000000E-01  8.00000000E-01  1.50000000E+00  1.50000000E+00  8.00000000E-01
  8.00000000E-01  1.50000000E+00  1.50000000E+00  8.00000000E-01  8.00000000E-01
  1.50000000E+00  1.50000000E+00  8.00000000E-01  8.00000000E-01  1.50000000E+00
  1.50000000E+00  8.00000000E-01  8.00000000E-01  1.50000000E+00  1.50000000E+00
  8.00000000E-01  8.00000000E-01  1.50000000E+00  1.50000000E+00  8.00000000E-01
  8.00000000E-01  1.50000000E+00  1.50000000E+00  8.00000000E-01  8.00000000E-01
  1.50000000E+00  1.50000000E+00  8.00000000E-01  8.00000000E-01  1.50000000E+00
  1.50000000E+00  8.00000000E-01  8.00000000E-01  1.50000000E+00  1.50000000E+00
  8.00000000E-01  8.00000000E-01  1.50000000E+00  1.50000000E+00  8.00000000E-01
  8.00000000E-01  1.50000000E+00  1.50000000E+00  8.00000000E-01  8.00000000E-01
  1.50000000E+00  1.50000000E+00  8.00000000E-01  8.00000000E-01  1.50000000E+00
  1.50000000E+00  8.00000000E-01  8.00000000E-01  1.50000000E+00  1.50000000E+00
  8.00000000E-01  8.00000000E-01  1.50000000E+00  1.50000000E+00  8.00000000E-01
  8.00000000E-01  1.50000000E+00  1.50000000E+00  8.00000000E-01  8.00000000E-01
  1.50000000E+00  1.50000000E+00  8.00000000E-01  8.00000000E-01  1.50000000E+00
  1.50000000E+00  8.00000000E-01  8.00000000E-01  1.50000000E+00  1.50000000E+00
  8.00000000E-01  8.00000000E-01  1.50000000E+00  1.50000000E+00  8.00000000E-01
  8.00000000E-01  1.50000000E+00  1.50000000E+00  8.00000000E-01  8.00000000E-01
  1.50000000E+00  1.50000000E+00  8.00000000E-01  8.00000000E-01  1.50000000E+00
  1.50000000E+00  8.00000000E-01  8.00000000E-01  1.50000000E+00  1.50000000E+00
  8.00000000E-01  8.00000000E-01  1.50000000E+00  1.50000000E+00  8.00000000E-01
  8.00000000E-01  1.50000000E+00  1.50000000E+00  8.00000000E-01  8.00000000E-01
  1.50000000E+00  1.50000000E+00  8.00000000E-01  8.00000000E-01  1.50000000E+00
  1.50000000E+00  8.00000000E-01  8.00000000E-01  1.50000000E+00  1.50000000E+00
  8.00000000E-01  8.00000000E-01  1.50000000E+00  1.50000000E+00  8.00000000E-01
  8.00000000E-01  1.50000000E+00  1.50000000E+00  8.00000000E-01  8.00000000E-01
  1.50000000E+00  1.50000000E+00  8.00000000E-01  8.00000000E-01  1.50000000E+00
  1.50000000E+00  8.00000000E-01  8.00000000E-01  1.50000000E+00  1.50000000E+00
  8.00000000E-01  8.00000000E-01  1.50000000E+00  1.50000000E+00  8.00000000E-01
  8.00000000E-01  1.50000000E+00  1.50000000E+00  8.00000000E-01  8.00000000E-01
  1.50000000E+00  1.50000000E+00  8.00000000E-01  8.00000000E-01  1.50000000E+00
  1.50000000E+00  8.00000000E-01  8.00000000E-01  1.50000000E+00  1.50000000E+00
  8.00000000E-01  8.00000000E-01  1.50000000E+00  1.50000000E+00  8.00000000E-01
  8.00000000E-01  1.50000000E+00  1.50000000E+00  8.00000000E-01  8.00000000E-01
  1.50000000E+00  1.50000000E+00  8.00000000E-01  8.00000000E-01  1.50000000E+00
  1.50000000E+00  8.00000000E-01  8.00000000E-01  1.50000000E+00  1.50000000E+00
  8.00000000E-01  8.00000000E-01  1.50000000E+00  1.50000000E+00  8.00000000E-01
  8.00000000E-01  1.50000000E+00  1.50000000E+00  8.00000000E-01  8.00000000E-01
  1.50000000E+00  1.50000000E+00  8.00000000E-01  8.00000000E-01  1.50000000E+00
  1.50000000E+00  8.00000000E-01  8.00000000E-01  1.50000000E+00  1.50000000E+00
  8.00000000E-01  8.00000000E-01  1.50000000E+00  1.50000000E+00  8.00000000E-01
  8.00000000E-01  1.50000000E+00  1.50000000E+00  8.00000000E-01  8.00000000E-01
  1.50000000E+00  1.50000000E+00  8.00000000E-01  8.00000000E-01  1.50000000E+00
  1.50000000E+00  8.00000000E-01  8.00000000E-01  1.50000000E+00  1.50000000E+00
  8.00000000E-01  8.00000000E-01  1.50000000E+00  1.50000000E+00  8.00000000E-01
  8.00000000E-01  1.50000000E+00  1.50000000E+00  8.00000000E-01  8.00000000E-01
  1.50000000E+00  1.50000000E+00  8.00000000E-01  8.00000000E-01  1.50000000E+00
  1.50000000E+00  8.00000000E-01  8.00000000E-01  1.50000000E+00  1.50000000E+00
  8.00000000E-01  8.00000000E-01  1.50000000E+00  1.50000000E+00  8.00000000E-01
  8.00000000E-01  1.50000000E+00  1.50000000E+00  8.00000000E-01  8.00000000E-01
  1.50000000E+00  1.50000000E+00  8.00000000E-01  8.00000000E-01  1.50000000E+00
  1.50000000E+00  8.00000000E-01  8.00000000E-01  1.50000000E+00  1.50000000E+00
  8.00000000E-01  8.00000000E-01  1.50000000E+00  1.50000000E+00  8.00000000E-01
  8.00000000E-01  1.50000000E+00  1.50000000E+00  8.00000000E-01  8.00000000E-01
  1.50000000E+00  1.50000000E+00  8.00000000E-01  8.00000000E-01  1.50000000E+00
  1.50000000E+00  8.00000000E-01  8.00000000E-01  1.50000000E+00  1.50000000E+00
  8.00000000E-01  8.00000000E-01  1.50000000E+00  1.50000000E+00  8.00000000E-01
  8.00000000E-01  1.50000000E+00  1.50000000E+00  8.00000000E-01  8.00000000E-01
  1.50000000E+00  1.50000000E+00  8.00000000E-01  8.00000000E-01  1.50000000E+00
  1.50000000E+00  8.00000000E-01  8.00000000E-01  1.50000000E+00  1.50000000E+00
  8.00000000E-01  8.00000000E-01  1.50000000E+00  1.50000000E+00  8.00000000E-01
  8.00000000E-01  1.50000000E+00  1.50000000E+00  8.00000000E-01  8.00000000E-01
  1.50000000E+00  1.50000000E+00  8.00000000E-01  8.00000000E-01  1.50000000E+00
  1.50000000E+00  8.00000000E-01  8.00000000E-01  1.50000000E+00  1.50000000E+00
  8.00000000E-01  8.00000000E-01  1.50000000E+00  1.50000000E+00  8.00000000E-01
  8.00000000E-01  1.50000000E+00  1.50000000E+00  8.00000000E-01  8.00000000E-01
  1.50000000E+00  1.50000000E+00  8.00000000E-01  8.00000000E-01  1.50000000E+00
  1.50000000E+00  8.00000000E-01  8.00000000E-01  1.50000000E+00  1.50000000E+00
  8.00000000E-01  8.00000000E-01  1.50000000E+00  1.50000000E+00  8.00000000E-01
  8.00000000E-01  1.50000000E+00  1.50000000E+00  8.00000000E-01  8.00000000E-01
  1.50000000E+00  1.50000000E+00  8.00000000E-01  8.00000000E-01  1.50000000E+00
  1.50000000E+00  8.00000000E-01  8.00000000E-01  1.50000000E+00  1.50000000E+00
  8.00000000E-01  8.00000000E-01  1.50000000E+00  1.50000000E+00  8.00000000E-01
  8.00000000E-01  1.50000000E+00  1.50000000E+00  8.00000000E-01  8.00000000E-01
  1.50000000E+00  1.50000000E+00  8.00000000E-01  8.00000000E-01  1.50000000E+00
  1.50000000E+00  8.00000000E-01  8.00000000E-01  1.50000000E+00  1.50000000E+00
  8.00000000E-01  8.00000000E-01  1.50000000E+00  1.50000000E+00  8.00000000E-01
  8.00000000E-01  1.50000000E+00  1.50000000E+00  8.00000000E-01  8.00000000E-01
  1.50000000E+00  1.50000000E+00  8.00000000E-01  8.00000000E-01  1.50000000E+00
  1.50000000E+00  8.00000000E-01  8.00000000E-01  1.50000000E+00  1.50000000E+00
  8.00000000E-01  8.00000000E-01  1.50000000E+00  1.50000000E+00  8.00000000E-01
  8.00000000E-01  1.50000000E+00  1.50000000E+00  8.00000000E-01  8.00000000E-01
  1.50000000E+00  1.50000000E+00  8.00000000E-01  8.00000000E-01  1.50000000E+00
  1.50000000E+00  8.00000000E-01  8.00000000E-01  1.50000000E+00  1.50000000E+00
  8.00000000E-01  8.00000000E-01  1.50000000E+00  1.50000000E+00  8.00000000E-01
  8.00000000E-01  1.50000000E+00  1.50000000E+00  8.00000000E-01  8.00000000E-01
  1.50000000E+00  1.50000000E+00  8.00000000E-01  8.00000000E-01  1.50000000E+00
  1.50000000E+00  8.00000000E-01  8.00000000E-01  1.50000000E+00  1.50000000E+00
  8.00000000E-01  8.00000000E-01  1.50000000E+00  1.50000000E+00  8.00000000E-01
  8.00000000E-01  1.50000000E+00  1.50000000E+00  8.00000000E-01  8.00000000E-01
  1.50000000E+00  1.50000000E+00  8.00000000E-01  8.00000000E-01  1.50000000E+00
  1.50000000E+00  8.00000000E-01  8.00000000E-01  1.50000000E+00  1.50000000E+00
  8.00000000E-01  8.00000000E-01  1.50000000E+00  1.50000000E+00  8.00000000E-01
  8.00000000E-01  1.50000000E+00  1.50000000E+00  8.00000000E-01  8.00000000E-01
  1.50000000E+00  1.50000000E+00  8.00000000E-01  8.00000000E-01  1.50000000E+00
  1.50000000E+00  8.00000000E-01  8.00000000E-01  1.50000000E+00  1.50000000E+00
  8.00000000E-01  8.00000000E-01  1.50000000E+00  1.50000000E+00  8.00000000E-01
  8.00000000E-01  1.50000000E+00  1.50000000E+00  8.00000000E-01  8.00000000E-01
  1.50000000E+00  1.50000000E+00  8.00000000E-01  8.00000000E-01  1.50000000E+00
  1.50000000E+00  8.00000000E-01  8.00000000E-01  1.50000000E+00  1.50000000E+00
  8.00000000E-01  8.00000000E-01  1.50000000E+00  1.50000000E+00  8.00000000E-01
  8.00000000E-01  1.50000000E+00  1.50000000E+00  8.00000000E-01  8.00000000E-01
  1.50000000E+00  1.50000000E+00  8.00000000E-01  8.00000000E-01  1.50000000E+00
  1.50000000E+00  8.00000000E-01  8.00000000E-01  1.50000000E+00  1.50000000E+00
  8.00000000E-01  8.00000000E-01  1.50000000E+00  1.50000000E+00  8.00000000E-01
  8.00000000E-01  1.50000000E+00  1.50000000E+00  8.00000000E-01  8.00000000E-01
  1.50000000E+00  1.50000000E+00  8.00000000E-01  8.00000000E-01  1.50000000E+00
  1.50000000E+00  8.00000000E-01  8.00000000E-01  1.50000000E+00  1.50000000E+00
  8.00000000E-01  8.00000000E-01  1.50000000E+00  1.50000000E+00  8.00000000E-01
  8.00000000E-01  1.50000000E+00  1.50000000E+00  8.00000000E-01  8.00000000E-01
  1.50000000E+00  1.50000000E+00  8.00000000E-01  8.00000000E-01  1.50000000E+00
  1.50000000E+00  8.00000000E-01  8.00000000E-01  1.50000000E+00  1.50000000E+00
  8.00000000E-01  8.00000000E-01  1.50000000E+00  1.50000000E+00  8.00000000E-01
  8.00000000E-01  1.50000000E+00  1.50000000E+00  8.00000000E-01  8.00000000E-01
  1.50000000E+00  1.50000000E+00  8.00000000E-01  8.00000000E-01  1.50000000E+00
  1.50000000E+00  8.00000000E-01  8.00000000E-01  1.50000000E+00  1.50000000E+00
  8.00000000E-01  8.00000000E-01  1.50000000E+00  1.50000000E+00  8.00000000E-01
  8.00000000E-01  1.50000000E+00  1.50000000E+00  8.00000000E-01  8.00000000E-01
  1.50000000E+00  1.50000000E+00  8.00000000E-01  8.00000000E-01  1.50000000E+00
  1.50000000E+00  8.00000000E-01  8.00000000E-01  1.50000000E+00  1.50000000E+00
  8.00000000E-01  8.00000000E-01  1.50000000E+00  1.50000000E+00  8.00000000E-01
  8.00000000E-01  1.50000000E+00  1.50000000E+00  8.00000000E-01  8.00000000E-01
  1.50000000E+00  1.50000000E+00  8.00000000E-01  8.00000000E-01  1.50000000E+00
  1.50000000E+00  8.00000000E-01  8.00000000E-01  1.50000000E+00  1.50000000E+00
  8.00000000E-01  8.00000000E-01  1.50000000E+00  1.50000000E+00  8.00000000E-01
  8.00000000E-01  1.50000000E+00  1.50000000E+00  8.00000000E-01  8.00000000E-01
  1.50000000E+00  1.50000000E+00  8.00000000E-01  8.00000000E-01  1.50000000E+00
  1.50000000E+00  8.00000000E-01  8.00000000E-01  1.50000000E+00  1.50000000E+00
  8.00000000E-01  8.00000000E-01  1.50000000E+00  1.50000000E+00  8.00000000E-01
  8.00000000E-01  1.50000000E+00  1.50000000E+00  8.00000000E-01  8.00000000E-01
  1.50000000E+00  1.50000000E+00  8.00000000E-01  8.00000000E-01  1.50000000E+00
  1.50000000E+00  8.00000000E-01  8.00000000E-01  1.50000000E+00  1.50000000E+00
  8.00000000E-01  8.00000000E-01  1.50000000E+00  1.50000000E+00  8.00000000E-01
  8.00000000E-01  1.50000000E+00  1.50000000E+00  8.00000000E-01  8.00000000E-01
  1.50000000E+00  1.50000000E+00  8.00000000E-01  8.00000000E-01  1.50000000E+00
  1.50000000E+00  8.00000000E-01  8.00000000E-01  1.50000000E+00  1.50000000E+00
  8.00000000E-01  8.00000000E-01  1.50000000E+00  1.50000000E+00  8.00000000E-01
  8.00000000E-01  1.50000000E+00  1.50000000E+00  8.00000000E-01  8.00000000E-01
  1.50000000E+00  1.50000000E+00  8.00000000E-01  8.00000000E-01  1.50000000E+00
  1.50000000E+00  8.00000000E-01  8.00000000E-01  1.50000000E+00  1.50000000E+00
  8.00000000E-01  8.00000000E-01  1.50000000E+00  1.50000000E+00  8.00000000E-01
  8.00000000E-01  1.50000000E+00  1.50000000E+00  8.00000000E-01  8.00000000E-01
  1.50000000E+00  1.50000000E+00  8.00000000E-01  8.00000000E-01  1.50000000E+00
  1.50000000E+00  8.00000000E-01  8.00000000E-01  1.50000000E+00  1.50000000E+00
  8.00000000E-01  8.00000000E-01  1.50000000E+00  1.50000000E+00  8.00000000E-01
  8.00000000E-01  1.50000000E+00  1.50000000E+00  8.00000000E-01  8.00000000E-01
  1.50000000E+00  1.50000000E+00  8.00000000E-01  8.00000000E-01  1.50000000E+00
  1.50000000E+00  8.00000000E-01  8.00000000E-01  1.50000000E+00  1.50000000E+00
  8.00000000E-01  8.00000000E-01  1.50000000E+00  1.50000000E+00  8.00000000E-01
  8.00000000E-01  1.50000000E+00  1.50000000E+00  8.00000000E-01  8.00000000E-01
  1.50000000E+00  1.50000000E+00  8.00000000E-01  8.00000000E-01  1.50000000E+00
  1.50000000E+00  8.00000000E-01  8.00000000E-01  1.50000000E+00  1.50000000E+00
  8.00000000E-01  8.00000000E-01  1.50000000E+00  1.50000000E+00  8.00000000E-01
  8.00000000E-01  1.50000000E+00  1.50000000E+00  8.00000000E-01  8.00000000E-01
  1.50000000E+00  1.50000000E+00  8.00000000E-01  8.00000000E-01  1.50000000E+00
  1.50000000E+00  8.00000000E-01  8.00000000E-01  1.50000000E+00  1.50000000E+00
  8.00000000E-01  8.00000000E-01  1.50000000E+00  1.50000000E+00  8.00000000E-01
  8.00000000E-01  1.50000000E+00  1.50000000E+00  8.00000000E-01  8.00000000E-01
  1.50000000E+00  1.50000000E+00  8.00000000E-01  8.00000000E-01  1.50000000E+00
  1.50000000E+00  8.00000000E-01  8.00000000E-01  1.50000000E+00  1.50000000E+00
  8.00000000E-01  8.00000000E-01  1.50000000E+00  1.50000000E+00  8.00000000E-01
  8.00000000E-01  1.50000000E+00  1.50000000E+00  8.00000000E-01  8.00000000E-01
  1.50000000E+00  1.50000000E+00  8.00000000E-01  8.00000000E-01  1.50000000E+00
  1.50000000E+00  8.00000000E-01  8.00000000E-01  1.50000000E+00  1.50000000E+00
  8.00000000E-01  8.00000000E-01  1.50000000E+00  1.50000000E+00  8.00000000E-01
  8.00000000E-01  1.50000000E+00  1.50000000E+00  8.00000000E-01  8.00000000E-01
  1.50000000E+00  1.50000000E+00  8.00000000E-01  8.00000000E-01  1.50000000E+00
  1.50000000E+00  8.00000000E-01  8.00000000E-01  1.50000000E+00  1.50000000E+00
  8.00000000E-01  8.00000000E-01  1.50000000E+00  1.50000000E+00  8.00000000E-01
  8.00000000E-01  1.50000000E+00  1.50000000E+00  8.00000000E-01  8.00000000E-01
  1.50000000E+00  1.50000000E+00  8.00000000E-01  8.00000000E-01  1.50000000E+00
  1.50000000E+00  8.00000000E-01  8.00000000E-01  1.50000000E+00  1.50000000E+00
  8.00000000E-01  8.00000000E-01  1.50000000E+00  1.50000000E+00  8.00000000E-01
  8.00000000E-01  1.50000000E+00  1.50000000E+00  8.00000000E-01  8.00000000E-01
  1.50000000E+00  1.50000000E+00  8.00000000E-01  8.00000000E-01  1.50000000E+00
  1.50000000E+00  8.00000000E-01  8.00000000E-01  1.50000000E+00  1.50000000E+00
  8.00000000E-01  8.00000000E-01  1.50000000E+00  1.50000000E+00  8.00000000E-01
  8.00000000E-01  1.50000000E+00  1.50000000E+00  8.00000000E-01  8.00000000E-01
  1.50000000E+00  1.50000000E+00  8.00000000E-01  8.00000000E-01  1.50000000E+00
  1.50000000E+00  8.00000000E-01  8.00000000E-01  1.50000000E+00  1.50000000E+00
  8.00000000E-01  8.00000000E-01  1.50000000E+00  1.50000000E+00  8.00000000E-01
  8.00000000E-01  1.50000000E+00  1.50000000E+00  8.00000000E-01  8.00000000E-01
  1.50000000E+00  1.50000000E+00  8.00000000E-01  8.00000000E-01  1.50000000E+00
  1.50000000E+00  8.00000000E-01  8.00000000E-01  1.50000000E+00  1.50000000E+00
  8.00000000E-01  8.00000000E-01  1.50000000E+00  1.50000000E+00  8.00000000E-01
  8.00000000E-01  1.50000000E+00  1.50000000E+00  8.00000000E-01  8.00000000E-01
  1.50000000E+00  1.50000000E+00  8.00000000E-01  8.00000000E-01  1.50000000E+00
  1.50000000E+00  8.00000000E-01  8.00000000E-01  1.50000000E+00  1.50000000E+00
  8.00000000E-01  8.00000000E-01  1.50000000E+00  1.50000000E+00  8.00000000E-01
  8.00000000E-01  1.50000000E+00  1.50000000E+00  8.00000000E-01  8.00000000E-01
  1.50000000E+00  1.50000000E+00  8.00000000E-01  8.00000000E-01  1.50000000E+00
  1.50000000E+00  8.00000000E-01  8.00000000E-01  1.50000000E+00  1.50000000E+00
  8.00000000E-01  8.00000000E-01  1.50000000E+00  1.50000000E+00  8.00000000E-01
  8.00000000E-01  1.50000000E+00  1.50000000E+00  8.00000000E-01  8.00000000E-01
  1.50000000E+00  1.50000000E+00  8.00000000E-01  8.00000000E-01  1.50000000E+00
  1.50000000E+00  8.00000000E-01  8.00000000E-01  1.50000000E+00  1.50000000E+00
  8.00000000E-01  8.00000000E-01  1.50000000E+00  1.50000000E+00  8.00000000E-01
  8.00000000E-01  1.50000000E+00  1.50000000E+00  8.00000000E-01  8.00000000E-01
  1.50000000E+00  1.50000000E+00  8.00000000E-01  8.00000000E-01  1.50000000E+00
  1.50000000E+00  8.00000000E-01  8.00000000E-01  1.50000000E+00  1.50000000E+00
  8.00000000E-01  8.00000000E-01  1.50000000E+00  1.50000000E+00  8.00000000E-01
  8.00000000E-01  1.50000000E+00  1.50000000E+00  8.00000000E-01  8.00000000E-01
  1.50000000E+00  1.50000000E+00  8.00000000E-01  8.00000000E-01  1.50000000E+00
  1.50000000E+00  8.00000000E-01  8.00000000E-01  1.50000000E+00  1.50000000E+00
  8.00000000E-01  8.00000000E-01  1.50000000E+00  1.50000000E+00  8.00000000E-01
  8.00000000E-01  1.50000000E+00  1.50000000E+00  8.00000000E-01  8.00000000E-01
  1.50000000E+00  1.50000000E+00  8.00000000E-01  8.00000000E-01  1.50000000E+00
  1.50000000E+00  8.00000000E-01  8.00000000E-01  1.50000000E+00  1.50000000E+00
  8.00000000E-01  8.00000000E-01  1.50000000E+00  1.50000000E+00  8.00000000E-01
  8.00000000E-01  1.50000000E+00  1.50000000E+00  8.00000000E-01  8.00000000E-01
  1.50000000E+00  1.50000000E+00  8.00000000E-01  8.00000000E-01  1.50000000E+00
  1.50000000E+00  8.00000000E-01  8.00000000E-01  1.50000000E+00  1.50000000E+00
  8.00000000E-01  8.00000000E-01  1.50000000E+00  1.50000000E+00  8.00000000E-01
  8.00000000E-01  1.50000000E+00  1.50000000E+00  8.00000000E-01  8.00000000E-01
  1.50000000E+00  1.50000000E+00  8.00000000E-01  8.00000000E-01  1.50000000E+00
  1.50000000E+00  8.00000000E-01  8.00000000E-01  1.50000000E+00  1.50000000E+00
  8.00000000E-01  8.00000000E-01  1.50000000E+00  1.50000000E+00  8.00000000E-01
  8.00000000E-01  1.50000000E+00  1.50000000E+00  8.00000000E-01  8.00000000E-01
  1.50000000E+00  1.50000000E+00  8.00000000E-01  8.00000000E-01  1.50000000E+00
  1.50000000E+00  8.00000000E-01  8.00000000E-01  1.50000000E+00  1.50000000E+00
  8.00000000E-01  8.00000000E-01  1.50000000E+00  1.50000000E+00  8.00000000E-01
  8.00000000E-01  1.50000000E+00  1.50000000E+00  8.00000000E-01  8.00000000E-01
  1.50000000E+00  1.50000000E+00  8.00000000E-01  8.00000000E-01  1.50000000E+00
  1.50000000E+00  8.00000000E-01  8.00000000E-01  1.50000000E+00  1.50000000E+00
  8.00000000E-01  8.00000000E-01  1.50000000E+00  1.50000000E+00  8.00000000E-01
  8.00000000E-01  1.50000000E+00  1.50000000E+00  8.00000000E-01  8.00000000E-01
  1.50000000E+00  1.50000000E+00  8.00000000E-01  8.00000000E-01  1.50000000E+00
  1.50000000E+00  8.00000000E-01  8.00000000E-01  1.50000000E+00  1.50000000E+00
  8.00000000E-01  8.00000000E-01  1.50000000E+00  1.50000000E+00  8.00000000E-01
  8.00000000E-01  1.50000000E+00  1.50000000E+00  8.00000000E-01  8.00000000E-01
  1.50000000E+00  1.50000000E+00  8.00000000E-01  8.00000000E-01  1.50000000E+00
  1.50000000E+00  8.00000000E-01  8.00000000E-01  1.50000000E+00  1.50000000E+00
  8.00000000E-01  8.00000000E-01  1.50000000E+00  1.50000000E+00  8.00000000E-01
  8.00000000E-01  1.50000000E+00  1.50000000E+00  8.00000000E-01  8.00000000E-01
  1.50000000E+00  1.50000000E+00  8.00000000E-01  8.00000000E-01  1.50000000E+00
  1.50000000E+00  8.00000000E-01  8.00000000E-01  1.50000000E+00  1.50000000E+00
  8.00000000E-01  8.00000000E-01  1.50000000E+00  1.50000000E+00  8.00000000E-01
  8.00000000E-01  1.50000000E+00  1.50000000E+00  8.00000000E-01  8.00000000E-01
  1.50000000E+00  1.50000000E+00  8.00000000E-01  8.00000000E-01  1.50000000E+00
  1.50000000E+00  8.00000000E-01  8.00000000E-01  1.50000000E+00  1.50000000E+00
  8.00000000E-01  8.00000000E-01  1.50000000E+00  1.50000000E+00  8.00000000E-01
  8.00000000E-01  1.50000000E+00  1.50000000E+00  8.00000000E-01  8.00000000E-01
  1.50000000E+00  1.50000000E+00  8.00000000E-01  8.00000000E-01  1.50000000E+00
  1.50000000E+00  8.00000000E-01  8.00000000E-01  1.50000000E+00  1.50000000E+00
  8.00000000E-01  8.00000000E-01  1.50000000E+00  1.50000000E+00  8.00000000E-01
  8.00000000E-01  1.50000000E+00  1.50000000E+00  8.00000000E-01  8.00000000E-01
  1.50000000E+00  1.50000000E+00  8.00000000E-01  8.00000000E-01  1.50000000E+00
  1.50000000E+00  8.00000000E-01  8.00000000E-01  1.50000000E+00  1.50000000E+00
  8.00000000E-01  8.00000000E-01  1.50000000E+00  1.50000000E+00  8.00000000E-01
  8.00000000E-01  1.50000000E+00  1.50000000E+00  8.00000000E-01  8.00000000E-01
  1.50000000E+00  1.50000000E+00  8.00000000E-01  8.00000000E-01  1.50000000E+00
  1.50000000E+00  8.00000000E-01  8.00000000E-01  1.50000000E+00  1.50000000E+00
  8.00000000E-01  8.00000000E-01  1.50000000E+00  1.50000000E+00  8.00000000E-01
  8.00000000E-01  1.50000000E+00  1.50000000E+00  8.00000000E-01  8.00000000E-01
  1.50000000E+00  1.50000000E+00  8.00000000E-01  8.00000000E-01  1.50000000E+00
  1.50000000E+00  8.00000000E-01  8.00000000E-01  1.50000000E+00  1.50000000E+00
  8.00000000E-01  8.00000000E-01  1.50000000E+00  1.50000000E+00  8.00000000E-01
  8.00000000E-01  1.50000000E+00  1.50000000E+00  8.00000000E-01  8.00000000E-01
  1.50000000E+00  1.50000000E+00  8.00000000E-01  8.00000000E-01  1.50000000E+00
  1.50000000E+00  8.00000000E-01  8.00000000E-01  1.50000000E+00  1.50000000E+00
  8.00000000E-01  8.00000000E-01  1.50000000E+00  1.50000000E+00  8.00000000E-01
  8.00000000E-01  1.50000000E+00  1.50000000E+00  8.00000000E-01  8.00000000E-01
  1.50000000E+00  1.50000000E+00  8.00000000E-01  8.00000000E-01  1.50000000E+00
  1.50000000E+00  8.00000000E-01  8.00000000E-01  1.50000000E+00  1.50000000E+00
  8.00000000E-01  8.00000000E-01  1.50000000E+00  1.50000000E+00  8.00000000E-01
  8.00000000E-01  1.50000000E+00  1.50000000E+00  8.00000000E-01  8.00000000E-01
  1.50000000E+00  1.50000000E+00  8.00000000E-01  8.00000000E-01  1.50000000E+00
  1.50000000E+00  8.00000000E-01  8.00000000E-01  1.50000000E+00  1.50000000E+00
  8.00000000E-01  8.00000000E-01  1.50000000E+00  1.50000000E+00  8.00000000E-01
  8.00000000E-01  1.50000000E+00  1.50000000E+00  8.00000000E-01  8.00000000E-01
  1.50000000E+00  1.50000000E+00  8.00000000E-01  8.00000000E-01  1.50000000E+00
  1.50000000E+00  8.00000000E-01  8.00000000E-01  1.50000000E+00  1.50000000E+00
  8.00000000E-01  8.00000000E-01  1.50000000E+00  1.50000000E+00  8.00000000E-01
  8.00000000E-01  1.50000000E+00  1.50000000E+00  8.00000000E-01  8.00000000E-01
  1.50000000E+00  1.50000000E+00  8.00000000E-01  8.00000000E-01  1.50000000E+00
  1.50000000E+00  8.00000000E-01  8.00000000E-01  1.50000000E+00  1.50000000E+00
  8.00000000E-01  8.00000000E-01  1.50000000E+00  1.50000000E+00  8.00000000E-01
  8.00000000E-01  1.50000000E+00  1.50000000E+00  8.00000000E-01  8.00000000E-01
  1.50000000E+00  1.50000000E+00  8.00000000E-01  8.00000000E-01  1.50000000E+00
  1.50000000E+00  8.00000000E-01  8.00000000E-01  1.50000000E+00  1.50000000E+00
  8.00000000E-01  8.00000000E-01  1.50000000E+00  1.50000000E+00  8.00000000E-01
  8.00000000E-01  1.50000000E+00  1.50000000E+00  8.00000000E-01  8.00000000E-01
  1.50000000E+00  1.50000000E+00  8.00000000E-01  8.00000000E-01  1.50000000E+00
  1.50000000E+00  8.00000000E-01  8.00000000E-01  1.50000000E+00  1.50000000E+00
  8.00000000E-01  8.00000000E-01  1.50000000E+00  1.50000000E+00  8.00000000E-01
  8.00000000E-01  1.50000000E+00  1.50000000E+00  8.00000000E-01  8.00000000E-01
  1.50000000E+00  1.50000000E+00  8.00000000E-01  8.00000000E-01  1.50000000E+00
  1.50000000E+00  8.00000000E-01  8.00000000E-01  1.50000000E+00  1.50000000E+00
  8.00000000E-01  8.00000000E-01  1.50000000E+00  1.50000000E+00  8.00000000E-01
  8.00000000E-01  1.50000000E+00  1.50000000E+00  8.00000000E-01  8.00000000E-01
  1.50000000E+00  1.50000000E+00  8.00000000E-01  8.00000000E-01  1.50000000E+00
  1.50000000E+00  8.00000000E-01  8.00000000E-01  1.50000000E+00  1.50000000E+00
  8.00000000E-01  8.00000000E-01  1.50000000E+00  1.50000000E+00  8.00000000E-01
  8.00000000E-01  1.50000000E+00  1.50000000E+00  8.00000000E-01  8.00000000E-01
  1.50000000E+00  1.50000000E+00  8.00000000E-01  8.00000000E-01  1.50000000E+00
  1.50000000E+00  8.00000000E-01  8.00000000E-01  1.50000000E+00  1.50000000E+00
  8.00000000E-01  8.00000000E-01  1.50000000E+00  1.50000000E+00  8.00000000E-01
  8.00000000E-01  1.50000000E+00  1.50000000E+00  8.00000000E-01  8.00000000E-01
  1.50000000E+00  1.50000000E+00  8.00000000E-01  8.00000000E-01  1.50000000E+00
  1.50000000E+00  8.00000000E-01  8.00000000E-01  1.50000000E+00  1.50000000E+00
  8.00000000E-01  8.00000000E-01  1.50000000E+00  1.50000000E+00  8.00000000E-01
  8.00000000E-01  1.50000000E+00  1.50000000E+00  8.00000000E-01  8.00000000E-01
  1.50000000E+00  1.50000000E+00  8.00000000E-01  8.00000000E-01  1.50000000E+00
  1.50000000E+00  8.00000000E-01  8.00000000E-01  1.50000000E+00  1.50000000E+00
  8.00000000E-01  8.00000000E-01  1.50000000E+00  1.50000000E+00  8.00000000E-01
  8.00000000E-01  1.50000000E+00  1.50000000E+00  8.00000000E-01  8.00000000E-01
  1.50000000E+00  1.50000000E+00  8.00000000E-01  8.00000000E-01  1.50000000E+00
  1.50000000E+00  8.00000000E-01  8.00000000E-01  1.50000000E+00  1.50000000E+00
  8.00000000E-01  8.00000000E-01  1.50000000E+00  1.50000000E+00  8.00000000E-01
  8.00000000E-01  1.50000000E+00  1.50000000E+00  8.00000000E-01  8.00000000E-01
  1.50000000E+00  1.50000000E+00  8.00000000E-01  8.00000000E-01  1.50000000E+00
  1.50000000E+00  8.00000000E-01  8.00000000E-01  1.50000000E+00  1.50000000E+00
  8.00000000E-01  8.00000000E-01  1.50000000E+00  1.50000000E+00  8.00000000E-01
  8.00000000E-01  1.50000000E+00  1.50000000E+00  8.00000000E-01  8.00000000E-01
  1.50000000E+00  1.50000000E+00  8.00000000E-01  8.00000000E-01  1.50000000E+00
  1.50000000E+00  8.00000000E-01  8.00000000E-01  1.50000000E+00  1.50000000E+00
  8.00000000E-01  8.00000000E-01  1.50000000E+00  1.50000000E+00  8.00000000E-01
  8.00000000E-01  1.50000000E+00  1.50000000E+00  8.00000000E-01  8.00000000E-01
  1.50000000E+00  1.50000000E+00  8.00000000E-01  8.00000000E-01  1.50000000E+00
  1.50000000E+00  8.00000000E-01  8.00000000E-01  1.50000000E+00  1.50000000E+00
  8.00000000E-01  8.00000000E-01  1.50000000E+00  1.50000000E+00  8.00000000E-01
  8.00000000E-01  1.50000000E+00  1.50000000E+00  8.00000000E-01  8.00000000E-01
  1.50000000E+00  1.50000000E+00  8.00000000E-01  8.00000000E-01  1.50000000E+00
  1.50000000E+00  8.00000000E-01  8.00000000E-01  1.50000000E+00  1.50000000E+00
  8.00000000E-01  8.00000000E-01  1.50000000E+00  1.50000000E+00  8.00000000E-01
  8.00000000E-01  1.50000000E+00  1.50000000E+00  8.00000000E-01  8.00000000E-01
  1.50000000E+00  1.50000000E+00  8.00000000E-01  8.00000000E-01  1.50000000E+00
  1.50000000E+00  8.00000000E-01  8.00000000E-01  1.50000000E+00  1.50000000E+00
  8.00000000E-01  8.00000000E-01  1.50000000E+00  1.50000000E+00  8.00000000E-01
  8.00000000E-01  1.50000000E+00  1.50000000E+00  8.00000000E-01  8.00000000E-01
  1.50000000E+00  1.50000000E+00  8.00000000E-01  8.00000000E-01  1.50000000E+00
  1.50000000E+00  8.00000000E-01  8.00000000E-01  1.50000000E+00  1.50000000E+00
  8.00000000E-01  8.00000000E-01  1.50000000E+00  1.50000000E+00  8.00000000E-01
  8.00000000E-01  1.50000000E+00  1.50000000E+00  8.00000000E-01  8.00000000E-01
  1.50000000E+00  1.50000000E+00  8.00000000E-01  8.00000000E-01  1.50000000E+00
  1.50000000E+00  8.00000000E-01  8.00000000E-01  1.50000000E+00  1.50000000E+00
  8.00000000E-01  8.00000000E-01  1.50000000E+00  1.50000000E+00  8.00000000E-01
  8.00000000E-01  1.50000000E+00  1.50000000E+00  8.00000000E-01  8.00000000E-01
  1.50000000E+00  1.50000000E+00  8.00000000E-01  8.00000000E-01  1.50000000E+00
  1.50000000E+00  8.00000000E-01  8.00000000E-01  1.50000000E+00  1.50000000E+00
  8.00000000E-01  8.00000000E-01  1.50000000E+00  1.50000000E+00  8.00000000E-01
  8.00000000E-01  1.50000000E+00  1.50000000E+00  8.00000000E-01  8.00000000E-01
  1.50000000E+00  1.50000000E+00  8.00000000E-01  8.00000000E-01  1.50000000E+00
  1.50000000E+00  8.00000000E-01  8.00000000E-01  1.50000000E+00  1.50000000E+00
  8.00000000E-01  8.00000000E-01  1.50000000E+00  1.50000000E+00  8.00000000E-01
  8.00000000E-01  1.50000000E+00  1.50000000E+00  8.00000000E-01  8.00000000E-01
  1.50000000E+00  1.50000000E+00  8.00000000E-01  8.00000000E-01  1.50000000E+00
  1.50000000E+00  8.00000000E-01  8.00000000E-01  1.50000000E+00  1.50000000E+00
  8.00000000E-01  8.00000000E-01  1.50000000E+00  1.50000000E+00  8.00000000E-01
  8.00000000E-01  1.50000000E+00  1.50000000E+00  8.00000000E-01  8.00000000E-01
  1.50000000E+00  1.50000000E+00  8.00000000E-01  8.00000000E-01  1.50000000E+00
  1.50000000E+00  8.00000000E-01  8.00000000E-01  1.50000000E+00  1.50000000E+00
  8.00000000E-01  8.00000000E-01  1.50000000E+00  1.50000000E+00  8.00000000E-01
  8.00000000E-01  1.50000000E+00  1.50000000E+00  8.00000000E-01  8.00000000E-01
  1.50000000E+00  1.50000000E+00  8.00000000E-01  8.00000000E-01  1.50000000E+00
  1.50000000E+00  8.00000000E-01  8.00000000E-01  1.50000000E+00  1.50000000E+00
  8.00000000E-01  8.00000000E-01  1.50000000E+00  1.50000000E+00  8.00000000E-01
  8.00000000E-01  1.50000000E+00  1.50000000E+00  8.00000000E-01  8.00000000E-01
  1.50000000E+00  1.50000000E+00  8.00000000E-01  8.00000000E-01  1.50000000E+00
  1.50000000E+00  8.00000000E-01  8.00000000E-01  1.50000000E+00  1.50000000E+00
  8.00000000E-01  8.00000000E-01  1.50000000E+00  1.50000000E+00  8.00000000E-01
  8.00000000E-01  1.50000000E+00  1.50000000E+00  8.00000000E-01  8.00000000E-01
  1.50000000E+00  1.50000000E+00  8.00000000E-01  8.00000000E-01  1.50000000E+00
  1.50000000E+00  8.00000000E-01  8.00000000E-01  1.50000000E+00  1.50000000E+00
  8.00000000E-01  8.00000000E-01  1.50000000E+00  1.50000000E+00  8.00000000E-01
  8.00000000E-01  1.50000000E+00  1.50000000E+00  8.00000000E-01  8.00000000E-01
  1.50000000E+00  1.50000000E+00  8.00000000E-01  8.00000000E-01  1.50000000E+00
  1.50000000E+00  8.00000000E-01  8.00000000E-01  1.50000000E+00  1.50000000E+00
  8.00000000E-01  8.00000000E-01  1.50000000E+00  1.50000000E+00  8.00000000E-01
  8.00000000E-01  1.50000000E+00  1.50000000E+00  8.00000000E-01  8.00000000E-01
  1.50000000E+00  1.50000000E+00  8.00000000E-01  8.00000000E-01  1.50000000E+00
  1.50000000E+00  8.00000000E-01  8.00000000E-01  1.50000000E+00  1.50000000E+00
  8.00000000E-01  8.00000000E-01  1.50000000E+00  1.50000000E+00  8.00000000E-01
  8.00000000E-01  1.50000000E+00  1.50000000E+00  8.00000000E-01  8.00000000E-01
  1.50000000E+00  1.50000000E+00  8.00000000E-01  8.00000000E-01  1.50000000E+00
  1.50000000E+00  8.00000000E-01  8.00000000E-01  1.50000000E+00  1.50000000E+00
  8.00000000E-01  8.00000000E-01  1.50000000E+00  1.50000000E+00  8.00000000E-01
  8.00000000E-01  1.50000000E+00  1.50000000E+00  8.00000000E-01  8.00000000E-01
  1.50000000E+00  1.50000000E+00  8.00000000E-01  8.00000000E-01  1.50000000E+00
  1.50000000E+00  8.00000000E-01  8.00000000E-01  1.50000000E+00  1.50000000E+00
  8.00000000E-01  8.00000000E-01  1.50000000E+00  1.50000000E+00  8.00000000E-01
  8.00000000E-01  1.50000000E+00  1.50000000E+00  8.00000000E-01  8.00000000E-01
  1.50000000E+00  1.50000000E+00  8.00000000E-01  8.00000000E-01  1.50000000E+00
  1.50000000E+00  8.00000000E-01  8.00000000E-01  1.50000000E+00  1.50000000E+00
  8.00000000E-01  8.00000000E-01  1.50000000E+00  1.50000000E+00  8.00000000E-01
  8.00000000E-01  1.50000000E+00  1.50000000E+00  8.00000000E-01  8.00000000E-01
  1.50000000E+00  1.50000000E+00  8.00000000E-01  8.00000000E-01  1.50000000E+00
  1.50000000E+00  8.00000000E-01  8.00000000E-01  1.50000000E+00  1.50000000E+00
  8.00000000E-01  8.00000000E-01  1.50000000E+00  1.50000000E+00  8.00000000E-01
  8.00000000E-01  1.50000000E+00  1.50000000E+00  8.00000000E-01  8.00000000E-01
  1.50000000E+00  1.50000000E+00  8.00000000E-01  8.00000000E-01  1.50000000E+00
  1.50000000E+00  8.00000000E-01  8.00000000E-01  1.50000000E+00  1.50000000E+00
  8.00000000E-01  8.00000000E-01  1.50000000E+00  1.50000000E+00  8.00000000E-01
  8.00000000E-01  1.50000000E+00  1.50000000E+00  8.00000000E-01  8.00000000E-01
  1.50000000E+00  1.50000000E+00  8.00000000E-01  8.00000000E-01  1.50000000E+00
  1.50000000E+00  8.00000000E-01  8.00000000E-01  1.50000000E+00  1.50000000E+00
  8.00000000E-01  8.00000000E-01  1.50000000E+00  1.50000000E+00  8.00000000E-01
  8.00000000E-01  1.50000000E+00  1.50000000E+00  8.00000000E-01  8.00000000E-01
  1.50000000E+00  1.50000000E+00  8.00000000E-01  8.00000000E-01  1.50000000E+00
  1.50000000E+00  8.00000000E-01  8.00000000E-01  1.50000000E+00  1.50000000E+00
  8.00000000E-01  8.00000000E-01  1.50000000E+00  1.50000000E+00  8.00000000E-01
  8.00000000E-01  1.50000000E+00  1.50000000E+00  8.00000000E-01  8.00000000E-01
  1.50000000E+00  1.50000000E+00  8.00000000E-01  8.00000000E-01  1.50000000E+00
  1.50000000E+00  8.00000000E-01  8.00000000E-01  1.50000000E+00  1.50000000E+00
  8.00000000E-01  8.00000000E-01  1.50000000E+00  1.50000000E+00  8.00000000E-01
  8.00000000E-01  1.50000000E+00  1.50000000E+00  8.00000000E-01  8.00000000E-01
  1.50000000E+00  1.50000000E+00  8.00000000E-01  8.00000000E-01  1.50000000E+00
  1.50000000E+00  8.00000000E-01  8.00000000E-01  1.50000000E+00  1.50000000E+00
  8.00000000E-01  8.00000000E-01  1.50000000E+00  1.50000000E+00  8.00000000E-01
  8.00000000E-01  1.50000000E+00  1.50000000E+00  8.00000000E-01  8.00000000E-01
  1.50000000E+00  1.50000000E+00  8.00000000E-01  8.00000000E-01  1.50000000E+00
  1.50000000E+00  8.00000000E-01  8.00000000E-01  1.50000000E+00  1.50000000E+00
  8.00000000E-01  8.00000000E-01  1.50000000E+00  1.50000000E+00  8.00000000E-01
  8.00000000E-01  1.50000000E+00  1.50000000E+00  8.00000000E-01  8.00000000E-01
  1.50000000E+00  1.50000000E+00  8.00000000E-01  8.00000000E-01  1.50000000E+00
  1.50000000E+00  8.00000000E-01  8.00000000E-01  1.50000000E+00  1.50000000E+00
  8.00000000E-01  8.00000000E-01  1.50000000E+00  1.50000000E+00  8.00000000E-01
  8.00000000E-01  1.50000000E+00  1.50000000E+00  8.00000000E-01  8.00000000E-01
  1.50000000E+00  1.50000000E+00  8.00000000E-01  8.00000000E-01  1.50000000E+00
  1.50000000E+00  8.00000000E-01  8.00000000E-01  1.50000000E+00  1.50000000E+00
  8.00000000E-01  8.00000000E-01  1.50000000E+00  1.50000000E+00  8.00000000E-01
  8.00000000E-01  1.50000000E+00  1.50000000E+00  8.00000000E-01  8.00000000E-01
  1.50000000E+00  1.50000000E+00  8.00000000E-01  8.00000000E-01  1.50000000E+00
  1.50000000E+00  8.00000000E-01  8.00000000E-01  1.50000000E+00  1.50000000E+00
  8.00000000E-01  8.00000000E-01  1.50000000E+00  1.50000000E+00  8.00000000E-01
  8.00000000E-01  1.50000000E+00  1.50000000E+00  8.00000000E-01  8.00000000E-01
  1.50000000E+00  1.50000000E+00  8.00000000E-01  8.00000000E-01  1.50000000E+00
  1.50000000E+00  8.00000000E-01  8.00000000E-01  1.50000000E+00  1.50000000E+00
  8.00000000E-01  8.00000000E-01  1.50000000E+00  1.50000000E+00  8.00000000E-01
  8.00000000E-01  1.50000000E+00  1.50000000E+00  8.00000000E-01  8.00000000E-01
  1.50000000E+00  1.50000000E+00  8.00000000E-01  8.00000000E-01  1.50000000E+00
  1.50000000E+00  8.00000000E-01  8.00000000E-01  1.50000000E+00  1.50000000E+00
  8.00000000E-01  8.00000000E-01  1.50000000E+00  1.50000000E+00  8.00000000E-01
  8.00000000E-01  1.50000000E+00  1.50000000E+00  8.00000000E-01  8.00000000E-01
  1.50000000E+00  1.50000000E+00  8.00000000E-01  8.00000000E-01  1.50000000E+00
  1.50000000E+00  8.00000000E-01  8.00000000E-01  1.50000000E+00  1.50000000E+00
  8.00000000E-01  8.00000000E-01  1.50000000E+00  1.50000000E+00  8.00000000E-01
  8.00000000E-01  1.50000000E+00  1.50000000E+00  8.00000000E-01  8.00000000E-01
  1.50000000E+00  1.50000000E+00  8.00000000E-01  8.00000000E-01  1.50000000E+00
  1.50000000E+00  8.00000000E-01  8.00000000E-01  1.50000000E+00  1.50000000E+00
  8.00000000E-01  8.00000000E-01  1.50000000E+00  1.50000000E+00  8.00000000E-01
  8.00000000E-01  1.50000000E+00  1.50000000E+00  8.00000000E-01  8.00000000E-01
  1.50000000E+00  1.50000000E+00  8.00000000E-01  8.00000000E-01  1.50000000E+00
  1.50000000E+00  8.00000000E-01  8.00000000E-01  1.50000000E+00  1.50000000E+00
  8.00000000E-01  8.00000000E-01  1.50000000E+00  1.50000000E+00  8.00000000E-01
  8.00000000E-01  1.50000000E+00  1.50000000E+00  8.00000000E-01  8.00000000E-01
  1.50000000E+00  1.50000000E+00  8.00000000E-01  8.00000000E-01  1.50000000E+00
  1.50000000E+00  8.00000000E-01  8.00000000E-01  1.50000000E+00  1.50000000E+00
  8.00000000E-01  8.00000000E-01  1.50000000E+00  1.50000000E+00  8.00000000E-01
  8.00000000E-01  1.50000000E+00  1.50000000E+00  8.00000000E-01  8.00000000E-01
  1.50000000E+00  1.50000000E+00  8.00000000E-01  8.00000000E-01  1.50000000E+00
  1.50000000E+00  8.00000000E-01  8.00000000E-01  1.50000000E+00  1.50000000E+00
  8.00000000E-01  8.00000000E-01  1.50000000E+00  1.50000000E+00  8.00000000E-01
  8.00000000E-01  1.50000000E+00  1.50000000E+00  8.00000000E-01  8.00000000E-01
  1.50000000E+00  1.50000000E+00  8.00000000E-01  8.00000000E-01  1.50000000E+00
  1.50000000E+00  8.00000000E-01  8.00000000E-01  1.50000000E+00  1.50000000E+00
  8.00000000E-01  8.00000000E-01  1.50000000E+00  1.50000000E+00  8.00000000E-01
  8.00000000E-01  1.50000000E+00  1.50000000E+00  8.00000000E-01  8.00000000E-01
  1.50000000E+00  1.50000000E+00  8.00000000E-01  8.00000000E-01  1.50000000E+00
  1.50000000E+00  8.00000000E-01  8.00000000E-01  1.50000000E+00  1.50000000E+00
  8.00000000E-01  8.00000000E-01  1.50000000E+00  1.50000000E+00  8.00000000E-01
  8.00000000E-01  1.50000000E+00  1.50000000E+00  8.00000000E-01  8.00000000E-01
  1.50000000E+00  1.50000000E+00  8.00000000E-01  8.00000000E-01  1.50000000E+00
  1.50000000E+00  8.00000000E-01  8.00000000E-01  1.50000000E+00  1.50000000E+00
  8.00000000E-01  8.00000000E-01  1.50000000E+00  1.50000000E+00  8.00000000E-01
  8.00000000E-01  1.50000000E+00  1.50000000E+00  8.00000000E-01  8.00000000E-01
  1.50000000E+00  1.50000000E+00  8.00000000E-01  8.00000000E-01  1.50000000E+00
  1.50000000E+00  8.00000000E-01  8.00000000E-01  1.50000000E+00  1.50000000E+00
  8.00000000E-01  8.00000000E-01  1.50000000E+00  1.50000000E+00  8.00000000E-01
  8.00000000E-01  1.50000000E+00  1.50000000E+00  8.00000000E-01  8.00000000E-01
  1.50000000E+00  1.50000000E+00  8.00000000E-01  8.00000000E-01  1.50000000E+00
  1.50000000E+00  8.00000000E-01  8.00000000E-01  1.50000000E+00  1.50000000E+00
  8.00000000E-01  8.00000000E-01  1.50000000E+00  1.50000000E+00  8.00000000E-01
  8.00000000E-01  1.50000000E+00  1.50000000E+00  8.00000000E-01  8.00000000E-01
  1.50000000E+00  1.50000000E+00  8.00000000E-01  8.00000000E-01  1.50000000E+00
  1.50000000E+00  8.00000000E-01  8.00000000E-01  1.50000000E+00  1.50000000E+00
  8.00000000E-01  8.00000000E-01  1.50000000E+00  1.50000000E+00  8.00000000E-01
  8.00000000E-01  1.50000000E+00  1.50000000E+00  8.00000000E-01  8.00000000E-01
  1.50000000E+00  1.50000000E+00  8.00000000E-01  8.00000000E-01  1.50000000E+00
  1.50000000E+00  8.00000000E-01  8.00000000E-01  1.50000000E+00  1.50000000E+00
  8.00000000E-01  8.00000000E-01  1.50000000E+00  1.50000000E+00  8.00000000E-01
  8.00000000E-01  1.50000000E+00  1.50000000E+00  8.00000000E-01  8.00000000E-01
  1.50000000E+00  1.50000000E+00  8.00000000E-01  8.00000000E-01  1.50000000E+00
  1.50000000E+00  8.00000000E-01  8.00000000E-01  1.50000000E+00  1.50000000E+00
  8.00000000E-01  8.00000000E-01  1.50000000E+00  1.50000000E+00  8.00000000E-01
  8.00000000E-01  1.50000000E+00  1.50000000E+00  8.00000000E-01  8.00000000E-01
  1.50000000E+00  1.50000000E+00  8.00000000E-01  8.00000000E-01  1.50000000E+00
  1.50000000E+00  8.00000000E-01  8.00000000E-01  1.50000000E+00  1.50000000E+00
  8.00000000E-01  8.00000000E-01  1.50000000E+00  1.50000000E+00  8.00000000E-01
  8.00000000E-01  1.50000000E+00  1.50000000E+00  8.00000000E-01  8.00000000E-01
  1.50000000E+00  1.50000000E+00  8.00000000E-01  8.00000000E-01  1.50000000E+00
  1.50000000E+00  8.00000000E-01  8.00000000E-01  1.50000000E+00  1.50000000E+00
  8.00000000E-01  8.00000000E-01  1.50000000E+00  1.50000000E+00  8.00000000E-01
  8.00000000E-01  1.50000000E+00  1.50000000E+00  8.00000000E-01  8.00000000E-01
  1.50000000E+00  1.50000000E+00  8.00000000E-01  8.00000000E-01  1.50000000E+00
  1.50000000E+00  8.00000000E-01  8.00000000E-01  1.50000000E+00  1.50000000E+00
  8.00000000E-01  8.00000000E-01  1.50000000E+00  1.50000000E+00  8.00000000E-01
  8.00000000E-01  1.50000000E+00  1.50000000E+00  8.00000000E-01  8.00000000E-01
  1.50000000E+00  1.50000000E+00  8.00000000E-01  8.00000000E-01  1.50000000E+00
  1.50000000E+00  8.00000000E-01  8.00000000E-01  1.50000000E+00  1.50000000E+00
  8.00000000E-01  8.00000000E-01  1.50000000E+00  1.50000000E+00  8.00000000E-01
  8.00000000E-01  1.50000000E+00  1.50000000E+00  8.00000000E-01  8.00000000E-01
  1.50000000E+00  1.50000000E+00  8.00000000E-01  8.00000000E-01  1.50000000E+00
  1.50000000E+00  8.00000000E-01  8.00000000E-01  1.50000000E+00  1.50000000E+00
  8.00000000E-01  8.00000000E-01  1.50000000E+00  1.50000000E+00  8.00000000E-01
  8.00000000E-01  1.50000000E+00  1.50000000E+00  8.00000000E-01  8.00000000E-01
  1.50000000E+00  1.50000000E+00  8.00000000E-01  8.00000000E-01  1.50000000E+00
  1.50000000E+00  8.00000000E-01  8.00000000E-01  1.50000000E+00  1.50000000E+00
  8.00000000E-01  8.00000000E-01  1.50000000E+00  1.50000000E+00  8.00000000E-01
  8.00000000E-01  1.50000000E+00  1.50000000E+00  8.00000000E-01  8.00000000E-01
  1.50000000E+00  1.50000000E+00  8.00000000E-01  8.00000000E-01  1.50000000E+00
  1.50000000E+00  8.00000000E-01  8.00000000E-01  1.50000000E+00  1.50000000E+00
  8.00000000E-01  8.00000000E-01  1.50000000E+00  1.50000000E+00  8.00000000E-01
  8.00000000E-01  1.50000000E+00  1.50000000E+00  8.00000000E-01  8.00000000E-01
  1.50000000E+00  1.50000000E+00  8.00000000E-01  8.00000000E-01  1.50000000E+00
  1.50000000E+00  8.00000000E-01  8.00000000E-01  1.50000000E+00  1.50000000E+00
  8.00000000E-01  8.00000000E-01  1.50000000E+00  1.50000000E+00  8.00000000E-01
  8.00000000E-01  1.50000000E+00  1.50000000E+00  8.00000000E-01  8.00000000E-01
  1.50000000E+00  1.50000000E+00  8.00000000E-01  8.00000000E-01  1.50000000E+00
  1.50000000E+00  8.00000000E-01  8.00000000E-01  1.50000000E+00  1.50000000E+00
  8.00000000E-01  8.00000000E-01  1.50000000E+00  1.50000000E+00  8.00000000E-01
  8.00000000E-01  1.50000000E+00  1.50000000E+00  8.00000000E-01  8.00000000E-01
  1.50000000E+00  1.50000000E+00  8.00000000E-01  8.00000000E-01  1.50000000E+00
  1.50000000E+00  8.00000000E-01  8.00000000E-01  1.50000000E+00  1.50000000E+00
  8.00000000E-01  8.00000000E-01  1.50000000E+00  1.50000000E+00  8.00000000E-01
  8.00000000E-01  1.50000000E+00  1.50000000E+00  8.00000000E-01  8.00000000E-01
  1.50000000E+00  1.50000000E+00  8.00000000E-01  8.00000000E-01  1.50000000E+00
  1.50000000E+00  8.00000000E-01  8.00000000E-01  1.50000000E+00  1.50000000E+00
  8.00000000E-01  8.00000000E-01  1.50000000E+00  1.50000000E+00  8.00000000E-01
  8.00000000E-01  1.50000000E+00  1.50000000E+00  8.00000000E-01  8.00000000E-01
  1.50000000E+00  1.50000000E+00  8.00000000E-01  8.00000000E-01  1.50000000E+00
  1.50000000E+00  8.00000000E-01  8.00000000E-01  1.50000000E+00  1.50000000E+00
  8.00000000E-01  8.00000000E-01  1.50000000E+00  1.50000000E+00  8.00000000E-01
  8.00000000E-01  1.50000000E+00  1.50000000E+00  8.00000000E-01  8.00000000E-01
  1.50000000E+00  1.50000000E+00  8.00000000E-01  8.00000000E-01  1.50000000E+00
  1.50000000E+00  8.00000000E-01  8.00000000E-01  1.50000000E+00  1.50000000E+00
  8.00000000E-01  8.00000000E-01  1.50000000E+00  1.50000000E+00  8.00000000E-01
  8.00000000E-01  1.50000000E+00  1.50000000E+00  8.00000000E-01  8.00000000E-01
  1.50000000E+00  1.50000000E+00  8.00000000E-01  8.00000000E-01  1.50000000E+00
  1.50000000E+00  8.00000000E-01  8.00000000E-01  1.50000000E+00  1.50000000E+00
  8.00000000E-01  8.00000000E-01  1.50000000E+00  1.50000000E+00  8.00000000E-01
  8.00000000E-01  1.50000000E+00  1.50000000E+00  8.00000000E-01  8.00000000E-01
  1.50000000E+00  1.50000000E+00  8.00000000E-01  8.00000000E-01  1.50000000E+00
  1.50000000E+00  8.00000000E-01  8.00000000E-01  1.50000000E+00  1.50000000E+00
  8.00000000E-01  8.00000000E-01  1.50000000E+00  1.50000000E+00  8.00000000E-01
  8.00000000E-01  1.50000000E+00  1.50000000E+00  8.00000000E-01  8.00000000E-01
  1.50000000E+00  1.50000000E+00  8.00000000E-01  8.00000000E-01  1.50000000E+00
  1.50000000E+00  8.00000000E-01  8.00000000E-01  1.50000000E+00  1.50000000E+00
  8.00000000E-01  8.00000000E-01  1.50000000E+00  1.50000000E+00  8.00000000E-01
  8.00000000E-01  1.50000000E+00  1.50000000E+00  8.00000000E-01  8.00000000E-01
  1.50000000E+00  1.50000000E+00  8.00000000E-01  8.00000000E-01  1.50000000E+00
  1.50000000E+00  8.00000000E-01  8.00000000E-01  1.50000000E+00  1.50000000E+00
  8.00000000E-01  8.00000000E-01  1.50000000E+00  1.50000000E+00  8.00000000E-01
  8.00000000E-01  1.50000000E+00  1.50000000E+00  8.00000000E-01  8.00000000E-01
  1.50000000E+00  1.50000000E+00  8.00000000E-01  8.00000000E-01  1.50000000E+00
  1.50000000E+00  8.00000000E-01  8.00000000E-01  1.50000000E+00  1.50000000E+00
  8.00000000E-01  8.00000000E-01  1.50000000E+00  1.50000000E+00  8.00000000E-01
  8.00000000E-01  1.50000000E+00  1.50000000E+00  8.00000000E-01  8.00000000E-01
  1.50000000E+00  1.50000000E+00  8.00000000E-01  8.00000000E-01  1.50000000E+00
  1.50000000E+00  8.00000000E-01  8.00000000E-01  1.50000000E+00  1.50000000E+00
  8.00000000E-01  8.00000000E-01  1.50000000E+00  1.50000000E+00  8.00000000E-01
  8.00000000E-01  1.50000000E+00  1.50000000E+00  8.00000000E-01  8.00000000E-01
  1.50000000E+00  1.50000000E+00  8.00000000E-01  8.00000000E-01  1.50000000E+00
  1.50000000E+00  8.00000000E-01  8.00000000E-01  1.50000000E+00  1.50000000E+00
  8.00000000E-01  8.00000000E-01  1.50000000E+00  1.50000000E+00  8.00000000E-01
  8.00000000E-01  1.50000000E+00  1.50000000E+00  8.00000000E-01  8.00000000E-01
  1.50000000E+00  1.50000000E+00  8.00000000E-01  8.00000000E-01  1.50000000E+00
  1.50000000E+00  8.00000000E-01  8.00000000E-01  1.50000000E+00  1.50000000E+00
  8.00000000E-01  8.00000000E-01  1.50000000E+00  1.50000000E+00  8.00000000E-01
  8.00000000E-01  1.50000000E+00  1.50000000E+00  8.00000000E-01  8.00000000E-01
  1.50000000E+00  1.50000000E+00  8.00000000E-01  8.00000000E-01  1.50000000E+00
  1.50000000E+00  8.00000000E-01  8.00000000E-01  1.50000000E+00  1.50000000E+00
  8.00000000E-01  8.00000000E-01  1.50000000E+00  1.50000000E+00  8.00000000E-01
  8.00000000E-01  1.50000000E+00  1.50000000E+00  8.00000000E-01  8.00000000E-01
  1.50000000E+00  1.50000000E+00  8.00000000E-01  8.00000000E-01  1.50000000E+00
  1.50000000E+00  8.00000000E-01  8.00000000E-01  1.50000000E+00  1.50000000E+00
  8.00000000E-01  8.00000000E-01  1.50000000E+00  1.50000000E+00  8.00000000E-01
  8.00000000E-01  1.50000000E+00  1.50000000E+00  8.00000000E-01  8.00000000E-01
  1.50000000E+00  1.50000000E+00  8.00000000E-01  8.00000000E-01  1.50000000E+00
  1.50000000E+00  8.00000000E-01  8.00000000E-01  1.50000000E+00  1.50000000E+00
  8.00000000E-01  8.00000000E-01  1.50000000E+00  1.50000000E+00  8.00000000E-01
  8.00000000E-01  1.50000000E+00  1.50000000E+00  8.00000000E-01  8.00000000E-01
  1.50000000E+00  1.50000000E+00  8.00000000E-01  8.00000000E-01  1.50000000E+00
  1.50000000E+00  8.00000000E-01  8.00000000E-01  1.50000000E+00  1.50000000E+00
  8.00000000E-01  8.00000000E-01  1.50000000E+00  1.50000000E+00  8.00000000E-01
  8.00000000E-01  1.50000000E+00  1.50000000E+00  8.00000000E-01  8.00000000E-01
  1.50000000E+00  1.50000000E+00  8.00000000E-01  8.00000000E-01  1.50000000E+00
  1.50000000E+00  8.00000000E-01  8.00000000E-01  1.50000000E+00  1.50000000E+00
  8.00000000E-01  8.00000000E-01  1.50000000E+00  1.50000000E+00  8.00000000E-01
  8.00000000E-01  1.50000000E+00  1.50000000E+00  8.00000000E-01  8.00000000E-01
  1.50000000E+00  1.50000000E+00  8.00000000E-01  8.00000000E-01  1.50000000E+00
  1.50000000E+00  8.00000000E-01  8.00000000E-01  1.50000000E+00  1.50000000E+00
  8.00000000E-01  8.00000000E-01  1.50000000E+00  1.50000000E+00  8.00000000E-01
  8.00000000E-01  1.50000000E+00  1.50000000E+00  8.00000000E-01  8.00000000E-01
  1.50000000E+00  1.50000000E+00  8.00000000E-01  8.00000000E-01  1.50000000E+00
  1.50000000E+00  8.00000000E-01  8.00000000E-01  1.50000000E+00  1.50000000E+00
  8.00000000E-01  8.00000000E-01  1.50000000E+00  1.50000000E+00  8.00000000E-01
  8.00000000E-01  1.50000000E+00  1.50000000E+00  8.00000000E-01  8.00000000E-01
  1.50000000E+00  1.50000000E+00  8.00000000E-01  8.00000000E-01  1.50000000E+00
  1.50000000E+00  8.00000000E-01  8.00000000E-01  1.50000000E+00  1.50000000E+00
  8.00000000E-01  8.00000000E-01  1.50000000E+00  1.50000000E+00  8.00000000E-01
  8.00000000E-01  1.50000000E+00  1.50000000E+00  8.00000000E-01  8.00000000E-01
  1.50000000E+00  1.50000000E+00  8.00000000E-01  8.00000000E-01  1.50000000E+00
  1.50000000E+00  8.00000000E-01  8.00000000E-01  1.50000000E+00  1.50000000E+00
  8.00000000E-01  8.00000000E-01  1.50000000E+00  1.50000000E+00  8.00000000E-01
  8.00000000E-01  1.50000000E+00  1.50000000E+00  8.00000000E-01  8.00000000E-01
  1.50000000E+00  1.50000000E+00  8.00000000E-01  8.00000000E-01  1.50000000E+00
  1.50000000E+00  8.00000000E-01  8.00000000E-01  1.50000000E+00  1.50000000E+00
  8.00000000E-01  8.00000000E-01  1.50000000E+00  1.50000000E+00  8.00000000E-01
  8.00000000E-01  1.50000000E+00  1.50000000E+00  8.00000000E-01  8.00000000E-01
  1.50000000E+00  1.50000000E+00  8.00000000E-01  8.00000000E-01  1.50000000E+00
  1.50000000E+00  8.00000000E-01  8.00000000E-01  1.50000000E+00  1.50000000E+00
  8.00000000E-01  8.00000000E-01  1.50000000E+00  1.50000000E+00  8.00000000E-01
  8.00000000E-01  1.50000000E+00  1.50000000E+00  8.00000000E-01  8.00000000E-01
  1.50000000E+00  1.50000000E+00  8.00000000E-01  8.00000000E-01  1.50000000E+00
  1.50000000E+00  8.00000000E-01  8.00000000E-01  1.50000000E+00  1.50000000E+00
  8.00000000E-01  8.00000000E-01  1.50000000E+00  1.50000000E+00  8.00000000E-01
  8.00000000E-01  1.50000000E+00  1.50000000E+00  8.00000000E-01  8.00000000E-01
  1.50000000E+00  1.50000000E+00  8.00000000E-01  8.00000000E-01  1.50000000E+00
  1.50000000E+00  8.00000000E-01  8.00000000E-01  1.50000000E+00  1.50000000E+00
  8.00000000E-01  8.00000000E-01  1.50000000E+00  1.50000000E+00  8.00000000E-01
  8.00000000E-01  1.50000000E+00  1.50000000E+00  8.00000000E-01  8.00000000E-01
  1.50000000E+00  1.50000000E+00  8.00000000E-01  8.00000000E-01  1.50000000E+00
  1.50000000E+00  8.00000000E-01  8.00000000E-01  1.50000000E+00  1.50000000E+00
  8.00000000E-01  8.00000000E-01  1.50000000E+00  1.50000000E+00  8.00000000E-01
  8.00000000E-01  1.50000000E+00  1.50000000E+00  8.00000000E-01  8.00000000E-01
  1.50000000E+00  1.50000000E+00  8.00000000E-01  8.00000000E-01  1.50000000E+00
  1.50000000E+00  8.00000000E-01  8.00000000E-01  1.50000000E+00  1.50000000E+00
  8.00000000E-01  8.00000000E-01  1.50000000E+00  1.50000000E+00  8.00000000E-01
  8.00000000E-01  1.50000000E+00  1.50000000E+00  8.00000000E-01  8.00000000E-01
  1.50000000E+00  1.50000000E+00  8.00000000E-01  8.00000000E-01  1.50000000E+00
  1.50000000E+00  8.00000000E-01  8.00000000E-01  1.50000000E+00  1.50000000E+00
  8.00000000E-01  8.00000000E-01  1.50000000E+00  1.50000000E+00  8.00000000E-01
  8.00000000E-01  1.50000000E+00  1.50000000E+00  8.00000000E-01  8.00000000E-01
  1.50000000E+00  1.50000000E+00  8.00000000E-01  8.00000000E-01  1.50000000E+00
  1.50000000E+00  8.00000000E-01  8.00000000E-01  1.50000000E+00  1.50000000E+00
  8.00000000E-01  8.00000000E-01  1.50000000E+00  1.50000000E+00  8.00000000E-01
  8.00000000E-01  1.50000000E+00  1.50000000E+00  8.00000000E-01  8.00000000E-01
  1.50000000E+00  1.50000000E+00  8.00000000E-01  8.00000000E-01  1.50000000E+00
  1.50000000E+00  8.00000000E-01  8.00000000E-01  1.50000000E+00  1.50000000E+00
  8.00000000E-01  8.00000000E-01  1.50000000E+00  1.50000000E+00  8.00000000E-01
  8.00000000E-01  1.50000000E+00  1.50000000E+00  8.00000000E-01  8.00000000E-01
  1.50000000E+00  1.50000000E+00  8.00000000E-01  8.00000000E-01  1.50000000E+00
  1.50000000E+00  8.00000000E-01  8.00000000E-01  1.50000000E+00  1.50000000E+00
  8.00000000E-01  8.00000000E-01  1.50000000E+00  1.50000000E+00  8.00000000E-01
  8.00000000E-01  1.50000000E+00  1.50000000E+00  8.00000000E-01  8.00000000E-01
  1.50000000E+00  1.50000000E+00  8.00000000E-01  8.00000000E-01  1.50000000E+00
  1.50000000E+00  8.00000000E-01  8.00000000E-01  1.50000000E+00  1.50000000E+00
  8.00000000E-01  8.00000000E-01  1.50000000E+00  1.50000000E+00  8.00000000E-01
  8.00000000E-01  1.50000000E+00  1.50000000E+00  8.00000000E-01  8.00000000E-01
  1.50000000E+00  1.50000000E+00  8.00000000E-01  8.00000000E-01  1.50000000E+00
  1.50000000E+00  8.00000000E-01  8.00000000E-01  1.50000000E+00  1.50000000E+00
  8.00000000E-01  8.00000000E-01  1.50000000E+00  1.50000000E+00  8.00000000E-01
  8.00000000E-01  1.50000000E+00  1.50000000E+00  8.00000000E-01  8.00000000E-01
  1.50000000E+00  1.50000000E+00  8.00000000E-01  8.00000000E-01  1.50000000E+00
  1.50000000E+00  8.00000000E-01  8.00000000E-01  1.50000000E+00  1.50000000E+00
  8.00000000E-01  8.00000000E-01  1.50000000E+00  1.50000000E+00  8.00000000E-01
  8.00000000E-01  1.50000000E+00  1.50000000E+00  8.00000000E-01  8.00000000E-01
  1.50000000E+00  1.50000000E+00  8.00000000E-01  8.00000000E-01  1.50000000E+00
  1.50000000E+00  8.00000000E-01  8.00000000E-01  1.50000000E+00  1.50000000E+00
  8.00000000E-01  8.00000000E-01  1.50000000E+00  1.50000000E+00  8.00000000E-01
  8.00000000E-01  1.50000000E+00  1.50000000E+00  8.00000000E-01  8.00000000E-01
  1.50000000E+00  1.50000000E+00  8.00000000E-01  8.00000000E-01  1.50000000E+00
  1.50000000E+00  8.00000000E-01  8.00000000E-01  1.50000000E+00  1.50000000E+00
  8.00000000E-01  8.00000000E-01  1.50000000E+00  1.50000000E+00  8.00000000E-01
  8.00000000E-01  1.50000000E+00  1.50000000E+00  8.00000000E-01  8.00000000E-01
  1.50000000E+00  1.50000000E+00  8.00000000E-01  8.00000000E-01  1.50000000E+00
  1.50000000E+00  8.00000000E-01  8.00000000E-01  1.50000000E+00  1.50000000E+00
  8.00000000E-01  8.00000000E-01  1.50000000E+00  1.50000000E+00  8.00000000E-01
  8.00000000E-01  1.50000000E+00  1.50000000E+00  8.00000000E-01  8.00000000E-01
  1.50000000E+00  1.50000000E+00  8.00000000E-01  8.00000000E-01  1.50000000E+00
  1.50000000E+00  8.00000000E-01  8.00000000E-01  1.50000000E+00  1.50000000E+00
  8.00000000E-01  8.00000000E-01  1.50000000E+00  1.50000000E+00  8.00000000E-01
  8.00000000E-01  1.50000000E+00  1.50000000E+00  8.00000000E-01  8.00000000E-01
  1.50000000E+00  1.50000000E+00  8.00000000E-01  8.00000000E-01  1.50000000E+00
  1.50000000E+00  8.00000000E-01  8.00000000E-01  1.50000000E+00  1.50000000E+00
  8.00000000E-01  8.00000000E-01  1.50000000E+00  1.50000000E+00  8.00000000E-01
  8.00000000E-01  1.50000000E+00  1.50000000E+00  8.00000000E-01  8.00000000E-01
  1.50000000E+00  1.50000000E+00  8.00000000E-01  8.00000000E-01  1.50000000E+00
  1.50000000E+00  8.00000000E-01  8.00000000E-01  1.50000000E+00  1.50000000E+00
  8.00000000E-01  8.00000000E-01  1.50000000E+00  1.50000000E+00  8.00000000E-01
  8.00000000E-01  1.50000000E+00  1.50000000E+00  8.00000000E-01  8.00000000E-01
  1.50000000E+00  1.50000000E+00  8.00000000E-01  8.00000000E-01  1.50000000E+00
  1.50000000E+00  8.00000000E-01  8.00000000E-01  1.50000000E+00  1.50000000E+00
  8.00000000E-01  8.00000000E-01  1.50000000E+00  1.50000000E+00  8.00000000E-01
  8.00000000E-01  1.50000000E+00  1.50000000E+00  8.00000000E-01  8.00000000E-01
  1.50000000E+00  1.50000000E+00  8.00000000E-01  8.00000000E-01  1.50000000E+00
  1.50000000E+00  8.00000000E-01  8.00000000E-01  1.50000000E+00  1.50000000E+00
  8.00000000E-01  8.00000000E-01  1.50000000E+00  1.50000000E+00  8.00000000E-01
  8.00000000E-01  1.50000000E+00  1.50000000E+00  8.00000000E-01  8.00000000E-01
  1.50000000E+00  1.50000000E+00  8.00000000E-01  8.00000000E-01  1.50000000E+00
  1.50000000E+00  8.00000000E-01  8.00000000E-01  1.50000000E+00  1.50000000E+00
  8.00000000E-01  8.00000000E-01  1.50000000E+00  1.50000000E+00  8.00000000E-01
  8.00000000E-01  1.50000000E+00  1.50000000E+00  8.00000000E-01  8.00000000E-01
  1.50000000E+00  1.50000000E+00  8.00000000E-01  8.00000000E-01  1.50000000E+00
  1.50000000E+00  8.00000000E-01  8.00000000E-01  1.50000000E+00  1.50000000E+00
  8.00000000E-01  8.00000000E-01  1.50000000E+00  1.50000000E+00  8.00000000E-01
  8.00000000E-01  1.50000000E+00  1.50000000E+00  8.00000000E-01  8.00000000E-01
  1.50000000E+00  1.50000000E+00  8.00000000E-01  8.00000000E-01  1.50000000E+00
  1.50000000E+00  8.00000000E-01  8.00000000E-01  1.50000000E+00  1.50000000E+00
  8.00000000E-01  8.00000000E-01  1.50000000E+00  1.50000000E+00  8.00000000E-01
  8.00000000E-01  1.50000000E+00  1.50000000E+00  8.00000000E-01  8.00000000E-01
  1.50000000E+00  1.50000000E+00  8.00000000E-01  8.00000000E-01  1.50000000E+00
  1.50000000E+00  8.00000000E-01  8.00000000E-01  1.50000000E+00  1.50000000E+00
  8.00000000E-01  8.00000000E-01  1.50000000E+00  1.50000000E+00  8.00000000E-01
  8.00000000E-01  1.50000000E+00  1.50000000E+00  8.00000000E-01  8.00000000E-01
  1.50000000E+00  1.50000000E+00  8.00000000E-01  8.00000000E-01  1.50000000E+00
  1.50000000E+00  8.00000000E-01  8.00000000E-01  1.50000000E+00  1.50000000E+00
  8.00000000E-01  8.00000000E-01  1.50000000E+00  1.50000000E+00  8.00000000E-01
  8.00000000E-01  1.50000000E+00  1.50000000E+00  8.00000000E-01  8.00000000E-01
  1.50000000E+00  1.50000000E+00  8.00000000E-01  8.00000000E-01  1.50000000E+00
  1.50000000E+00  8.00000000E-01  8.00000000E-01  1.50000000E+00  1.50000000E+00
  8.00000000E-01  8.00000000E-01  1.50000000E+00  1.50000000E+00  8.00000000E-01
  8.00000000E-01  1.50000000E+00  1.50000000E+00  8.00000000E-01  8.00000000E-01
  1.50000000E+00  1.50000000E+00  8.00000000E-01  8.00000000E-01  1.50000000E+00
  1.50000000E+00  8.00000000E-01  8.00000000E-01  1.50000000E+00  1.50000000E+00
  8.00000000E-01  8.00000000E-01  1.50000000E+00  1.50000000E+00  8.00000000E-01
  8.00000000E-01  1.50000000E+00  1.50000000E+00  8.00000000E-01  8.00000000E-01
  1.50000000E+00  1.50000000E+00  8.00000000E-01  8.00000000E-01  1.50000000E+00
  1.50000000E+00  8.00000000E-01  8.00000000E-01  1.50000000E+00  1.50000000E+00
  8.00000000E-01  8.00000000E-01  1.50000000E+00  1.50000000E+00  8.00000000E-01
  8.00000000E-01  1.50000000E+00  1.50000000E+00  8.00000000E-01  8.00000000E-01
  1.50000000E+00  1.50000000E+00  8.00000000E-01  8.00000000E-01  1.50000000E+00
  1.50000000E+00  8.00000000E-01  8.00000000E-01  1.50000000E+00  1.50000000E+00
  8.00000000E-01  8.00000000E-01  1.50000000E+00  1.50000000E+00  8.00000000E-01
  8.00000000E-01  1.50000000E+00  1.50000000E+00  8.00000000E-01  8.00000000E-01
  1.50000000E+00  1.50000000E+00  8.00000000E-01  8.00000000E-01  1.50000000E+00
  1.50000000E+00  8.00000000E-01  8.00000000E-01  1.50000000E+00  1.50000000E+00
  8.00000000E-01  8.00000000E-01  1.50000000E+00  1.50000000E+00  8.00000000E-01
  8.00000000E-01  1.50000000E+00  1.50000000E+00  8.00000000E-01  8.00000000E-01
  1.50000000E+00  1.50000000E+00  8.00000000E-01  8.00000000E-01  1.50000000E+00
  1.50000000E+00  8.00000000E-01  8.00000000E-01  1.50000000E+00  1.50000000E+00
  8.00000000E-01  8.00000000E-01  1.50000000E+00  1.50000000E+00  8.00000000E-01
  8.00000000E-01  1.50000000E+00  1.50000000E+00  8.00000000E-01  8.00000000E-01
  1.50000000E+00  1.50000000E+00  8.00000000E-01  8.00000000E-01  1.50000000E+00
  1.50000000E+00  8.00000000E-01  8.00000000E-01  1.50000000E+00  1.50000000E+00
  8.00000000E-01  8.00000000E-01  1.50000000E+00  1.50000000E+00  8.00000000E-01
  8.00000000E-01  1.50000000E+00  1.50000000E+00  8.00000000E-01  8.00000000E-01
  1.50000000E+00  1.50000000E+00  8.00000000E-01  8.00000000E-01  1.50000000E+00
  1.50000000E+00  8.00000000E-01  8.00000000E-01  1.50000000E+00  1.50000000E+00
  8.00000000E-01  8.00000000E-01  1.50000000E+00  1.50000000E+00  8.00000000E-01
  8.00000000E-01  1.50000000E+00  1.50000000E+00  8.00000000E-01  8.00000000E-01
  1.50000000E+00  1.50000000E+00  8.00000000E-01  8.00000000E-01  1.50000000E+00
  1.50000000E+00  8.00000000E-01  8.00000000E-01  1.50000000E+00  1.50000000E+00
  8.00000000E-01  8.00000000E-01  1.50000000E+00  1.50000000E+00  8.00000000E-01
  8.00000000E-01  1.50000000E+00  1.50000000E+00  8.00000000E-01  8.00000000E-01
  1.50000000E+00  1.50000000E+00  8.00000000E-01  8.00000000E-01  1.50000000E+00
  1.50000000E+00  8.00000000E-01  8.00000000E-01  1.50000000E+00  1.50000000E+00
  8.00000000E-01  8.00000000E-01  1.50000000E+00  1.50000000E+00  8.00000000E-01
  8.00000000E-01  1.50000000E+00  1.50000000E+00  8.00000000E-01  8.00000000E-01
  1.50000000E+00  1.50000000E+00  8.00000000E-01  8.00000000E-01  1.50000000E+00
  1.50000000E+00  8.00000000E-01  8.00000000E-01  1.50000000E+00  1.50000000E+00
  8.00000000E-01  8.00000000E-01  1.50000000E+00  1.50000000E+00  8.00000000E-01
  8.00000000E-01  1.50000000E+00  1.50000000E+00  8.00000000E-01  8.00000000E-01
  1.50000000E+00  1.50000000E+00  8.00000000E-01  8.00000000E-01  1.50000000E+00
  1.50000000E+00  8.00000000E-01  8.00000000E-01  1.50000000E+00  1.50000000E+00
  8.00000000E-01  8.00000000E-01  1.50000000E+00  1.50000000E+00  8.00000000E-01
  8.00000000E-01  1.50000000E+00  1.50000000E+00  8.00000000E-01  8.00000000E-01
  1.50000000E+00  1.50000000E+00  8.00000000E-01  8.00000000E-01  1.50000000E+00
  1.50000000E+00  8.00000000E-01  8.00000000E-01  1.50000000E+00  1.50000000E+00
  8.00000000E-01  8.00000000E-01  1.50000000E+00  1.50000000E+00  8.00000000E-01
  8.00000000E-01  1.50000000E+00  1.50000000E+00  8.00000000E-01  8.00000000E-01
  1.50000000E+00  1.50000000E+00  8.00000000E-01  8.00000000E-01  1.50000000E+00
  1.50000000E+00  8.00000000E-01  8.00000000E-01  1.50000000E+00  1.50000000E+00
  8.00000000E-01  8.00000000E-01  1.50000000E+00  1.50000000E+00  8.00000000E-01
  8.00000000E-01  1.50000000E+00  1.50000000E+00  8.00000000E-01  8.00000000E-01
  1.50000000E+00  1.50000000E+00  8.00000000E-01  8.00000000E-01  1.50000000E+00
  1.50000000E+00  8.00000000E-01  8.00000000E-01  1.50000000E+00  1.50000000E+00
  8.00000000E-01  8.00000000E-01  1.50000000E+00  1.50000000E+00  8.00000000E-01
  8.00000000E-01  1.50000000E+00  1.50000000E+00  8.00000000E-01  8.00000000E-01
  1.50000000E+00  1.50000000E+00  8.00000000E-01  8.00000000E-01  1.50000000E+00
  1.50000000E+00  8.00000000E-01  8.00000000E-01  1.50000000E+00  1.50000000E+00
  8.00000000E-01  8.00000000E-01  1.50000000E+00  1.50000000E+00  8.00000000E-01
  8.00000000E-01  1.50000000E+00  1.50000000E+00  8.00000000E-01  8.00000000E-01
  1.50000000E+00  1.50000000E+00  8.00000000E-01  8.00000000E-01  1.50000000E+00
  1.50000000E+00  8.00000000E-01  8.00000000E-01  1.50000000E+00  1.50000000E+00
  8.00000000E-01  8.00000000E-01  1.50000000E+00  1.50000000E+00  8.00000000E-01
  8.00000000E-01  1.50000000E+00  1.50000000E+00  8.00000000E-01  8.00000000E-01
  1.50000000E+00  1.50000000E+00  8.00000000E-01  8.00000000E-01  1.50000000E+00
  1.50000000E+00  8.00000000E-01  8.00000000E-01  1.50000000E+00  1.50000000E+00
  8.00000000E-01  8.00000000E-01  1.50000000E+00  1.50000000E+00  8.00000000E-01
  8.00000000E-01  1.50000000E+00  1.50000000E+00  8.00000000E-01  8.00000000E-01
  1.50000000E+00  1.50000000E+00  8.00000000E-01  8.00000000E-01  1.50000000E+00
  1.50000000E+00  8.00000000E-01  8.00000000E-01  1.50000000E+00  1.50000000E+00
  8.00000000E-01  8.00000000E-01  1.50000000E+00  1.50000000E+00  8.00000000E-01
  8.00000000E-01  1.50000000E+00  1.50000000E+00  8.00000000E-01  8.00000000E-01
  1.50000000E+00  1.50000000E+00  8.00000000E-01  8.00000000E-01  1.50000000E+00
  1.50000000E+00  8.00000000E-01  8.00000000E-01  1.50000000E+00  1.50000000E+00
  8.00000000E-01  8.00000000E-01  1.50000000E+00  1.50000000E+00  8.00000000E-01
  8.00000000E-01  1.50000000E+00  1.50000000E+00  8.00000000E-01  8.00000000E-01
  1.50000000E+00  1.50000000E+00  8.00000000E-01  8.00000000E-01  1.50000000E+00
  1.50000000E+00  8.00000000E-01  8.00000000E-01  1.50000000E+00  1.50000000E+00
  8.00000000E-01  8.00000000E-01  1.50000000E+00  1.50000000E+00  8.00000000E-01
  8.00000000E-01  1.50000000E+00  1.50000000E+00  8.00000000E-01  8.00000000E-01
  1.50000000E+00  1.50000000E+00  8.00000000E-01  8.00000000E-01  1.50000000E+00
  1.50000000E+00  8.00000000E-01  8.00000000E-01  1.50000000E+00  1.50000000E+00
  8.00000000E-01  8.00000000E-01  1.50000000E+00  1.50000000E+00  8.00000000E-01
  8.00000000E-01  1.50000000E+00  1.50000000E+00  8.00000000E-01  8.00000000E-01
  1.50000000E+00  1.50000000E+00  8.00000000E-01  8.00000000E-01  1.50000000E+00
  1.50000000E+00  8.00000000E-01  8.00000000E-01  1.50000000E+00  1.50000000E+00
  8.00000000E-01  8.00000000E-01  1.50000000E+00  1.50000000E+00  8.00000000E-01
  8.00000000E-01  1.50000000E+00  1.50000000E+00  8.00000000E-01  8.00000000E-01
  1.50000000E+00  1.50000000E+00  8.00000000E-01  8.00000000E-01  1.50000000E+00
  1.50000000E+00  8.00000000E-01  8.00000000E-01  1.50000000E+00  1.50000000E+00
  8.00000000E-01  8.00000000E-01  1.50000000E+00  1.50000000E+00  8.00000000E-01
  8.00000000E-01  1.50000000E+00  1.50000000E+00  8.00000000E-01  8.00000000E-01
  1.50000000E+00  1.50000000E+00  8.00000000E-01  8.00000000E-01  1.50000000E+00
  1.50000000E+00  8.00000000E-01  8.00000000E-01  1.50000000E+00  1.50000000E+00
  8.00000000E-01  8.00000000E-01  1.50000000E+00  1.50000000E+00  8.00000000E-01
  8.00000000E-01  1.50000000E+00  1.50000000E+00  8.00000000E-01  8.00000000E-01
  1.50000000E+00  1.50000000E+00  8.00000000E-01  8.00000000E-01  1.50000000E+00
  1.50000000E+00  8.00000000E-01  8.00000000E-01  1.50000000E+00  1.50000000E+00
  8.00000000E-01  8.00000000E-01  1.50000000E+00  1.50000000E+00  8.00000000E-01
  8.00000000E-01  1.50000000E+00  1.50000000E+00  8.00000000E-01  8.00000000E-01
  1.50000000E+00  1.50000000E+00  8.00000000E-01  8.00000000E-01  1.50000000E+00
  1.50000000E+00  8.00000000E-01  8.00000000E-01  1.50000000E+00  1.50000000E+00
  8.00000000E-01  8.00000000E-01  1.50000000E+00  1.50000000E+00  8.00000000E-01
  8.00000000E-01  1.50000000E+00  1.50000000E+00  8.00000000E-01  8.00000000E-01
  1.50000000E+00  1.50000000E+00  8.00000000E-01  8.00000000E-01  1.50000000E+00
  1.50000000E+00  8.00000000E-01  8.00000000E-01  1.50000000E+00  1.50000000E+00
  8.00000000E-01  8.00000000E-01  1.50000000E+00  1.50000000E+00  8.00000000E-01
  8.00000000E-01  1.50000000E+00  1.50000000E+00  8.00000000E-01  8.00000000E-01
  1.50000000E+00  1.50000000E+00  8.00000000E-01  8.00000000E-01  1.50000000E+00
  1.50000000E+00  8.00000000E-01  8.00000000E-01  1.50000000E+00  1.50000000E+00
  8.00000000E-01  8.00000000E-01  1.50000000E+00  1.50000000E+00  8.00000000E-01
  8.00000000E-01  1.50000000E+00  1.50000000E+00  8.00000000E-01  8.00000000E-01
  1.50000000E+00  1.50000000E+00  8.00000000E-01  8.00000000E-01  1.50000000E+00
  1.50000000E+00  8.00000000E-01  8.00000000E-01  1.50000000E+00  1.50000000E+00
  8.00000000E-01  8.00000000E-01  1.50000000E+00  1.50000000E+00  8.00000000E-01
  8.00000000E-01  1.50000000E+00  1.50000000E+00  8.00000000E-01  8.00000000E-01
  1.50000000E+00  1.50000000E+00  8.00000000E-01  8.00000000E-01  1.50000000E+00
  1.50000000E+00  8.00000000E-01  8.00000000E-01  1.50000000E+00  1.50000000E+00
  8.00000000E-01  8.00000000E-01  1.50000000E+00  1.50000000E+00  8.00000000E-01
  8.00000000E-01  1.50000000E+00  1.50000000E+00  8.00000000E-01  8.00000000E-01
  1.50000000E+00  1.50000000E+00  8.00000000E-01  8.00000000E-01  1.50000000E+00
  1.50000000E+00  8.00000000E-01  8.00000000E-01  1.50000000E+00  1.50000000E+00
  8.00000000E-01  8.00000000E-01  1.50000000E+00  1.50000000E+00  8.00000000E-01
  8.00000000E-01  1.50000000E+00  1.50000000E+00  8.00000000E-01  8.00000000E-01
  1.50000000E+00  1.50000000E+00  8.00000000E-01  8.00000000E-01  1.50000000E+00
  1.50000000E+00  8.00000000E-01  8.00000000E-01  1.50000000E+00  1.50000000E+00
  8.00000000E-01  8.00000000E-01  1.50000000E+00  1.50000000E+00  8.00000000E-01
  8.00000000E-01  1.50000000E+00  1.50000000E+00  8.00000000E-01  8.00000000E-01
  1.50000000E+00  1.50000000E+00  8.00000000E-01  8.00000000E-01  1.50000000E+00
  1.50000000E+00  8.00000000E-01  8.00000000E-01  1.50000000E+00  1.50000000E+00
  8.00000000E-01  8.00000000E-01  1.50000000E+00  1.50000000E+00  8.00000000E-01
  8.00000000E-01  1.50000000E+00  1.50000000E+00  8.00000000E-01  8.00000000E-01
  1.50000000E+00  1.50000000E+00  8.00000000E-01  8.00000000E-01  1.50000000E+00
  1.50000000E+00  8.00000000E-01  8.00000000E-01  1.50000000E+00  1.50000000E+00
  8.00000000E-01  8.00000000E-01  1.50000000E+00  1.50000000E+00  8.00000000E-01
  8.00000000E-01  1.50000000E+00  1.50000000E+00  8.00000000E-01  8.00000000E-01
  1.50000000E+00  1.50000000E+00  8.00000000E-01  8.00000000E-01  1.50000000E+00
  1.50000000E+00  8.00000000E-01  8.00000000E-01  1.50000000E+00  1.50000000E+00
  8.00000000E-01  8.00000000E-01  1.50000000E+00  1.50000000E+00  8.00000000E-01
  8.00000000E-01  1.50000000E+00  1.50000000E+00  8.00000000E-01  8.00000000E-01
  1.50000000E+00  1.50000000E+00  8.00000000E-01  8.00000000E-01  1.50000000E+00
  1.50000000E+00  8.00000000E-01  8.00000000E-01  1.50000000E+00  1.50000000E+00
  8.00000000E-01  8.00000000E-01  1.50000000E+00  1.50000000E+00  8.00000000E-01
  8.00000000E-01  1.50000000E+00  1.50000000E+00  8.00000000E-01  8.00000000E-01
  1.50000000E+00  1.50000000E+00  8.00000000E-01  8.00000000E-01  1.50000000E+00
  1.50000000E+00  8.00000000E-01  8.00000000E-01  1.50000000E+00  1.50000000E+00
  8.00000000E-01  8.00000000E-01  1.50000000E+00  1.50000000E+00  8.00000000E-01
  8.00000000E-01  1.50000000E+00  1.50000000E+00  8.00000000E-01  8.00000000E-01
  1.50000000E+00  1.50000000E+00  8.00000000E-01  8.00000000E-01  1.50000000E+00
  1.50000000E+00  8.00000000E-01  8.00000000E-01  1.50000000E+00  1.50000000E+00
  8.00000000E-01  8.00000000E-01  1.50000000E+00  1.50000000E+00  8.00000000E-01
  8.00000000E-01  1.50000000E+00  1.50000000E+00  8.00000000E-01  8.00000000E-01
  1.50000000E+00  1.50000000E+00  8.00000000E-01  8.00000000E-01  1.50000000E+00
  1.50000000E+00  8.00000000E-01  8.00000000E-01  1.50000000E+00  1.50000000E+00
  8.00000000E-01  8.00000000E-01  1.50000000E+00  1.50000000E+00  8.00000000E-01
  8.00000000E-01  1.50000000E+00  1.50000000E+00  8.00000000E-01  8.00000000E-01
  1.50000000E+00  1.50000000E+00  8.00000000E-01  8.00000000E-01  1.50000000E+00
  1.50000000E+00  8.00000000E-01  8.00000000E-01  1.50000000E+00  1.50000000E+00
  8.00000000E-01  8.00000000E-01  1.50000000E+00  1.50000000E+00  8.00000000E-01
  8.00000000E-01  1.50000000E+00  1.50000000E+00  8.00000000E-01  8.00000000E-01
  1.50000000E+00  1.50000000E+00  8.00000000E-01  8.00000000E-01  1.50000000E+00
  1.50000000E+00  8.00000000E-01  8.00000000E-01  1.50000000E+00  1.50000000E+00
  8.00000000E-01  8.00000000E-01  1.50000000E+00  1.50000000E+00  8.00000000E-01
  8.00000000E-01  1.50000000E+00  1.50000000E+00  8.00000000E-01  8.00000000E-01
  1.50000000E+00  1.50000000E+00  8.00000000E-01  8.00000000E-01  1.50000000E+00
  1.50000000E+00  8.00000000E-01  8.00000000E-01  1.50000000E+00  1.50000000E+00
  8.00000000E-01  8.00000000E-01  1.50000000E+00  1.50000000E+00  8.00000000E-01
  8.00000000E-01  1.50000000E+00  1.50000000E+00  8.00000000E-01  8.00000000E-01
  1.50000000E+00  1.50000000E+00  8.00000000E-01  8.00000000E-01  1.50000000E+00
  1.50000000E+00  8.00000000E-01  8.00000000E-01  1.50000000E+00  1.50000000E+00
  8.00000000E-01  8.00000000E-01  1.50000000E+00  1.50000000E+00  8.00000000E-01
  8.00000000E-01  1.50000000E+00  1.50000000E+00  8.00000000E-01  8.00000000E-01
  1.50000000E+00  1.50000000E+00  8.00000000E-01  8.00000000E-01  1.50000000E+00
  1.50000000E+00  8.00000000E-01  8.00000000E-01  1.50000000E+00  1.50000000E+00
  8.00000000E-01  8.00000000E-01  1.50000000E+00  1.50000000E+00  8.00000000E-01
  8.00000000E-01  1.50000000E+00  1.50000000E+00  8.00000000E-01  8.00000000E-01
  1.50000000E+00  1.50000000E+00  8.00000000E-01  8.00000000E-01  1.50000000E+00
  1.50000000E+00  8.00000000E-01  8.00000000E-01  1.50000000E+00  1.50000000E+00
  8.00000000E-01  8.00000000E-01  1.50000000E+00  1.50000000E+00  8.00000000E-01
  8.00000000E-01  1.50000000E+00  1.50000000E+00  8.00000000E-01  8.00000000E-01
  1.50000000E+00  1.50000000E+00  8.00000000E-01  8.00000000E-01  1.50000000E+00
  1.50000000E+00  8.00000000E-01  8.00000000E-01  1.50000000E+00  1.50000000E+00
  8.00000000E-01  8.00000000E-01  1.50000000E+00  1.50000000E+00  8.00000000E-01
  8.00000000E-01  1.50000000E+00  1.50000000E+00  8.00000000E-01  8.00000000E-01
  1.50000000E+00  1.50000000E+00  8.00000000E-01  8.00000000E-01  1.50000000E+00
  1.50000000E+00  8.00000000E-01  8.00000000E-01  1.50000000E+00  1.50000000E+00
  8.00000000E-01  8.00000000E-01  1.50000000E+00  1.50000000E+00  8.00000000E-01
  8.00000000E-01  1.50000000E+00  1.50000000E+00  8.00000000E-01  8.00000000E-01
  1.50000000E+00  1.50000000E+00  8.00000000E-01  8.00000000E-01  1.50000000E+00
  1.50000000E+00  8.00000000E-01  8.00000000E-01  1.50000000E+00  1.50000000E+00
  8.00000000E-01  8.00000000E-01  1.50000000E+00  1.50000000E+00  8.00000000E-01
  8.00000000E-01  1.50000000E+00  1.50000000E+00  8.00000000E-01  8.00000000E-01
  1.50000000E+00  1.50000000E+00  8.00000000E-01  8.00000000E-01  1.50000000E+00
  1.50000000E+00  8.00000000E-01  8.00000000E-01  1.50000000E+00  1.50000000E+00
  8.00000000E-01  8.00000000E-01  1.50000000E+00  1.50000000E+00  8.00000000E-01
  8.00000000E-01  1.50000000E+00  1.50000000E+00  8.00000000E-01  8.00000000E-01
  1.50000000E+00  1.50000000E+00  8.00000000E-01  8.00000000E-01  1.50000000E+00
  1.50000000E+00  8.00000000E-01  8.00000000E-01  1.50000000E+00  1.50000000E+00
  8.00000000E-01  8.00000000E-01  1.50000000E+00  1.50000000E+00  8.00000000E-01
  8.00000000E-01  1.50000000E+00  1.50000000E+00  8.00000000E-01  8.00000000E-01
  1.50000000E+00  1.50000000E+00  8.00000000E-01  8.00000000E-01  1.50000000E+00
  1.50000000E+00  8.00000000E-01  8.00000000E-01  1.50000000E+00  1.50000000E+00
  8.00000000E-01  8.00000000E-01  1.50000000E+00  1.50000000E+00  8.00000000E-01
  8.00000000E-01  1.50000000E+00  1.50000000E+00  8.00000000E-01  8.00000000E-01
  1.50000000E+00  1.50000000E+00  8.00000000E-01  8.00000000E-01  1.50000000E+00
  1.50000000E+00  8.00000000E-01  8.00000000E-01  1.50000000E+00  1.50000000E+00
  8.00000000E-01  8.00000000E-01  1.50000000E+00  1.50000000E+00  8.00000000E-01
  8.00000000E-01  1.50000000E+00  1.50000000E+00  8.00000000E-01  8.00000000E-01
  1.50000000E+00  1.50000000E+00  8.00000000E-01  8.00000000E-01  1.50000000E+00
  1.50000000E+00  8.00000000E-01  8.00000000E-01  1.50000000E+00  1.50000000E+00
  8.00000000E-01  8.00000000E-01  1.50000000E+00  1.50000000E+00  8.00000000E-01
  8.00000000E-01  1.50000000E+00  1.50000000E+00  8.00000000E-01  8.00000000E-01
  1.50000000E+00  1.50000000E+00  8.00000000E-01  8.00000000E-01  1.50000000E+00
  1.50000000E+00  8.00000000E-01  8.00000000E-01  1.50000000E+00  1.50000000E+00
  8.00000000E-01  8.00000000E-01  1.50000000E+00  1.50000000E+00  8.00000000E-01
  8.00000000E-01  1.50000000E+00  1.50000000E+00  8.00000000E-01  8.00000000E-01
  1.50000000E+00  1.50000000E+00  8.00000000E-01  8.00000000E-01  1.50000000E+00
  1.50000000E+00  8.00000000E-01  8.00000000E-01  1.50000000E+00  1.50000000E+00
  8.00000000E-01  8.00000000E-01  1.50000000E+00  1.50000000E+00  8.00000000E-01
  8.00000000E-01  1.50000000E+00  1.50000000E+00  8.00000000E-01  8.00000000E-01
  1.50000000E+00  1.50000000E+00  8.00000000E-01  8.00000000E-01  1.50000000E+00
  1.50000000E+00  8.00000000E-01  8.00000000E-01  1.50000000E+00  1.50000000E+00
  8.00000000E-01  8.00000000E-01  1.50000000E+00  1.50000000E+00  8.00000000E-01
  8.00000000E-01  1.50000000E+00  1.50000000E+00  8.00000000E-01  8.00000000E-01
  1.50000000E+00  1.50000000E+00  8.00000000E-01  8.00000000E-01  1.50000000E+00
  1.50000000E+00  8.00000000E-01  8.00000000E-01  1.50000000E+00  1.50000000E+00
  8.00000000E-01  8.00000000E-01  1.50000000E+00  1.50000000E+00  8.00000000E-01
  8.00000000E-01  1.50000000E+00  1.50000000E+00  8.00000000E-01  8.00000000E-01
  1.50000000E+00  1.50000000E+00  8.00000000E-01  8.00000000E-01  1.50000000E+00
  1.50000000E+00  8.00000000E-01  8.00000000E-01  1.50000000E+00  1.50000000E+00
  8.00000000E-01  8.00000000E-01  1.50000000E+00  1.50000000E+00  8.00000000E-01
  8.00000000E-01  1.50000000E+00  1.50000000E+00  8.00000000E-01  8.00000000E-01
  1.50000000E+00  1.50000000E+00  8.00000000E-01  8.00000000E-01  1.50000000E+00
  1.50000000E+00  8.00000000E-01  8.00000000E-01  1.50000000E+00  1.50000000E+00
  8.00000000E-01  8.00000000E-01  1.50000000E+00  1.50000000E+00  8.00000000E-01
  8.00000000E-01  1.50000000E+00  1.50000000E+00  8.00000000E-01  8.00000000E-01
  1.50000000E+00  1.50000000E+00  8.00000000E-01  8.00000000E-01  1.50000000E+00
  1.50000000E+00  8.00000000E-01  8.00000000E-01  1.50000000E+00  1.50000000E+00
  8.00000000E-01  8.00000000E-01  1.50000000E+00  1.50000000E+00  8.00000000E-01
  8.00000000E-01  1.50000000E+00  1.50000000E+00  8.00000000E-01  8.00000000E-01
  1.50000000E+00  1.50000000E+00  8.00000000E-01  8.00000000E-01  1.50000000E+00
  1.50000000E+00  8.00000000E-01  8.00000000E-01  1.50000000E+00  1.50000000E+00
  8.00000000E-01  8.00000000E-01  1.50000000E+00  1.50000000E+00  8.00000000E-01
  8.00000000E-01  1.50000000E+00  1.50000000E+00  8.00000000E-01  8.00000000E-01
  1.50000000E+00  1.50000000E+00  8.00000000E-01  8.00000000E-01  1.50000000E+00
  1.50000000E+00  8.00000000E-01  8.00000000E-01  1.50000000E+00  1.50000000E+00
  8.00000000E-01  8.00000000E-01  1.50000000E+00  1.50000000E+00  8.00000000E-01
  8.00000000E-01  1.50000000E+00  1.50000000E+00  8.00000000E-01  8.00000000E-01
  1.50000000E+00  1.50000000E+00  8.00000000E-01  8.00000000E-01  1.50000000E+00
  1.50000000E+00  8.00000000E-01  8.00000000E-01  1.50000000E+00  1.50000000E+00
  8.00000000E-01  8.00000000E-01  1.50000000E+00  1.50000000E+00  8.00000000E-01
  8.00000000E-01  1.50000000E+00  1.50000000E+00  8.00000000E-01  8.00000000E-01
  1.50000000E+00  1.50000000E+00  8.00000000E-01  8.00000000E-01  1.50000000E+00
  1.50000000E+00  8.00000000E-01  8.00000000E-01  1.50000000E+00  1.50000000E+00
  8.00000000E-01  8.00000000E-01  1.50000000E+00  1.50000000E+00  8.00000000E-01
  8.00000000E-01  1.50000000E+00  1.50000000E+00  8.00000000E-01  8.00000000E-01
  1.50000000E+00  1.50000000E+00  8.00000000E-01  8.00000000E-01  1.50000000E+00
  1.50000000E+00  8.00000000E-01  8.00000000E-01  1.50000000E+00  1.50000000E+00
  8.00000000E-01  8.00000000E-01  1.50000000E+00  1.50000000E+00  8.00000000E-01
  8.00000000E-01  1.50000000E+00  1.50000000E+00  8.00000000E-01  8.00000000E-01
  1.50000000E+00  1.50000000E+00  8.00000000E-01  8.00000000E-01  1.50000000E+00
  1.50000000E+00  8.00000000E-01  8.00000000E-01  1.50000000E+00  1.50000000E+00
  8.00000000E-01  8.00000000E-01  1.50000000E+00  1.50000000E+00  8.00000000E-01
  8.00000000E-01  1.50000000E+00  1.50000000E+00  8.00000000E-01  8.00000000E-01
  1.50000000E+00  1.50000000E+00  8.00000000E-01  8.00000000E-01  1.50000000E+00
  1.50000000E+00  8.00000000E-01  8.00000000E-01  1.50000000E+00  1.50000000E+00
  8.00000000E-01  8.00000000E-01  1.50000000E+00  1.50000000E+00  8.00000000E-01
  8.00000000E-01  1.50000000E+00  1.50000000E+00  8.00000000E-01  8.00000000E-01
  1.50000000E+00  1.50000000E+00  8.00000000E-01  8.00000000E-01  1.50000000E+00
  1.50000000E+00  8.00000000E-01  8.00000000E-01  1.50000000E+00  1.50000000E+00
  8.00000000E-01  8.00000000E-01  1.50000000E+00  1.50000000E+00  8.00000000E-01
  8.00000000E-01  1.50000000E+00  1.50000000E+00  8.00000000E-01  8.00000000E-01
  1.50000000E+00  1.50000000E+00  8.00000000E-01  8.00000000E-01  1.50000000E+00
  1.50000000E+00  8.00000000E-01  8.00000000E-01  1.50000000E+00  1.50000000E+00
  8.00000000E-01  8.00000000E-01  1.50000000E+00  1.50000000E+00  8.00000000E-01
  8.00000000E-01  1.50000000E+00  1.50000000E+00  8.00000000E-01  8.00000000E-01
  1.50000000E+00  1.50000000E+00  8.00000000E-01  8.00000000E-01  1.50000000E+00
  1.50000000E+00  8.00000000E-01  8.00000000E-01  1.50000000E+00  1.50000000E+00
  8.00000000E-01  8.00000000E-01  1.50000000E+00  1.50000000E+00  8.00000000E-01
  8.00000000E-01  1.50000000E+00  1.50000000E+00  8.00000000E-01  8.00000000E-01
  1.50000000E+00  1.50000000E+00  8.00000000E-01  8.00000000E-01  1.50000000E+00
  1.50000000E+00  8.00000000E-01  8.00000000E-01  1.50000000E+00  1.50000000E+00
  8.00000000E-01  8.00000000E-01  1.50000000E+00  1.50000000E+00  8.00000000E-01
  8.00000000E-01  1.50000000E+00  1.50000000E+00  8.00000000E-01  8.00000000E-01
  1.50000000E+00  1.50000000E+00  8.00000000E-01  8.00000000E-01  1.50000000E+00
  1.50000000E+00  8.00000000E-01  8.00000000E-01  1.50000000E+00  1.50000000E+00
  8.00000000E-01  8.00000000E-01  1.50000000E+00  1.50000000E+00  8.00000000E-01
  8.00000000E-01  1.50000000E+00  1.50000000E+00  8.00000000E-01  8.00000000E-01
  1.50000000E+00  1.50000000E+00  8.00000000E-01  8.00000000E-01  1.50000000E+00
  1.50000000E+00  8.00000000E-01  8.00000000E-01  1.50000000E+00  1.50000000E+00
  8.00000000E-01  8.00000000E-01  1.50000000E+00  1.50000000E+00  8.00000000E-01
  8.00000000E-01  1.50000000E+00  1.50000000E+00  8.00000000E-01  8.00000000E-01
  1.50000000E+00  1.50000000E+00  8.00000000E-01  8.00000000E-01  1.50000000E+00
  1.50000000E+00  8.00000000E-01  8.00000000E-01  1.50000000E+00  1.50000000E+00
  8.00000000E-01  8.00000000E-01  1.50000000E+00  1.50000000E+00  8.00000000E-01
  8.00000000E-01  1.50000000E+00  1.50000000E+00  8.00000000E-01  8.00000000E-01
  1.50000000E+00  1.50000000E+00  8.00000000E-01  8.00000000E-01  1.50000000E+00
  1.50000000E+00  8.00000000E-01  8.00000000E-01  1.50000000E+00  1.50000000E+00
  8.00000000E-01  8.00000000E-01  1.50000000E+00  1.50000000E+00  8.00000000E-01
  8.00000000E-01  1.50000000E+00  1.50000000E+00  8.00000000E-01  8.00000000E-01
  1.50000000E+00  1.50000000E+00  8.00000000E-01  8.00000000E-01  1.50000000E+00
  1.50000000E+00  8.00000000E-01  8.00000000E-01  1.50000000E+00  1.50000000E+00
  8.00000000E-01  8.00000000E-01  1.50000000E+00  1.50000000E+00  8.00000000E-01
  8.00000000E-01  1.50000000E+00  1.50000000E+00  8.00000000E-01  8.00000000E-01
  1.50000000E+00  1.50000000E+00  8.00000000E-01  8.00000000E-01  1.50000000E+00
  1.50000000E+00  8.00000000E-01  8.00000000E-01  1.50000000E+00  1.50000000E+00
  8.00000000E-01  8.00000000E-01  1.50000000E+00  1.50000000E+00  8.00000000E-01
  8.00000000E-01  1.50000000E+00  1.50000000E+00  8.00000000E-01  8.00000000E-01
  1.50000000E+00  1.50000000E+00  8.00000000E-01  8.00000000E-01  1.50000000E+00
  1.50000000E+00  8.00000000E-01  8.00000000E-01  1.50000000E+00  1.50000000E+00
  8.00000000E-01  8.00000000E-01  1.50000000E+00  1.50000000E+00  8.00000000E-01
  8.00000000E-01  1.50000000E+00  1.50000000E+00  8.00000000E-01  8.00000000E-01
  1.50000000E+00  1.50000000E+00  8.00000000E-01  8.00000000E-01  1.50000000E+00
  1.50000000E+00  8.00000000E-01  8.00000000E-01  1.50000000E+00  1.50000000E+00
  8.00000000E-01  8.00000000E-01  1.50000000E+00  1.50000000E+00  8.00000000E-01
  8.00000000E-01  1.50000000E+00  1.50000000E+00  8.00000000E-01  8.00000000E-01
  1.50000000E+00  1.50000000E+00  8.00000000E-01  8.00000000E-01  1.50000000E+00
  1.50000000E+00  8.00000000E-01  8.00000000E-01  1.50000000E+00  1.50000000E+00
  8.00000000E-01  8.00000000E-01  1.50000000E+00  1.50000000E+00  8.00000000E-01
  8.00000000E-01  1.50000000E+00  1.50000000E+00  8.00000000E-01  8.00000000E-01
  1.50000000E+00  1.50000000E+00  8.00000000E-01  8.00000000E-01  1.50000000E+00
  1.50000000E+00  8.00000000E-01  8.00000000E-01  1.50000000E+00  1.50000000E+00
  8.00000000E-01  8.00000000E-01  1.50000000E+00  1.50000000E+00  8.00000000E-01
  8.00000000E-01  1.50000000E+00  1.50000000E+00  8.00000000E-01  8.00000000E-01
  1.50000000E+00  1.50000000E+00  8.00000000E-01  8.00000000E-01  1.50000000E+00
  1.50000000E+00  8.00000000E-01  8.00000000E-01  1.50000000E+00  1.50000000E+00
  8.00000000E-01  8.00000000E-01  1.50000000E+00  1.50000000E+00  8.00000000E-01
  8.00000000E-01  1.50000000E+00  1.50000000E+00  8.00000000E-01  8.00000000E-01
  1.50000000E+00  1.50000000E+00  8.00000000E-01  8.00000000E-01  1.50000000E+00
  1.50000000E+00  8.00000000E-01  8.00000000E-01  1.50000000E+00  1.50000000E+00
  8.00000000E-01  8.00000000E-01  1.50000000E+00  1.50000000E+00  8.00000000E-01
  8.00000000E-01  1.50000000E+00  1.50000000E+00  8.00000000E-01  8.00000000E-01
  1.50000000E+00  1.50000000E+00  8.00000000E-01  8.00000000E-01  1.50000000E+00
  1.50000000E+00  8.00000000E-01  8.00000000E-01  1.50000000E+00  1.50000000E+00
  8.00000000E-01  8.00000000E-01  1.50000000E+00  1.50000000E+00  8.00000000E-01
  8.00000000E-01  1.50000000E+00  1.50000000E+00  8.00000000E-01  8.00000000E-01
  1.50000000E+00  1.50000000E+00  8.00000000E-01  8.00000000E-01  1.50000000E+00
  1.50000000E+00  8.00000000E-01  8.00000000E-01  1.50000000E+00  1.50000000E+00
  8.00000000E-01  8.00000000E-01  1.50000000E+00  1.50000000E+00  8.00000000E-01
  8.00000000E-01  1.50000000E+00  1.50000000E+00  8.00000000E-01  8.00000000E-01
  1.50000000E+00  1.50000000E+00  8.00000000E-01  8.00000000E-01  1.50000000E+00
  1.50000000E+00  8.00000000E-01  8.00000000E-01  1.50000000E+00  1.50000000E+00
  8.00000000E-01  8.00000000E-01  1.50000000E+00  1.50000000E+00  8.00000000E-01
  8.00000000E-01  1.50000000E+00  1.50000000E+00  8.00000000E-01  8.00000000E-01
  1.50000000E+00  1.50000000E+00  8.00000000E-01  8.00000000E-01  1.50000000E+00
  1.50000000E+00  8.00000000E-01  8.00000000E-01  1.50000000E+00  1.50000000E+00
  8.00000000E-01  8.00000000E-01  1.50000000E+00  1.50000000E+00  8.00000000E-01
  8.00000000E-01  1.50000000E+00  1.50000000E+00  8.00000000E-01  8.00000000E-01
  1.50000000E+00  1.50000000E+00  8.00000000E-01  8.00000000E-01  1.50000000E+00
  1.50000000E+00  8.00000000E-01  8.00000000E-01  1.50000000E+00  1.50000000E+00
  8.00000000E-01  8.00000000E-01  1.50000000E+00  1.50000000E+00  8.00000000E-01
  8.00000000E-01  1.50000000E+00  1.50000000E+00  8.00000000E-01  8.00000000E-01
  1.50000000E+00  1.50000000E+00  8.00000000E-01  8.00000000E-01  1.50000000E+00
  1.50000000E+00  8.00000000E-01  8.00000000E-01  1.50000000E+00  1.50000000E+00
  8.00000000E-01  8.00000000E-01  1.50000000E+00  1.50000000E+00  8.00000000E-01
  8.00000000E-01  1.50000000E+00  1.50000000E+00  8.00000000E-01  8.00000000E-01
  1.50000000E+00  1.50000000E+00  8.00000000E-01  8.00000000E-01  1.50000000E+00
  1.50000000E+00  8.00000000E-01  8.00000000E-01  1.50000000E+00  1.50000000E+00
  8.00000000E-01  8.00000000E-01  1.50000000E+00  1.50000000E+00  8.00000000E-01
  8.00000000E-01  1.50000000E+00  1.50000000E+00  8.00000000E-01  8.00000000E-01
  1.50000000E+00  1.50000000E+00  8.00000000E-01  8.00000000E-01  1.50000000E+00
  1.50000000E+00  8.00000000E-01  8.00000000E-01  1.50000000E+00  1.50000000E+00
  8.00000000E-01  8.00000000E-01  1.50000000E+00  1.50000000E+00  8.00000000E-01
  8.00000000E-01  1.50000000E+00  1.50000000E+00  8.00000000E-01  8.00000000E-01
  1.50000000E+00  1.50000000E+00  8.00000000E-01  8.00000000E-01  1.50000000E+00
  1.50000000E+00  8.00000000E-01  8.00000000E-01  1.50000000E+00  1.50000000E+00
  8.00000000E-01  8.00000000E-01  1.50000000E+00  1.50000000E+00  8.00000000E-01
  8.00000000E-01  1.50000000E+00  1.50000000E+00  8.00000000E-01  8.00000000E-01
  1.50000000E+00  1.50000000E+00  8.00000000E-01  8.00000000E-01  1.50000000E+00
  1.50000000E+00  8.00000000E-01  8.00000000E-01  1.50000000E+00  1.50000000E+00
  8.00000000E-01  8.00000000E-01  1.50000000E+00  1.50000000E+00  8.00000000E-01
  8.00000000E-01  1.50000000E+00  1.50000000E+00  8.00000000E-01  8.00000000E-01
  1.50000000E+00  1.50000000E+00  8.00000000E-01  8.00000000E-01  1.50000000E+00
  1.50000000E+00  8.00000000E-01  8.00000000E-01  1.50000000E+00  1.50000000E+00
  8.00000000E-01  8.00000000E-01  1.50000000E+00  1.50000000E+00  8.00000000E-01
  8.00000000E-01  1.50000000E+00  1.50000000E+00  8.00000000E-01  8.00000000E-01
  1.50000000E+00  1.50000000E+00  8.00000000E-01  8.00000000E-01  1.50000000E+00
  1.50000000E+00  8.00000000E-01  8.00000000E-01  1.50000000E+00  1.50000000E+00
  8.00000000E-01  8.00000000E-01  1.50000000E+00  1.50000000E+00  8.00000000E-01
  8.00000000E-01  1.50000000E+00  1.50000000E+00  8.00000000E-01  8.00000000E-01
  1.50000000E+00  1.50000000E+00  8.00000000E-01  8.00000000E-01  1.50000000E+00
  1.50000000E+00  8.00000000E-01  8.00000000E-01  1.50000000E+00  1.50000000E+00
  8.00000000E-01  8.00000000E-01  1.50000000E+00  1.50000000E+00  8.00000000E-01
  8.00000000E-01  1.50000000E+00  1.50000000E+00  8.00000000E-01  8.00000000E-01
  1.50000000E+00  1.50000000E+00  8.00000000E-01  8.00000000E-01  1.50000000E+00
  1.50000000E+00  8.00000000E-01  8.00000000E-01  1.50000000E+00  1.50000000E+00
  8.00000000E-01  8.00000000E-01  1.50000000E+00  1.50000000E+00  8.00000000E-01
  8.00000000E-01  1.50000000E+00  1.50000000E+00  8.00000000E-01  8.00000000E-01
  1.50000000E+00  1.50000000E+00  8.00000000E-01  8.00000000E-01  1.50000000E+00
  1.50000000E+00  8.00000000E-01  8.00000000E-01  1.50000000E+00  1.50000000E+00
  8.00000000E-01  8.00000000E-01  1.50000000E+00  1.50000000E+00  8.00000000E-01
  8.00000000E-01  1.50000000E+00  1.50000000E+00  8.00000000E-01  8.00000000E-01
  1.50000000E+00  1.50000000E+00  8.00000000E-01  8.00000000E-01  1.50000000E+00
  1.50000000E+00  8.00000000E-01  8.00000000E-01  1.50000000E+00  1.50000000E+00
  8.00000000E-01  8.00000000E-01  1.50000000E+00  1.50000000E+00  8.00000000E-01
  8.00000000E-01  1.50000000E+00  1.50000000E+00  8.00000000E-01  8.00000000E-01
  1.50000000E+00  1.50000000E+00  8.00000000E-01  8.00000000E-01  1.50000000E+00
  1.50000000E+00  8.00000000E-01  8.00000000E-01  1.50000000E+00  1.50000000E+00
  8.00000000E-01  8.00000000E-01  1.50000000E+00  1.50000000E+00  8.00000000E-01
  8.00000000E-01  1.50000000E+00  1.50000000E+00  8.00000000E-01  8.00000000E-01
  1.50000000E+00  1.50000000E+00  8.00000000E-01  8.00000000E-01  1.50000000E+00
  1.50000000E+00  8.00000000E-01  8.00000000E-01  1.50000000E+00  1.50000000E+00
  8.00000000E-01  8.00000000E-01  1.50000000E+00  1.50000000E+00  8.00000000E-01
  8.00000000E-01  1.50000000E+00  1.50000000E+00  8.00000000E-01  8.00000000E-01
  1.50000000E+00  1.50000000E+00  8.00000000E-01  8.00000000E-01  1.50000000E+00
  1.50000000E+00  8.00000000E-01  8.00000000E-01  1.50000000E+00  1.50000000E+00
  8.00000000E-01  8.00000000E-01  1.50000000E+00  1.50000000E+00  8.00000000E-01
  8.00000000E-01  1.50000000E+00  1.50000000E+00  8.00000000E-01  8.00000000E-01
  1.50000000E+00  1.50000000E+00  8.00000000E-01  8.00000000E-01  1.50000000E+00
  1.50000000E+00  8.00000000E-01  8.00000000E-01  1.50000000E+00  1.50000000E+00
  8.00000000E-01  8.00000000E-01  1.50000000E+00  1.50000000E+00  8.00000000E-01
  8.00000000E-01  1.50000000E+00  1.50000000E+00  8.00000000E-01  8.00000000E-01
  1.50000000E+00  1.50000000E+00  8.00000000E-01  8.00000000E-01  1.50000000E+00
  1.50000000E+00  8.00000000E-01  8.00000000E-01  1.50000000E+00  1.50000000E+00
  8.00000000E-01  8.00000000E-01  1.50000000E+00  1.50000000E+00  8.00000000E-01
  8.00000000E-01  1.50000000E+00  1.50000000E+00  8.00000000E-01  8.00000000E-01
  1.50000000E+00  1.50000000E+00  8.00000000E-01  8.00000000E-01  1.50000000E+00
  1.50000000E+00  8.00000000E-01  8.00000000E-01  1.50000000E+00  1.50000000E+00
  8.00000000E-01  8.00000000E-01  1.50000000E+00  1.50000000E+00  8.00000000E-01
  8.00000000E-01  1.50000000E+00  1.50000000E+00  8.00000000E-01  8.00000000E-01
  1.50000000E+00  1.50000000E+00  8.00000000E-01  8.00000000E-01  1.50000000E+00
  1.50000000E+00  8.00000000E-01  8.00000000E-01  1.50000000E+00  1.50000000E+00
  8.00000000E-01  8.00000000E-01  1.50000000E+00  1.50000000E+00  8.00000000E-01
  8.00000000E-01  1.50000000E+00  1.50000000E+00  8.00000000E-01  8.00000000E-01
  1.50000000E+00  1.50000000E+00  8.00000000E-01  8.00000000E-01  1.50000000E+00
  1.50000000E+00  8.00000000E-01  8.00000000E-01  1.50000000E+00  1.50000000E+00
  8.00000000E-01  8.00000000E-01  1.50000000E+00  1.50000000E+00  8.00000000E-01
  8.00000000E-01  1.50000000E+00  1.50000000E+00  8.00000000E-01  8.00000000E-01
  1.50000000E+00  1.50000000E+00  8.00000000E-01  8.00000000E-01  1.50000000E+00
  1.50000000E+00  8.00000000E-01  8.00000000E-01  1.50000000E+00  1.50000000E+00
  8.00000000E-01  8.00000000E-01  1.50000000E+00  1.50000000E+00  8.00000000E-01
  8.00000000E-01  1.50000000E+00  1.50000000E+00  8.00000000E-01  8.00000000E-01
  1.50000000E+00  1.50000000E+00  8.00000000E-01  8.00000000E-01  1.50000000E+00
  1.50000000E+00  8.00000000E-01  8.00000000E-01  1.50000000E+00  1.50000000E+00
  8.00000000E-01  8.00000000E-01  1.50000000E+00  1.50000000E+00  8.00000000E-01
  8.00000000E-01  1.50000000E+00  1.50000000E+00  8.00000000E-01  8.00000000E-01
  1.50000000E+00  1.50000000E+00  8.00000000E-01  8.00000000E-01  1.50000000E+00
  1.50000000E+00  8.00000000E-01  8.00000000E-01  1.50000000E+00  1.50000000E+00
  8.00000000E-01  8.00000000E-01  1.50000000E+00  1.50000000E+00  8.00000000E-01
  8.00000000E-01  1.50000000E+00  1.50000000E+00  8.00000000E-01  8.00000000E-01
  1.50000000E+00  1.50000000E+00  8.00000000E-01  8.00000000E-01  1.50000000E+00
  1.50000000E+00  8.00000000E-01  8.00000000E-01  1.50000000E+00  1.50000000E+00
  8.00000000E-01  8.00000000E-01  1.50000000E+00  1.50000000E+00  8.00000000E-01
  8.00000000E-01  1.50000000E+00  1.50000000E+00  8.00000000E-01  8.00000000E-01
  1.50000000E+00  1.50000000E+00  8.00000000E-01  8.00000000E-01  1.50000000E+00
  1.50000000E+00  8.00000000E-01  8.00000000E-01  1.50000000E+00  1.50000000E+00
  8.00000000E-01  8.00000000E-01  1.50000000E+00  1.50000000E+00  8.00000000E-01
  8.00000000E-01  1.50000000E+00  1.50000000E+00  8.00000000E-01  8.00000000E-01
  1.50000000E+00  1.50000000E+00  8.00000000E-01  8.00000000E-01  1.50000000E+00
  1.50000000E+00  8.00000000E-01  8.00000000E-01  1.50000000E+00  1.50000000E+00
  8.00000000E-01  8.00000000E-01  1.50000000E+00  1.50000000E+00  8.00000000E-01
  8.00000000E-01  1.50000000E+00  1.50000000E+00  8.00000000E-01  8.00000000E-01
  1.50000000E+00  1.50000000E+00  8.00000000E-01  8.00000000E-01  1.50000000E+00
  1.50000000E+00  8.00000000E-01  8.00000000E-01  1.50000000E+00  1.50000000E+00
  8.00000000E-01  8.00000000E-01  1.50000000E+00  1.50000000E+00  8.00000000E-01
  8.00000000E-01  1.50000000E+00  1.50000000E+00  8.00000000E-01  8.00000000E-01
  1.50000000E+00  1.50000000E+00  8.00000000E-01  8.00000000E-01  1.50000000E+00
  1.50000000E+00  8.00000000E-01  8.00000000E-01  1.50000000E+00  1.50000000E+00
  8.00000000E-01  8.00000000E-01  1.50000000E+00  1.50000000E+00  8.00000000E-01
  8.00000000E-01  1.50000000E+00  1.50000000E+00  8.00000000E-01  8.00000000E-01
  1.50000000E+00  1.50000000E+00  8.00000000E-01  8.00000000E-01  1.50000000E+00
  1.50000000E+00  8.00000000E-01  8.00000000E-01  1.50000000E+00  1.50000000E+00
  8.00000000E-01  8.00000000E-01  1.50000000E+00  1.50000000E+00  8.00000000E-01
  8.00000000E-01  1.50000000E+00  1.50000000E+00  8.00000000E-01  8.00000000E-01
  1.50000000E+00  1.50000000E+00  8.00000000E-01  8.00000000E-01  1.50000000E+00
  1.50000000E+00  8.00000000E-01  8.00000000E-01  1.50000000E+00  1.50000000E+00
  8.00000000E-01  8.00000000E-01  1.50000000E+00  1.50000000E+00  8.00000000E-01
  8.00000000E-01  1.50000000E+00  1.50000000E+00  8.00000000E-01  8.00000000E-01
  1.50000000E+00  1.50000000E+00  8.00000000E-01  8.00000000E-01  1.50000000E+00
  1.50000000E+00  8.00000000E-01  8.00000000E-01  1.50000000E+00  1.50000000E+00
  8.00000000E-01  8.00000000E-01  1.50000000E+00  1.50000000E+00  8.00000000E-01
  8.00000000E-01  1.50000000E+00  1.50000000E+00  8.00000000E-01  8.00000000E-01
  1.50000000E+00  1.50000000E+00  8.00000000E-01  8.00000000E-01  1.50000000E+00
  1.50000000E+00  8.00000000E-01  8.00000000E-01  1.50000000E+00  1.50000000E+00
  8.00000000E-01  8.00000000E-01  1.50000000E+00  1.50000000E+00  8.00000000E-01
  8.00000000E-01  1.50000000E+00  1.50000000E+00  8.00000000E-01  8.00000000E-01
  1.50000000E+00  1.50000000E+00  8.00000000E-01  8.00000000E-01  1.50000000E+00
  1.50000000E+00  8.00000000E-01  8.00000000E-01  1.50000000E+00  1.50000000E+00
  8.00000000E-01  8.00000000E-01  1.50000000E+00  1.50000000E+00  8.00000000E-01
  8.00000000E-01  1.50000000E+00  1.50000000E+00  8.00000000E-01  8.00000000E-01
  1.50000000E+00  1.50000000E+00  8.00000000E-01  8.00000000E-01  1.50000000E+00
  1.50000000E+00  8.00000000E-01  8.00000000E-01  1.50000000E+00  1.50000000E+00
  8.00000000E-01  8.00000000E-01  1.50000000E+00  1.50000000E+00  8.00000000E-01
  8.00000000E-01  1.50000000E+00  1.50000000E+00  8.00000000E-01  8.00000000E-01
  1.50000000E+00  1.50000000E+00  8.00000000E-01  8.00000000E-01  1.50000000E+00
  1.50000000E+00  8.00000000E-01  8.00000000E-01  1.50000000E+00  1.50000000E+00
  8.00000000E-01  8.00000000E-01  1.50000000E+00  1.50000000E+00  8.00000000E-01
  8.00000000E-01  1.50000000E+00  1.50000000E+00  8.00000000E-01  8.00000000E-01
  1.50000000E+00  1.50000000E+00  8.00000000E-01  8.00000000E-01  1.50000000E+00
  1.50000000E+00  8.00000000E-01  8.00000000E-01  1.50000000E+00  1.50000000E+00
  8.00000000E-01  8.00000000E-01  1.50000000E+00  1.50000000E+00  8.00000000E-01
  8.00000000E-01  1.50000000E+00  1.50000000E+00  8.00000000E-01  8.00000000E-01
  1.50000000E+00  1.50000000E+00  8.00000000E-01  8.00000000E-01  1.50000000E+00
  1.50000000E+00  8.00000000E-01  8.00000000E-01  1.50000000E+00  1.50000000E+00
  8.00000000E-01  8.00000000E-01  1.50000000E+00  1.50000000E+00  8.00000000E-01
  8.00000000E-01  1.50000000E+00  1.50000000E+00  8.00000000E-01  8.00000000E-01
  1.50000000E+00  1.50000000E+00  8.00000000E-01  8.00000000E-01  1.50000000E+00
  1.50000000E+00  8.00000000E-01  8.00000000E-01  1.50000000E+00  1.50000000E+00
  8.00000000E-01  8.00000000E-01  1.50000000E+00  1.50000000E+00  8.00000000E-01
  8.00000000E-01  1.50000000E+00  1.50000000E+00  8.00000000E-01  8.00000000E-01
  1.50000000E+00  1.50000000E+00  8.00000000E-01  8.00000000E-01  1.50000000E+00
  1.50000000E+00  8.00000000E-01  8.00000000E-01  1.50000000E+00  1.50000000E+00
  8.00000000E-01  8.00000000E-01  1.50000000E+00  1.50000000E+00  8.00000000E-01
  8.00000000E-01  1.50000000E+00  1.50000000E+00  8.00000000E-01  8.00000000E-01
  1.50000000E+00  1.50000000E+00  8.00000000E-01  8.00000000E-01  1.50000000E+00
  1.50000000E+00  8.00000000E-01  8.00000000E-01  1.50000000E+00  1.50000000E+00
  8.00000000E-01  8.00000000E-01  1.50000000E+00  1.50000000E+00  8.00000000E-01
  8.00000000E-01  1.50000000E+00  1.50000000E+00  8.00000000E-01  8.00000000E-01
  1.50000000E+00  1.50000000E+00  8.00000000E-01  8.00000000E-01  1.50000000E+00
  1.50000000E+00  8.00000000E-01  8.00000000E-01  1.50000000E+00  1.50000000E+00
  8.00000000E-01  8.00000000E-01  1.50000000E+00  1.50000000E+00  8.00000000E-01
  8.00000000E-01  1.50000000E+00  1.50000000E+00  8.00000000E-01  8.00000000E-01
  1.50000000E+00  1.50000000E+00  8.00000000E-01  8.00000000E-01  1.50000000E+00
  1.50000000E+00  8.00000000E-01  8.00000000E-01  1.50000000E+00  1.50000000E+00
  8.00000000E-01  8.00000000E-01  1.50000000E+00  1.50000000E+00  8.00000000E-01
  8.00000000E-01  1.50000000E+00  1.50000000E+00  8.00000000E-01  8.00000000E-01
  1.50000000E+00  1.50000000E+00  8.00000000E-01  8.00000000E-01  1.50000000E+00
  1.50000000E+00  8.00000000E-01  8.00000000E-01  1.50000000E+00  1.50000000E+00
  8.00000000E-01  8.00000000E-01  1.50000000E+00  1.50000000E+00  8.00000000E-01
  8.00000000E-01  1.50000000E+00  1.50000000E+00  8.00000000E-01  8.00000000E-01
  1.50000000E+00  1.50000000E+00  8.00000000E-01  8.00000000E-01  1.50000000E+00
  1.50000000E+00  8.00000000E-01  8.00000000E-01  1.50000000E+00  1.50000000E+00
  8.00000000E-01  8.00000000E-01  1.50000000E+00  1.50000000E+00  8.00000000E-01
  8.00000000E-01  1.50000000E+00  1.50000000E+00  8.00000000E-01  8.00000000E-01
  1.50000000E+00  1.50000000E+00  8.00000000E-01  8.00000000E-01  1.50000000E+00
  1.50000000E+00  8.00000000E-01  8.00000000E-01  1.50000000E+00  1.50000000E+00
  8.00000000E-01  8.00000000E-01  1.50000000E+00  1.50000000E+00  8.00000000E-01
  8.00000000E-01  1.50000000E+00  1.50000000E+00  8.00000000E-01  8.00000000E-01
  1.50000000E+00  1.50000000E+00  8.00000000E-01  8.00000000E-01  1.50000000E+00
  1.50000000E+00  8.00000000E-01  8.00000000E-01  1.50000000E+00  1.50000000E+00
  8.00000000E-01  8.00000000E-01  1.50000000E+00  1.50000000E+00  8.00000000E-01
  8.00000000E-01  1.50000000E+00  1.50000000E+00  8.00000000E-01  8.00000000E-01
  1.50000000E+00  1.50000000E+00  8.00000000E-01  8.00000000E-01  1.50000000E+00
  1.50000000E+00  8.00000000E-01  8.00000000E-01  1.50000000E+00  1.50000000E+00
  8.00000000E-01  8.00000000E-01  1.50000000E+00  1.50000000E+00  8.00000000E-01
  8.00000000E-01  1.50000000E+00  1.50000000E+00  8.00000000E-01  8.00000000E-01
  1.50000000E+00  1.50000000E+00  8.00000000E-01  8.00000000E-01  1.50000000E+00
  1.50000000E+00  8.00000000E-01  8.00000000E-01  1.50000000E+00  1.50000000E+00
  8.00000000E-01  8.00000000E-01  1.50000000E+00  1.50000000E+00  8.00000000E-01
  8.00000000E-01  1.50000000E+00  1.50000000E+00  8.00000000E-01  8.00000000E-01
  1.50000000E+00  1.50000000E+00  8.00000000E-01  8.00000000E-01  1.50000000E+00
  1.50000000E+00  8.00000000E-01  8.00000000E-01  1.50000000E+00  1.50000000E+00
  8.00000000E-01  8.00000000E-01  1.50000000E+00  1.50000000E+00  8.00000000E-01
  8.00000000E-01  1.50000000E+00  1.50000000E+00  8.00000000E-01  8.00000000E-01
  1.50000000E+00  1.50000000E+00  8.00000000E-01  8.00000000E-01  1.50000000E+00
  1.50000000E+00  8.00000000E-01  8.00000000E-01  1.50000000E+00  1.50000000E+00
  8.00000000E-01  8.00000000E-01  1.50000000E+00  1.50000000E+00  8.00000000E-01
  8.00000000E-01  1.50000000E+00  1.50000000E+00  8.00000000E-01  8.00000000E-01
  1.50000000E+00  1.50000000E+00  8.00000000E-01  8.00000000E-01  1.50000000E+00
  1.50000000E+00  8.00000000E-01  8.00000000E-01  1.50000000E+00  1.50000000E+00
  8.00000000E-01  8.00000000E-01  1.50000000E+00  1.50000000E+00  8.00000000E-01
  8.00000000E-01  1.50000000E+00  1.50000000E+00  8.00000000E-01  8.00000000E-01
  1.50000000E+00  1.50000000E+00  8.00000000E-01  8.00000000E-01  1.50000000E+00
  1.50000000E+00  8.00000000E-01  8.00000000E-01  1.50000000E+00  1.50000000E+00
  8.00000000E-01  8.00000000E-01  1.50000000E+00  1.50000000E+00  8.00000000E-01
  8.00000000E-01  1.50000000E+00  1.50000000E+00  8.00000000E-01  8.00000000E-01
  1.50000000E+00  1.50000000E+00  8.00000000E-01  8.00000000E-01  1.50000000E+00
  1.50000000E+00  8.00000000E-01  8.00000000E-01  1.50000000E+00  1.50000000E+00
  8.00000000E-01  8.00000000E-01  1.50000000E+00  1.50000000E+00  8.00000000E-01
  8.00000000E-01  1.50000000E+00  1.50000000E+00  8.00000000E-01  8.00000000E-01
  1.50000000E+00  1.50000000E+00  8.00000000E-01  8.00000000E-01  1.50000000E+00
  1.50000000E+00  8.00000000E-01  8.00000000E-01  1.50000000E+00  1.50000000E+00
  8.00000000E-01  8.00000000E-01  1.50000000E+00  1.50000000E+00  8.00000000E-01
  8.00000000E-01  1.50000000E+00  1.50000000E+00  8.00000000E-01  8.00000000E-01
  1.50000000E+00  1.50000000E+00  8.00000000E-01  8.00000000E-01  1.50000000E+00
  1.50000000E+00  8.00000000E-01  8.00000000E-01  1.50000000E+00  1.50000000E+00
  8.00000000E-01  8.00000000E-01  1.50000000E+00  1.50000000E+00  8.00000000E-01
  8.00000000E-01  1.50000000E+00  1.50000000E+00  8.00000000E-01  8.00000000E-01
  1.50000000E+00  1.50000000E+00  8.00000000E-01  8.00000000E-01  1.50000000E+00
  1.50000000E+00  8.00000000E-01  8.00000000E-01  1.50000000E+00  1.50000000E+00
  8.00000000E-01  8.00000000E-01  1.50000000E+00  1.50000000E+00  8.00000000E-01
  8.00000000E-01  1.50000000E+00  1.50000000E+00  8.00000000E-01  8.00000000E-01
  1.50000000E+00  1.50000000E+00  8.00000000E-01  8.00000000E-01  1.50000000E+00
  1.50000000E+00  8.00000000E-01  8.00000000E-01  1.50000000E+00  1.50000000E+00
  8.00000000E-01  8.00000000E-01  1.50000000E+00  1.50000000E+00  8.00000000E-01
  8.00000000E-01  1.50000000E+00  1.50000000E+00  8.00000000E-01  8.00000000E-01
  1.50000000E+00  1.50000000E+00  8.00000000E-01  8.00000000E-01  1.50000000E+00
  1.50000000E+00  8.00000000E-01  8.00000000E-01  1.50000000E+00  1.50000000E+00
  8.00000000E-01  8.00000000E-01  1.50000000E+00  1.50000000E+00  8.00000000E-01
  8.00000000E-01  1.50000000E+00  1.50000000E+00  8.00000000E-01  8.00000000E-01
  1.50000000E+00  1.50000000E+00  8.00000000E-01  8.00000000E-01  1.50000000E+00
  1.50000000E+00  8.00000000E-01  8.00000000E-01  1.50000000E+00  1.50000000E+00
  8.00000000E-01  8.00000000E-01  1.50000000E+00  1.50000000E+00  8.00000000E-01
  8.00000000E-01  1.50000000E+00  1.50000000E+00  8.00000000E-01  8.00000000E-01
  1.50000000E+00  1.50000000E+00  8.00000000E-01  8.00000000E-01  1.50000000E+00
  1.50000000E+00  8.00000000E-01  8.00000000E-01  1.50000000E+00  1.50000000E+00
  8.00000000E-01  8.00000000E-01  1.50000000E+00  1.50000000E+00  8.00000000E-01
  8.00000000E-01  1.50000000E+00  1.50000000E+00  8.00000000E-01  8.00000000E-01
  1.50000000E+00  1.50000000E+00  8.00000000E-01  8.00000000E-01  1.50000000E+00
  1.50000000E+00  8.00000000E-01  8.00000000E-01  1.50000000E+00  1.50000000E+00
  8.00000000E-01  8.00000000E-01  1.50000000E+00  1.50000000E+00  8.00000000E-01
  8.00000000E-01  1.50000000E+00  1.50000000E+00  8.00000000E-01  8.00000000E-01
  1.50000000E+00  1.50000000E+00  8.00000000E-01  8.00000000E-01  1.50000000E+00
  1.50000000E+00  8.00000000E-01  8.00000000E-01  1.50000000E+00  1.50000000E+00
  8.00000000E-01  8.00000000E-01  1.50000000E+00  1.50000000E+00  8.00000000E-01
  8.00000000E-01  1.50000000E+00  1.50000000E+00  8.00000000E-01  8.00000000E-01
  1.50000000E+00  1.50000000E+00  8.00000000E-01  8.00000000E-01  1.50000000E+00
  1.50000000E+00  8.00000000E-01  8.00000000E-01  1.50000000E+00  1.50000000E+00
  8.00000000E-01  8.00000000E-01  1.50000000E+00  1.50000000E+00  8.00000000E-01
  8.00000000E-01  1.50000000E+00  1.50000000E+00  8.00000000E-01  8.00000000E-01
  1.50000000E+00  1.50000000E+00  8.00000000E-01  8.00000000E-01  1.50000000E+00
  1.50000000E+00  8.00000000E-01  8.00000000E-01  1.50000000E+00  1.50000000E+00
  8.00000000E-01  8.00000000E-01  1.50000000E+00  1.50000000E+00  8.00000000E-01
  8.00000000E-01  1.50000000E+00  1.50000000E+00  8.00000000E-01  8.00000000E-01
  1.50000000E+00  1.50000000E+00  8.00000000E-01  8.00000000E-01  1.50000000E+00
  1.50000000E+00  8.00000000E-01  8.00000000E-01  1.50000000E+00  1.50000000E+00
  8.00000000E-01  8.00000000E-01  1.50000000E+00  1.50000000E+00  8.00000000E-01
  8.00000000E-01  1.50000000E+00  1.50000000E+00  8.00000000E-01  8.00000000E-01
  1.50000000E+00  1.50000000E+00  8.00000000E-01  8.00000000E-01  1.50000000E+00
  1.50000000E+00  8.00000000E-01  8.00000000E-01  1.50000000E+00  1.50000000E+00
  8.00000000E-01  8.00000000E-01  1.50000000E+00  1.50000000E+00  8.00000000E-01
  8.00000000E-01  1.50000000E+00  1.50000000E+00  8.00000000E-01  8.00000000E-01
  1.50000000E+00  1.50000000E+00  8.00000000E-01  8.00000000E-01  1.50000000E+00
  1.50000000E+00  8.00000000E-01  8.00000000E-01  1.50000000E+00  1.50000000E+00
  8.00000000E-01  8.00000000E-01  1.50000000E+00  1.50000000E+00  8.00000000E-01
  8.00000000E-01  1.50000000E+00  1.50000000E+00  8.00000000E-01  8.00000000E-01
  1.50000000E+00  1.50000000E+00  8.00000000E-01  8.00000000E-01  1.50000000E+00
  1.50000000E+00  8.00000000E-01  8.00000000E-01  1.50000000E+00  1.50000000E+00
  8.00000000E-01  8.00000000E-01  1.50000000E+00  1.50000000E+00  8.00000000E-01
  8.00000000E-01  1.50000000E+00  1.50000000E+00  8.00000000E-01  8.00000000E-01
  1.50000000E+00  1.50000000E+00  8.00000000E-01  8.00000000E-01  1.50000000E+00
  1.50000000E+00  8.00000000E-01  8.00000000E-01  1.50000000E+00  1.50000000E+00
  8.00000000E-01  8.00000000E-01  1.50000000E+00  1.50000000E+00  8.00000000E-01
  8.00000000E-01  1.50000000E+00  1.50000000E+00  8.00000000E-01  8.00000000E-01
  1.50000000E+00  1.50000000E+00  8.00000000E-01  8.00000000E-01  1.50000000E+00
  1.50000000E+00  8.00000000E-01  8.00000000E-01  1.50000000E+00  1.50000000E+00
  8.00000000E-01  8.00000000E-01  1.50000000E+00  1.50000000E+00  8.00000000E-01
  8.00000000E-01  1.50000000E+00  1.50000000E+00  8.00000000E-01  8.00000000E-01
  1.50000000E+00  1.50000000E+00  8.00000000E-01  8.00000000E-01  1.50000000E+00
  1.50000000E+00  8.00000000E-01  8.00000000E-01  1.50000000E+00  1.50000000E+00
  8.00000000E-01  8.00000000E-01  1.50000000E+00  1.50000000E+00  8.00000000E-01
  8.00000000E-01  1.50000000E+00  1.50000000E+00  8.00000000E-01  8.00000000E-01
  1.50000000E+00  1.50000000E+00  8.00000000E-01  8.00000000E-01  1.50000000E+00
  1.50000000E+00  8.00000000E-01  8.00000000E-01  1.50000000E+00  1.50000000E+00
  8.00000000E-01  8.00000000E-01  1.50000000E+00  1.50000000E+00  8.00000000E-01
  8.00000000E-01  1.50000000E+00  1.50000000E+00  8.00000000E-01  8.00000000E-01
  1.50000000E+00  1.50000000E+00  8.00000000E-01  8.00000000E-01  1.50000000E+00
  1.50000000E+00  8.00000000E-01  8.00000000E-01  1.50000000E+00  1.50000000E+00
  8.00000000E-01  8.00000000E-01  1.50000000E+00  1.50000000E+00  8.00000000E-01
  8.00000000E-01  1.50000000E+00  1.50000000E+00  8.00000000E-01  8.00000000E-01
  1.50000000E+00  1.50000000E+00  8.00000000E-01  8.00000000E-01  1.50000000E+00
  1.50000000E+00  8.00000000E-01  8.00000000E-01  1.50000000E+00  1.50000000E+00
  8.00000000E-01  8.00000000E-01  1.50000000E+00  1.50000000E+00  8.00000000E-01
  8.00000000E-01  1.50000000E+00  1.50000000E+00  8.00000000E-01  8.00000000E-01
  1.50000000E+00  1.50000000E+00  8.00000000E-01  8.00000000E-01  1.50000000E+00
  1.50000000E+00  8.00000000E-01  8.00000000E-01  1.50000000E+00  1.50000000E+00
  8.00000000E-01  8.00000000E-01  1.50000000E+00  1.50000000E+00  8.00000000E-01
  8.00000000E-01  1.50000000E+00  1.50000000E+00  8.00000000E-01  8.00000000E-01
  1.50000000E+00  1.50000000E+00  8.00000000E-01  8.00000000E-01  1.50000000E+00
  1.50000000E+00  8.00000000E-01  8.00000000E-01  1.50000000E+00  1.50000000E+00
  8.00000000E-01  8.00000000E-01  1.50000000E+00  1.50000000E+00  8.00000000E-01
  8.00000000E-01  1.50000000E+00  1.50000000E+00  8.00000000E-01  8.00000000E-01
  1.50000000E+00  1.50000000E+00  8.00000000E-01  8.00000000E-01  1.50000000E+00
  1.50000000E+00  8.00000000E-01  8.00000000E-01  1.50000000E+00  1.50000000E+00
  8.00000000E-01  8.00000000E-01  1.50000000E+00  1.50000000E+00  8.00000000E-01
  8.00000000E-01  1.50000000E+00  1.50000000E+00  8.00000000E-01  8.00000000E-01
  1.50000000E+00  1.50000000E+00  8.00000000E-01  8.00000000E-01  1.50000000E+00
  1.50000000E+00  8.00000000E-01  8.00000000E-01  1.50000000E+00  1.50000000E+00
  8.00000000E-01  8.00000000E-01  1.50000000E+00  1.50000000E+00  8.00000000E-01
  8.00000000E-01  1.50000000E+00  1.50000000E+00  8.00000000E-01  8.00000000E-01
  1.50000000E+00  1.50000000E+00  8.00000000E-01  8.00000000E-01  1.50000000E+00
  1.50000000E+00  8.00000000E-01  8.00000000E-01  1.50000000E+00  1.50000000E+00
  8.00000000E-01  8.00000000E-01  1.50000000E+00  1.50000000E+00  8.00000000E-01
  8.00000000E-01  1.50000000E+00  1.50000000E+00  8.00000000E-01  8.00000000E-01
  1.50000000E+00  1.50000000E+00  8.00000000E-01  8.00000000E-01  1.50000000E+00
  1.50000000E+00  8.00000000E-01  8.00000000E-01  1.50000000E+00  1.50000000E+00
  8.00000000E-01  8.00000000E-01  1.50000000E+00  1.50000000E+00  8.00000000E-01
  8.00000000E-01  1.50000000E+00  1.50000000E+00  8.00000000E-01  8.00000000E-01
  1.50000000E+00  1.50000000E+00  8.00000000E-01  8.00000000E-01  1.50000000E+00
  1.50000000E+00  8.00000000E-01  8.00000000E-01  1.50000000E+00  1.50000000E+00
  8.00000000E-01  8.00000000E-01  1.50000000E+00  1.50000000E+00  8.00000000E-01
  8.00000000E-01  1.50000000E+00  1.50000000E+00  8.00000000E-01  8.00000000E-01
  1.50000000E+00  1.50000000E+00  8.00000000E-01  8.00000000E-01  1.50000000E+00
  1.50000000E+00  8.00000000E-01  8.00000000E-01  1.50000000E+00  1.50000000E+00
  8.00000000E-01  8.00000000E-01  1.50000000E+00  1.50000000E+00  8.00000000E-01
  8.00000000E-01  1.50000000E+00  1.50000000E+00  8.00000000E-01  8.00000000E-01
  1.50000000E+00  1.50000000E+00  8.00000000E-01  8.00000000E-01  1.50000000E+00
  1.50000000E+00  8.00000000E-01  8.00000000E-01  1.50000000E+00  1.50000000E+00
  8.00000000E-01  8.00000000E-01  1.50000000E+00  1.50000000E+00  8.00000000E-01
  8.00000000E-01  1.50000000E+00  1.50000000E+00  8.00000000E-01  8.00000000E-01
  1.50000000E+00  1.50000000E+00  8.00000000E-01  8.00000000E-01  1.50000000E+00
  1.50000000E+00  8.00000000E-01  8.00000000E-01  1.50000000E+00  1.50000000E+00
  8.00000000E-01  8.00000000E-01  1.50000000E+00  1.50000000E+00  8.00000000E-01
  8.00000000E-01  1.50000000E+00  1.50000000E+00  8.00000000E-01  8.00000000E-01
  1.50000000E+00  1.50000000E+00  8.00000000E-01  8.00000000E-01  1.50000000E+00
  1.50000000E+00  8.00000000E-01  8.00000000E-01  1.50000000E+00  1.50000000E+00
  8.00000000E-01  8.00000000E-01  1.50000000E+00  1.50000000E+00  8.00000000E-01
  8.00000000E-01  1.50000000E+00  1.50000000E+00  8.00000000E-01  8.00000000E-01
  1.50000000E+00  1.50000000E+00  8.00000000E-01  8.00000000E-01  1.50000000E+00
  1.50000000E+00  8.00000000E-01  8.00000000E-01  1.50000000E+00  1.50000000E+00
  8.00000000E-01  8.00000000E-01  1.50000000E+00  1.50000000E+00  8.00000000E-01
  8.00000000E-01  1.50000000E+00  1.50000000E+00  8.00000000E-01  8.00000000E-01
  1.50000000E+00  1.50000000E+00  8.00000000E-01  8.00000000E-01  1.50000000E+00
  1.50000000E+00  8.00000000E-01  8.00000000E-01  1.50000000E+00  1.50000000E+00
  8.00000000E-01  8.00000000E-01  1.50000000E+00  1.50000000E+00  8.00000000E-01
  8.00000000E-01  1.50000000E+00  1.50000000E+00  8.00000000E-01  8.00000000E-01
  1.50000000E+00  1.50000000E+00  8.00000000E-01  8.00000000E-01  1.50000000E+00
  1.50000000E+00  8.00000000E-01  8.00000000E-01  1.50000000E+00  1.50000000E+00
  8.00000000E-01  8.00000000E-01  1.50000000E+00  1.50000000E+00  8.00000000E-01
  8.00000000E-01  1.50000000E+00  1.50000000E+00  8.00000000E-01  8.00000000E-01
  1.50000000E+00  1.50000000E+00  8.00000000E-01  8.00000000E-01  1.50000000E+00
  1.50000000E+00  8.00000000E-01  8.00000000E-01  1.50000000E+00  1.50000000E+00
  8.00000000E-01  8.00000000E-01  1.50000000E+00  1.50000000E+00  8.00000000E-01
  8.00000000E-01  1.50000000E+00  1.50000000E+00  8.00000000E-01  8.00000000E-01
  1.50000000E+00  1.50000000E+00  8.00000000E-01  8.00000000E-01  1.50000000E+00
  1.50000000E+00  8.00000000E-01  8.00000000E-01  1.50000000E+00  1.50000000E+00
  8.00000000E-01  8.00000000E-01  1.50000000E+00  1.50000000E+00  8.00000000E-01
  8.00000000E-01  1.50000000E+00  1.50000000E+00  8.00000000E-01  8.00000000E-01
  1.50000000E+00  1.50000000E+00  8.00000000E-01  8.00000000E-01  1.50000000E+00
  1.50000000E+00  8.00000000E-01  8.00000000E-01  1.50000000E+00  1.50000000E+00
  8.00000000E-01  8.00000000E-01  1.50000000E+00  1.50000000E+00  8.00000000E-01
  8.00000000E-01  1.50000000E+00  1.50000000E+00  8.00000000E-01  8.00000000E-01
  1.50000000E+00  1.50000000E+00  8.00000000E-01  8.00000000E-01  1.50000000E+00
  1.50000000E+00  8.00000000E-01  8.00000000E-01  1.50000000E+00  1.50000000E+00
  8.00000000E-01  8.00000000E-01  1.50000000E+00  1.50000000E+00  8.00000000E-01
  8.00000000E-01  1.50000000E+00  1.50000000E+00  8.00000000E-01  8.00000000E-01
  1.50000000E+00  1.50000000E+00  8.00000000E-01  8.00000000E-01  1.50000000E+00
  1.50000000E+00  8.00000000E-01  8.00000000E-01  1.50000000E+00  1.50000000E+00
  8.00000000E-01  8.00000000E-01  1.50000000E+00  1.50000000E+00  8.00000000E-01
  8.00000000E-01  1.50000000E+00  1.50000000E+00  8.00000000E-01  8.00000000E-01
  1.50000000E+00  1.50000000E+00  8.00000000E-01  8.00000000E-01  1.50000000E+00
  1.50000000E+00  8.00000000E-01  8.00000000E-01  1.50000000E+00  1.50000000E+00
  8.00000000E-01  8.00000000E-01  1.50000000E+00  1.50000000E+00  8.00000000E-01
  8.00000000E-01  1.50000000E+00  1.50000000E+00  8.00000000E-01  8.00000000E-01
  1.50000000E+00  1.50000000E+00  8.00000000E-01  8.00000000E-01  1.50000000E+00
  1.50000000E+00  8.00000000E-01  8.00000000E-01  1.50000000E+00  1.50000000E+00
  8.00000000E-01  8.00000000E-01  1.50000000E+00  1.50000000E+00  8.00000000E-01
  8.00000000E-01  1.50000000E+00  1.50000000E+00  8.00000000E-01  8.00000000E-01
  1.50000000E+00  1.50000000E+00  8.00000000E-01  8.00000000E-01  1.50000000E+00
  1.50000000E+00  8.00000000E-01  8.00000000E-01  1.50000000E+00  1.50000000E+00
  8.00000000E-01  8.00000000E-01  1.50000000E+00  1.50000000E+00  8.00000000E-01
  8.00000000E-01  1.50000000E+00  1.50000000E+00  8.00000000E-01  8.00000000E-01
  1.50000000E+00  1.50000000E+00  8.00000000E-01  8.00000000E-01  1.50000000E+00
  1.50000000E+00  8.00000000E-01  8.00000000E-01  1.50000000E+00  1.50000000E+00
  8.00000000E-01  8.00000000E-01  1.50000000E+00  1.50000000E+00  8.00000000E-01
  8.00000000E-01  1.50000000E+00  1.50000000E+00  8.00000000E-01  8.00000000E-01
  1.50000000E+00  1.50000000E+00  8.00000000E-01  8.00000000E-01  1.50000000E+00
  1.50000000E+00  8.00000000E-01  8.00000000E-01  1.50000000E+00  1.50000000E+00
  8.00000000E-01  8.00000000E-01  1.50000000E+00  1.50000000E+00  8.00000000E-01
  8.00000000E-01  1.50000000E+00  1.50000000E+00  8.00000000E-01  8.00000000E-01
  1.50000000E+00  1.50000000E+00  8.00000000E-01  8.00000000E-01  1.50000000E+00
  1.50000000E+00  8.00000000E-01  8.00000000E-01  1.50000000E+00  1.50000000E+00
  8.00000000E-01  8.00000000E-01  1.50000000E+00  1.50000000E+00  8.00000000E-01
  8.00000000E-01  1.50000000E+00  1.50000000E+00  8.00000000E-01  8.00000000E-01
  1.50000000E+00  1.50000000E+00  8.00000000E-01  8.00000000E-01  1.50000000E+00
  1.50000000E+00  8.00000000E-01  8.00000000E-01  1.50000000E+00  1.50000000E+00
  8.00000000E-01  8.00000000E-01  1.50000000E+00  1.50000000E+00  8.00000000E-01
  8.00000000E-01  1.50000000E+00  1.50000000E+00  8.00000000E-01  8.00000000E-01
  1.50000000E+00  1.50000000E+00  8.00000000E-01  8.00000000E-01  1.50000000E+00
  1.50000000E+00  8.00000000E-01  8.00000000E-01  1.50000000E+00  1.50000000E+00
  8.00000000E-01  8.00000000E-01  1.50000000E+00  1.50000000E+00  8.00000000E-01
  8.00000000E-01  1.50000000E+00  1.50000000E+00  8.00000000E-01  8.00000000E-01
  1.50000000E+00  1.50000000E+00  8.00000000E-01  8.00000000E-01  1.50000000E+00
  1.50000000E+00  8.00000000E-01  8.00000000E-01  1.50000000E+00  1.50000000E+00
  8.00000000E-01  8.00000000E-01  1.50000000E+00  1.50000000E+00  8.00000000E-01
  8.00000000E-01  1.50000000E+00  1.50000000E+00  8.00000000E-01  8.00000000E-01
  1.50000000E+00  1.50000000E+00  8.00000000E-01  8.00000000E-01  1.50000000E+00
  1.50000000E+00  8.00000000E-01  8.00000000E-01  1.50000000E+00  1.50000000E+00
  8.00000000E-01  8.00000000E-01  1.50000000E+00  1.50000000E+00  8.00000000E-01
  8.00000000E-01  1.50000000E+00  1.50000000E+00  8.00000000E-01  8.00000000E-01
  1.50000000E+00  1.50000000E+00  8.00000000E-01  8.00000000E-01  1.50000000E+00
  1.50000000E+00  8.00000000E-01  8.00000000E-01  1.50000000E+00  1.50000000E+00
  8.00000000E-01  8.00000000E-01  1.50000000E+00  1.50000000E+00  8.00000000E-01
  8.00000000E-01  1.50000000E+00  1.50000000E+00  8.00000000E-01  8.00000000E-01
  1.50000000E+00  1.50000000E+00  8.00000000E-01  8.00000000E-01  1.50000000E+00
  1.50000000E+00  8.00000000E-01  8.00000000E-01  1.50000000E+00  1.50000000E+00
  8.00000000E-01  8.00000000E-01  1.50000000E+00  1.50000000E+00  8.00000000E-01
  8.00000000E-01  1.50000000E+00  1.50000000E+00  8.00000000E-01  8.00000000E-01
  1.50000000E+00  1.50000000E+00  8.00000000E-01  8.00000000E-01  1.50000000E+00
  1.50000000E+00  8.00000000E-01  8.00000000E-01  1.50000000E+00  1.50000000E+00
  8.00000000E-01  8.00000000E-01  1.50000000E+00  1.50000000E+00  8.00000000E-01
  8.00000000E-01  1.50000000E+00  1.50000000E+00  8.00000000E-01  8.00000000E-01
  1.50000000E+00  1.50000000E+00  8.00000000E-01  8.00000000E-01  1.50000000E+00
  1.50000000E+00  8.00000000E-01  8.00000000E-01  1.50000000E+00  1.50000000E+00
  8.00000000E-01  8.00000000E-01  1.50000000E+00  1.50000000E+00  8.00000000E-01
  8.00000000E-01  1.50000000E+00  1.50000000E+00  8.00000000E-01  8.00000000E-01
  1.50000000E+00  1.50000000E+00  8.00000000E-01  8.00000000E-01  1.50000000E+00
  1.50000000E+00  8.00000000E-01  8.00000000E-01  1.50000000E+00  1.50000000E+00
  8.00000000E-01  8.00000000E-01  1.50000000E+00  1.50000000E+00  8.00000000E-01
  8.00000000E-01  1.50000000E+00  1.50000000E+00  8.00000000E-01  8.00000000E-01
  1.50000000E+00  1.50000000E+00  8.00000000E-01  8.00000000E-01  1.50000000E+00
  1.50000000E+00  8.00000000E-01  8.00000000E-01  1.50000000E+00  1.50000000E+00
  8.00000000E-01  8.00000000E-01  1.50000000E+00  1.50000000E+00  8.00000000E-01
  8.00000000E-01  1.50000000E+00  1.50000000E+00  8.00000000E-01  8.00000000E-01
  1.50000000E+00  1.50000000E+00  8.00000000E-01  8.00000000E-01  1.50000000E+00
  1.50000000E+00  8.00000000E-01  8.00000000E-01  1.50000000E+00  1.50000000E+00
  8.00000000E-01  8.00000000E-01  1.50000000E+00  1.50000000E+00  8.00000000E-01
  8.00000000E-01  1.50000000E+00  1.50000000E+00  8.00000000E-01  8.00000000E-01
  1.50000000E+00  1.50000000E+00  8.00000000E-01  8.00000000E-01  1.50000000E+00
  1.50000000E+00  8.00000000E-01  8.00000000E-01  1.50000000E+00  1.50000000E+00
  8.00000000E-01  8.00000000E-01  1.50000000E+00  1.50000000E+00  8.00000000E-01
  8.00000000E-01  1.50000000E+00  1.50000000E+00  8.00000000E-01  8.00000000E-01
  1.50000000E+00  1.50000000E+00  8.00000000E-01  8.00000000E-01  1.50000000E+00
  1.50000000E+00  8.00000000E-01  8.00000000E-01  1.50000000E+00  1.50000000E+00
  8.00000000E-01  8.00000000E-01  1.50000000E+00  1.50000000E+00  8.00000000E-01
  8.00000000E-01  1.50000000E+00  1.50000000E+00  8.00000000E-01  8.00000000E-01
  1.50000000E+00  1.50000000E+00  8.00000000E-01  8.00000000E-01  1.50000000E+00
  1.50000000E+00  8.00000000E-01  8.00000000E-01  1.50000000E+00  1.50000000E+00
  8.00000000E-01  8.00000000E-01  1.50000000E+00  1.50000000E+00  8.00000000E-01
  8.00000000E-01  1.50000000E+00  1.50000000E+00  8.00000000E-01  8.00000000E-01
  1.50000000E+00  1.50000000E+00  8.00000000E-01  8.00000000E-01  1.50000000E+00
  1.50000000E+00  8.00000000E-01  8.00000000E-01  1.50000000E+00  1.50000000E+00
  8.00000000E-01  8.00000000E-01  1.50000000E+00  1.50000000E+00  8.00000000E-01
  8.00000000E-01  1.50000000E+00  1.50000000E+00  8.00000000E-01  8.00000000E-01
  1.50000000E+00  1.50000000E+00  8.00000000E-01  8.00000000E-01  1.50000000E+00
  1.50000000E+00  8.00000000E-01  8.00000000E-01  1.50000000E+00  1.50000000E+00
  8.00000000E-01  8.00000000E-01  1.50000000E+00  1.50000000E+00  8.00000000E-01
  8.00000000E-01  1.50000000E+00  1.50000000E+00  8.00000000E-01  8.00000000E-01
  1.50000000E+00  1.50000000E+00  8.00000000E-01  8.00000000E-01  1.50000000E+00
  1.50000000E+00  8.00000000E-01  8.00000000E-01  1.50000000E+00  1.50000000E+00
  8.00000000E-01  8.00000000E-01  1.50000000E+00  1.50000000E+00  8.00000000E-01
  8.00000000E-01  1.50000000E+00  1.50000000E+00  8.00000000E-01  8.00000000E-01
  1.50000000E+00  1.50000000E+00  8.00000000E-01  8.00000000E-01  1.50000000E+00
  1.50000000E+00  8.00000000E-01  8.00000000E-01  1.50000000E+00  1.50000000E+00
  8.00000000E-01  8.00000000E-01  1.50000000E+00  1.50000000E+00  8.00000000E-01
  8.00000000E-01  1.50000000E+00  1.50000000E+00  8.00000000E-01  8.00000000E-01
  1.50000000E+00  1.50000000E+00  8.00000000E-01  8.00000000E-01  1.50000000E+00
  1.50000000E+00  8.00000000E-01  8.00000000E-01  1.50000000E+00  1.50000000E+00
  8.00000000E-01  8.00000000E-01  1.50000000E+00  1.50000000E+00  8.00000000E-01
  8.00000000E-01  1.50000000E+00  1.50000000E+00  8.00000000E-01  8.00000000E-01
  1.50000000E+00  1.50000000E+00  8.00000000E-01  8.00000000E-01  1.50000000E+00
  1.50000000E+00  8.00000000E-01  8.00000000E-01  1.50000000E+00  1.50000000E+00
  8.00000000E-01  8.00000000E-01  1.50000000E+00  1.50000000E+00  8.00000000E-01
  8.00000000E-01  1.50000000E+00  1.50000000E+00  8.00000000E-01  8.00000000E-01
  1.50000000E+00  1.50000000E+00  8.00000000E-01  8.00000000E-01  1.50000000E+00
  1.50000000E+00  8.00000000E-01  8.00000000E-01  1.50000000E+00  1.50000000E+00
  8.00000000E-01  8.00000000E-01  1.50000000E+00  1.50000000E+00  8.00000000E-01
  8.00000000E-01  1.50000000E+00  1.50000000E+00  8.00000000E-01  8.00000000E-01
  1.50000000E+00  1.50000000E+00  8.00000000E-01  8.00000000E-01  1.50000000E+00
  1.50000000E+00  8.00000000E-01  8.00000000E-01  1.50000000E+00  1.50000000E+00
  8.00000000E-01  8.00000000E-01  1.50000000E+00  1.50000000E+00  8.00000000E-01
  8.00000000E-01  1.50000000E+00  1.50000000E+00  8.00000000E-01  8.00000000E-01
  1.50000000E+00  1.50000000E+00  8.00000000E-01  8.00000000E-01  1.50000000E+00
  1.50000000E+00  8.00000000E-01  8.00000000E-01  1.50000000E+00  1.50000000E+00
  8.00000000E-01  8.00000000E-01  1.50000000E+00  1.50000000E+00  8.00000000E-01
  8.00000000E-01  1.50000000E+00  1.50000000E+00  8.00000000E-01  8.00000000E-01
  1.50000000E+00  1.50000000E+00  8.00000000E-01  8.00000000E-01  1.50000000E+00
  1.50000000E+00  8.00000000E-01  8.00000000E-01  1.50000000E+00  1.50000000E+00
  8.00000000E-01  8.00000000E-01  1.50000000E+00  1.50000000E+00  8.00000000E-01
  8.00000000E-01  1.50000000E+00  1.50000000E+00  8.00000000E-01  8.00000000E-01
  1.50000000E+00  1.50000000E+00  8.00000000E-01  8.00000000E-01  1.50000000E+00
  1.50000000E+00  8.00000000E-01  8.00000000E-01  1.50000000E+00  1.50000000E+00
  8.00000000E-01  8.00000000E-01  1.50000000E+00  1.50000000E+00  8.00000000E-01
  8.00000000E-01  1.50000000E+00  1.50000000E+00  8.00000000E-01  8.00000000E-01
  1.50000000E+00  1.50000000E+00  8.00000000E-01  8.00000000E-01  1.50000000E+00
  1.50000000E+00  8.00000000E-01  8.00000000E-01  1.50000000E+00  1.50000000E+00
  8.00000000E-01  8.00000000E-01  1.50000000E+00  1.50000000E+00  8.00000000E-01
  8.00000000E-01  1.50000000E+00  1.50000000E+00  8.00000000E-01  8.00000000E-01
  1.50000000E+00  1.50000000E+00  8.00000000E-01  8.00000000E-01  1.50000000E+00
  1.50000000E+00  8.00000000E-01  8.00000000E-01  1.50000000E+00  1.50000000E+00
  8.00000000E-01  8.00000000E-01  1.50000000E+00  1.50000000E+00  8.00000000E-01
  8.00000000E-01  1.50000000E+00  1.50000000E+00  8.00000000E-01  8.00000000E-01
  1.50000000E+00  1.50000000E+00  8.00000000E-01  8.00000000E-01  1.50000000E+00
  1.50000000E+00  8.00000000E-01  8.00000000E-01  1.50000000E+00  1.50000000E+00
  8.00000000E-01  8.00000000E-01  1.50000000E+00  1.50000000E+00  8.00000000E-01
  8.00000000E-01  1.50000000E+00  1.50000000E+00  8.00000000E-01  8.00000000E-01
  1.50000000E+00  1.50000000E+00  8.00000000E-01  8.00000000E-01  1.50000000E+00
  1.50000000E+00  8.00000000E-01  8.00000000E-01  1.50000000E+00  1.50000000E+00
  8.00000000E-01  8.00000000E-01  1.50000000E+00  1.50000000E+00  8.00000000E-01
  8.00000000E-01  1.50000000E+00  1.50000000E+00  8.00000000E-01  8.00000000E-01
  1.50000000E+00  1.50000000E+00  8.00000000E-01  8.00000000E-01  1.50000000E+00
  1.50000000E+00  8.00000000E-01  8.00000000E-01  1.50000000E+00  1.50000000E+00
  8.00000000E-01  8.00000000E-01  1.50000000E+00  1.50000000E+00  8.00000000E-01
  8.00000000E-01  1.50000000E+00  1.50000000E+00  8.00000000E-01  8.00000000E-01
  1.50000000E+00  1.50000000E+00  8.00000000E-01  8.00000000E-01  1.50000000E+00
  1.50000000E+00  8.00000000E-01  8.00000000E-01  1.50000000E+00  1.50000000E+00
  8.00000000E-01  8.00000000E-01  1.50000000E+00  1.50000000E+00  8.00000000E-01
  8.00000000E-01  1.50000000E+00  1.50000000E+00  8.00000000E-01  8.00000000E-01
  1.50000000E+00  1.50000000E+00  8.00000000E-01  8.00000000E-01  1.50000000E+00
  1.50000000E+00  8.00000000E-01  8.00000000E-01  1.50000000E+00  1.50000000E+00
  8.00000000E-01  8.00000000E-01  1.50000000E+00  1.50000000E+00  8.00000000E-01
  8.00000000E-01  1.50000000E+00  1.50000000E+00  8.00000000E-01  8.00000000E-01
  1.50000000E+00  1.50000000E+00  8.00000000E-01  8.00000000E-01  1.50000000E+00
  1.50000000E+00  8.00000000E-01  8.00000000E-01  1.50000000E+00  1.50000000E+00
  8.00000000E-01  8.00000000E-01  1.50000000E+00  1.50000000E+00  8.00000000E-01
  8.00000000E-01  1.50000000E+00  1.50000000E+00  8.00000000E-01  8.00000000E-01
  1.50000000E+00  1.50000000E+00  8.00000000E-01  8.00000000E-01  1.50000000E+00
  1.50000000E+00  8.00000000E-01  8.00000000E-01  1.50000000E+00  1.50000000E+00
  8.00000000E-01  8.00000000E-01  1.50000000E+00  1.50000000E+00  8.00000000E-01
  8.00000000E-01  1.50000000E+00  1.50000000E+00  8.00000000E-01  8.00000000E-01
  1.50000000E+00  1.50000000E+00  8.00000000E-01  8.00000000E-01  1.50000000E+00
  1.50000000E+00  8.00000000E-01  8.00000000E-01  1.50000000E+00  1.50000000E+00
  8.00000000E-01  8.00000000E-01  1.50000000E+00  1.50000000E+00  8.00000000E-01
  8.00000000E-01  1.50000000E+00  1.50000000E+00  8.00000000E-01  8.00000000E-01
  1.50000000E+00  1.50000000E+00  8.00000000E-01  8.00000000E-01  1.50000000E+00
  1.50000000E+00  8.00000000E-01  8.00000000E-01  1.50000000E+00  1.50000000E+00
  8.00000000E-01  8.00000000E-01  1.50000000E+00  1.50000000E+00  8.00000000E-01
  8.00000000E-01  1.50000000E+00  1.50000000E+00  8.00000000E-01  8.00000000E-01
  1.50000000E+00  1.50000000E+00  8.00000000E-01  8.00000000E-01  1.50000000E+00
  1.50000000E+00  8.00000000E-01  8.00000000E-01  1.50000000E+00  1.50000000E+00
  8.00000000E-01  8.00000000E-01  1.50000000E+00  1.50000000E+00  8.00000000E-01
  8.00000000E-01  1.50000000E+00  1.50000000E+00  8.00000000E-01  8.00000000E-01
  1.50000000E+00  1.50000000E+00  8.00000000E-01  8.00000000E-01  1.50000000E+00
  1.50000000E+00  8.00000000E-01  8.00000000E-01  1.50000000E+00  1.50000000E+00
  8.00000000E-01  8.00000000E-01  1.50000000E+00  1.50000000E+00  8.00000000E-01
  8.00000000E-01  1.50000000E+00  1.50000000E+00  8.00000000E-01  8.00000000E-01
  1.50000000E+00  1.50000000E+00  8.00000000E-01  8.00000000E-01  1.50000000E+00
  1.50000000E+00  8.00000000E-01  8.00000000E-01  1.50000000E+00  1.50000000E+00
  8.00000000E-01  8.00000000E-01  1.50000000E+00  1.50000000E+00  8.00000000E-01
  8.00000000E-01  1.50000000E+00  1.50000000E+00  8.00000000E-01  8.00000000E-01
  1.50000000E+00  1.50000000E+00  8.00000000E-01  8.00000000E-01  1.50000000E+00
  1.50000000E+00  8.00000000E-01  8.00000000E-01  1.50000000E+00  1.50000000E+00
  8.00000000E-01  8.00000000E-01  1.50000000E+00  1.50000000E+00  8.00000000E-01
  8.00000000E-01  1.50000000E+00  1.50000000E+00  8.00000000E-01  8.00000000E-01
  1.50000000E+00  1.50000000E+00  8.00000000E-01  8.00000000E-01  1.50000000E+00
  1.50000000E+00  8.00000000E-01  8.00000000E-01  1.50000000E+00  1.50000000E+00
  8.00000000E-01  8.00000000E-01  1.50000000E+00  1.50000000E+00  8.00000000E-01
  8.00000000E-01  1.50000000E+00  1.50000000E+00  8.00000000E-01  8.00000000E-01
  1.50000000E+00  1.50000000E+00  8.00000000E-01  8.00000000E-01  1.50000000E+00
  1.50000000E+00  8.00000000E-01  8.00000000E-01  1.50000000E+00  1.50000000E+00
  8.00000000E-01  8.00000000E-01  1.50000000E+00  1.50000000E+00  8.00000000E-01
  8.00000000E-01  1.50000000E+00  1.50000000E+00  8.00000000E-01  8.00000000E-01
  1.50000000E+00  1.50000000E+00  8.00000000E-01  8.00000000E-01  1.50000000E+00
  1.50000000E+00  8.00000000E-01  8.00000000E-01  1.50000000E+00  1.50000000E+00
  8.00000000E-01  8.00000000E-01  1.50000000E+00  1.50000000E+00  8.00000000E-01
  8.00000000E-01  1.50000000E+00  1.50000000E+00  8.00000000E-01  8.00000000E-01
  1.50000000E+00  1.50000000E+00  8.00000000E-01  8.00000000E-01  1.50000000E+00
  1.50000000E+00  8.00000000E-01  8.00000000E-01  1.50000000E+00  1.50000000E+00
  8.00000000E-01  8.00000000E-01  1.50000000E+00  1.50000000E+00  8.00000000E-01
  8.00000000E-01  1.50000000E+00  1.50000000E+00  8.00000000E-01  8.00000000E-01
  1.50000000E+00  1.50000000E+00  8.00000000E-01  8.00000000E-01  1.50000000E+00
  1.50000000E+00  8.00000000E-01  8.00000000E-01  1.50000000E+00  1.50000000E+00
  8.00000000E-01  8.00000000E-01  1.50000000E+00  1.50000000E+00  8.00000000E-01
  8.00000000E-01  1.50000000E+00  1.50000000E+00  8.00000000E-01  8.00000000E-01
  1.50000000E+00  1.50000000E+00  8.00000000E-01  8.00000000E-01  1.50000000E+00
  1.50000000E+00  8.00000000E-01  8.00000000E-01  1.50000000E+00  1.50000000E+00
  8.00000000E-01  8.00000000E-01  1.50000000E+00  1.50000000E+00  8.00000000E-01
  8.00000000E-01  1.50000000E+00  1.50000000E+00  8.00000000E-01  8.00000000E-01
  1.50000000E+00  1.50000000E+00  8.00000000E-01  8.00000000E-01  1.50000000E+00
  1.50000000E+00  8.00000000E-01  8.00000000E-01  1.50000000E+00  1.50000000E+00
  8.00000000E-01  8.00000000E-01  1.50000000E+00  1.50000000E+00  8.00000000E-01
  8.00000000E-01  1.50000000E+00  1.50000000E+00  8.00000000E-01  8.00000000E-01
  1.50000000E+00  1.50000000E+00  8.00000000E-01  8.00000000E-01  1.50000000E+00
  1.50000000E+00  8.00000000E-01  8.00000000E-01  1.50000000E+00  1.50000000E+00
  8.00000000E-01  8.00000000E-01  1.50000000E+00  1.50000000E+00  8.00000000E-01
  8.00000000E-01  1.50000000E+00  1.50000000E+00  8.00000000E-01  8.00000000E-01
  1.50000000E+00  1.50000000E+00  8.00000000E-01  8.00000000E-01  1.50000000E+00
  1.50000000E+00  8.00000000E-01  8.00000000E-01  1.50000000E+00  1.50000000E+00
  8.00000000E-01  8.00000000E-01  1.50000000E+00  1.50000000E+00  8.00000000E-01
  8.00000000E-01  1.50000000E+00  1.50000000E+00  8.00000000E-01  8.00000000E-01
  1.50000000E+00  1.50000000E+00  8.00000000E-01  8.00000000E-01  1.50000000E+00
  1.50000000E+00  8.00000000E-01  8.00000000E-01  1.50000000E+00  1.50000000E+00
  8.00000000E-01  8.00000000E-01  1.50000000E+00  1.50000000E+00  8.00000000E-01
  8.00000000E-01  1.50000000E+00  1.50000000E+00  8.00000000E-01  8.00000000E-01
  1.50000000E+00  1.50000000E+00  8.00000000E-01  8.00000000E-01  1.50000000E+00
  1.50000000E+00  8.00000000E-01  8.00000000E-01  1.50000000E+00  1.50000000E+00
  8.00000000E-01  8.00000000E-01  1.50000000E+00  1.50000000E+00  8.00000000E-01
  8.00000000E-01  1.50000000E+00  1.50000000E+00  8.00000000E-01  8.00000000E-01
  1.50000000E+00  1.50000000E+00  8.00000000E-01  8.00000000E-01  1.50000000E+00
  1.50000000E+00  8.00000000E-01  8.00000000E-01  1.50000000E+00  1.50000000E+00
  8.00000000E-01  8.00000000E-01  1.50000000E+00  1.50000000E+00  8.00000000E-01
  8.00000000E-01  1.50000000E+00  1.50000000E+00  8.00000000E-01  8.00000000E-01
  1.50000000E+00  1.50000000E+00  8.00000000E-01  8.00000000E-01  1.50000000E+00
  1.50000000E+00  8.00000000E-01  8.00000000E-01  1.50000000E+00  1.50000000E+00
  8.00000000E-01  8.00000000E-01  1.50000000E+00  1.50000000E+00  8.00000000E-01
  8.00000000E-01  1.50000000E+00  1.50000000E+00  8.00000000E-01  8.00000000E-01
  1.50000000E+00  1.50000000E+00  8.00000000E-01  8.00000000E-01  1.50000000E+00
  1.50000000E+00  8.00000000E-01  8.00000000E-01  1.50000000E+00  1.50000000E+00
  8.00000000E-01  8.00000000E-01  1.50000000E+00  1.50000000E+00  8.00000000E-01
  8.00000000E-01  1.50000000E+00  1.50000000E+00  8.00000000E-01  8.00000000E-01
  1.50000000E+00  1.50000000E+00  8.00000000E-01  8.00000000E-01  1.50000000E+00
  1.50000000E+00  8.00000000E-01  8.00000000E-01  1.50000000E+00  1.50000000E+00
  8.00000000E-01  8.00000000E-01  1.50000000E+00  1.50000000E+00  8.00000000E-01
  8.00000000E-01  1.50000000E+00  1.50000000E+00  8.00000000E-01  8.00000000E-01
  1.50000000E+00  1.50000000E+00  8.00000000E-01  8.00000000E-01  1.50000000E+00
  1.50000000E+00  8.00000000E-01  8.00000000E-01  1.50000000E+00  1.50000000E+00
  8.00000000E-01  8.00000000E-01  1.50000000E+00  1.50000000E+00  8.00000000E-01
  8.00000000E-01  1.50000000E+00  1.50000000E+00  8.00000000E-01  8.00000000E-01
  1.50000000E+00  1.50000000E+00  8.00000000E-01  8.00000000E-01  1.50000000E+00
  1.50000000E+00  8.00000000E-01  8.00000000E-01  1.50000000E+00  1.50000000E+00
  8.00000000E-01  8.00000000E-01  1.50000000E+00  1.50000000E+00  8.00000000E-01
  8.00000000E-01  1.50000000E+00  1.50000000E+00  8.00000000E-01  8.00000000E-01
  1.50000000E+00  1.50000000E+00  8.00000000E-01  8.00000000E-01  1.50000000E+00
  1.50000000E+00  8.00000000E-01  8.00000000E-01  1.50000000E+00  1.50000000E+00
  8.00000000E-01  8.00000000E-01  1.50000000E+00  1.50000000E+00  8.00000000E-01
  8.00000000E-01  1.50000000E+00  1.50000000E+00  8.00000000E-01  8.00000000E-01
  1.50000000E+00  1.50000000E+00  8.00000000E-01  8.00000000E-01  1.50000000E+00
  1.50000000E+00  8.00000000E-01  8.00000000E-01  1.50000000E+00  1.50000000E+00
  8.00000000E-01  8.00000000E-01  1.50000000E+00  1.50000000E+00  8.00000000E-01
  8.00000000E-01  1.50000000E+00  1.50000000E+00  8.00000000E-01  8.00000000E-01
  1.50000000E+00  1.50000000E+00  8.00000000E-01  8.00000000E-01  1.50000000E+00
  1.50000000E+00  8.00000000E-01  8.00000000E-01  1.50000000E+00  1.50000000E+00
  8.00000000E-01  8.00000000E-01  1.50000000E+00  1.50000000E+00  8.00000000E-01
  8.00000000E-01  1.50000000E+00  1.50000000E+00  8.00000000E-01  8.00000000E-01
  1.50000000E+00  1.50000000E+00  8.00000000E-01  8.00000000E-01  1.50000000E+00
  1.50000000E+00  8.00000000E-01  8.00000000E-01  1.50000000E+00  1.50000000E+00
  8.00000000E-01  8.00000000E-01  1.50000000E+00  1.50000000E+00  8.00000000E-01
  8.00000000E-01  1.50000000E+00  1.50000000E+00  8.00000000E-01  8.00000000E-01
  1.50000000E+00  1.50000000E+00  8.00000000E-01  8.00000000E-01  1.50000000E+00
  1.50000000E+00  8.00000000E-01  8.00000000E-01  1.50000000E+00  1.50000000E+00
  8.00000000E-01  8.00000000E-01  1.50000000E+00  1.50000000E+00  8.00000000E-01
  8.00000000E-01  1.50000000E+00  1.50000000E+00  8.00000000E-01  8.00000000E-01
  1.50000000E+00  1.50000000E+00  8.00000000E-01  8.00000000E-01  1.50000000E+00
  1.50000000E+00  8.00000000E-01  8.00000000E-01  1.50000000E+00  1.50000000E+00
  8.00000000E-01  8.00000000E-01  1.50000000E+00  1.50000000E+00  8.00000000E-01
  8.00000000E-01  1.50000000E+00  1.50000000E+00  8.00000000E-01  8.00000000E-01
  1.50000000E+00  1.50000000E+00  8.00000000E-01  8.00000000E-01  1.50000000E+00
  1.50000000E+00  8.00000000E-01  8.00000000E-01  1.50000000E+00  1.50000000E+00
  8.00000000E-01  8.00000000E-01  1.50000000E+00  1.50000000E+00  8.00000000E-01
  8.00000000E-01  1.50000000E+00  1.50000000E+00  8.00000000E-01  8.00000000E-01
  1.50000000E+00  1.50000000E+00  8.00000000E-01  8.00000000E-01  1.50000000E+00
  1.50000000E+00  8.00000000E-01  8.00000000E-01  1.50000000E+00  1.50000000E+00
  8.00000000E-01  8.00000000E-01  1.50000000E+00  1.50000000E+00  8.00000000E-01
  8.00000000E-01  1.50000000E+00  1.50000000E+00  8.00000000E-01  8.00000000E-01
  1.50000000E+00  1.50000000E+00  8.00000000E-01  8.00000000E-01  1.50000000E+00
  1.50000000E+00  8.00000000E-01  8.00000000E-01  1.50000000E+00  1.50000000E+00
  8.00000000E-01  8.00000000E-01  1.50000000E+00  1.50000000E+00  8.00000000E-01
  8.00000000E-01  1.50000000E+00  1.50000000E+00  8.00000000E-01  8.00000000E-01
  1.50000000E+00  1.50000000E+00  8.00000000E-01  8.00000000E-01  1.50000000E+00
  1.50000000E+00  8.00000000E-01  8.00000000E-01  1.50000000E+00  1.50000000E+00
  8.00000000E-01  8.00000000E-01  1.50000000E+00  1.50000000E+00  8.00000000E-01
  8.00000000E-01  1.50000000E+00  1.50000000E+00  8.00000000E-01  8.00000000E-01
  1.50000000E+00  1.50000000E+00  8.00000000E-01  8.00000000E-01  1.50000000E+00
  1.50000000E+00  8.00000000E-01  8.00000000E-01  1.50000000E+00  1.50000000E+00
  8.00000000E-01  8.00000000E-01  1.50000000E+00  1.50000000E+00  8.00000000E-01
  8.00000000E-01  1.50000000E+00  1.50000000E+00  8.00000000E-01  8.00000000E-01
  1.50000000E+00  1.50000000E+00  8.00000000E-01  8.00000000E-01  1.50000000E+00
  1.50000000E+00  8.00000000E-01  8.00000000E-01  1.50000000E+00  1.50000000E+00
  8.00000000E-01  8.00000000E-01  1.50000000E+00  1.50000000E+00  8.00000000E-01
  8.00000000E-01  1.50000000E+00  1.50000000E+00  8.00000000E-01  8.00000000E-01
  1.50000000E+00  1.50000000E+00  8.00000000E-01  8.00000000E-01  1.50000000E+00
  1.50000000E+00  8.00000000E-01  8.00000000E-01  1.50000000E+00  1.50000000E+00
  8.00000000E-01  8.00000000E-01  1.50000000E+00  1.50000000E+00  8.00000000E-01
  8.00000000E-01  1.50000000E+00  1.50000000E+00  8.00000000E-01  8.00000000E-01
  1.50000000E+00  1.50000000E+00  8.00000000E-01  8.00000000E-01  1.50000000E+00
  1.50000000E+00  8.00000000E-01  8.00000000E-01  1.50000000E+00  1.50000000E+00
  8.00000000E-01  8.00000000E-01  1.50000000E+00  1.50000000E+00  8.00000000E-01
  8.00000000E-01  1.50000000E+00  1.50000000E+00  8.00000000E-01  8.00000000E-01
  1.50000000E+00  1.50000000E+00  8.00000000E-01  8.00000000E-01  1.50000000E+00
  1.50000000E+00  8.00000000E-01  8.00000000E-01  1.50000000E+00  1.50000000E+00
  8.00000000E-01  8.00000000E-01  1.50000000E+00  1.50000000E+00  8.00000000E-01
  8.00000000E-01  1.50000000E+00  1.50000000E+00  8.00000000E-01  8.00000000E-01
  1.50000000E+00  1.50000000E+00  8.00000000E-01  8.00000000E-01  1.50000000E+00
  1.50000000E+00  8.00000000E-01  8.00000000E-01  1.50000000E+00  1.50000000E+00
  8.00000000E-01  8.00000000E-01  1.50000000E+00  1.50000000E+00  8.00000000E-01
  8.00000000E-01  1.50000000E+00  1.50000000E+00  8.00000000E-01  8.00000000E-01
  1.50000000E+00  1.50000000E+00  8.00000000E-01  8.00000000E-01  1.50000000E+00
  1.50000000E+00  8.00000000E-01  8.00000000E-01  1.50000000E+00  1.50000000E+00
  8.00000000E-01  8.00000000E-01  1.50000000E+00  1.50000000E+00  8.00000000E-01
  8.00000000E-01  1.50000000E+00  1.50000000E+00  8.00000000E-01  8.00000000E-01
  1.50000000E+00  1.50000000E+00  8.00000000E-01  8.00000000E-01  1.50000000E+00
  1.50000000E+00  8.00000000E-01  8.00000000E-01  1.50000000E+00  1.50000000E+00
  8.00000000E-01  8.00000000E-01  1.50000000E+00  1.50000000E+00  8.00000000E-01
  8.00000000E-01  1.50000000E+00  1.50000000E+00  8.00000000E-01  8.00000000E-01
  1.50000000E+00  1.50000000E+00  8.00000000E-01  8.00000000E-01  1.50000000E+00
  1.50000000E+00  8.00000000E-01  8.00000000E-01  1.50000000E+00  1.50000000E+00
  8.00000000E-01  8.00000000E-01  1.50000000E+00  1.50000000E+00  8.00000000E-01
  8.00000000E-01  1.50000000E+00  1.50000000E+00  8.00000000E-01  8.00000000E-01
  1.50000000E+00  1.50000000E+00  8.00000000E-01  8.00000000E-01  1.50000000E+00
  1.50000000E+00  8.00000000E-01  8.00000000E-01  1.50000000E+00  1.50000000E+00
  8.00000000E-01  8.00000000E-01  1.50000000E+00  1.50000000E+00  8.00000000E-01
  8.00000000E-01  1.50000000E+00  1.50000000E+00  8.00000000E-01  8.00000000E-01
  1.50000000E+00  1.50000000E+00  8.00000000E-01  8.00000000E-01  1.50000000E+00
  1.50000000E+00  8.00000000E-01  8.00000000E-01  1.50000000E+00  1.50000000E+00
  8.00000000E-01  8.00000000E-01  1.50000000E+00  1.50000000E+00  8.00000000E-01
  8.00000000E-01  1.50000000E+00  1.50000000E+00  8.00000000E-01  8.00000000E-01
  1.50000000E+00  1.50000000E+00  8.00000000E-01  8.00000000E-01  1.50000000E+00
  1.50000000E+00  8.00000000E-01  8.00000000E-01  1.50000000E+00  1.50000000E+00
  8.00000000E-01  8.00000000E-01  1.50000000E+00  1.50000000E+00  8.00000000E-01
  8.00000000E-01  1.50000000E+00  1.50000000E+00  8.00000000E-01  8.00000000E-01
  1.50000000E+00  1.50000000E+00  8.00000000E-01  8.00000000E-01  1.50000000E+00
  1.50000000E+00  8.00000000E-01  8.00000000E-01  1.50000000E+00  1.50000000E+00
  8.00000000E-01  8.00000000E-01  1.50000000E+00  1.50000000E+00  8.00000000E-01
  8.00000000E-01  1.50000000E+00  1.50000000E+00  8.00000000E-01  8.00000000E-01
  1.50000000E+00  1.50000000E+00  8.00000000E-01  8.00000000E-01  1.50000000E+00
  1.50000000E+00  8.00000000E-01  8.00000000E-01  1.50000000E+00  1.50000000E+00
  8.00000000E-01  8.00000000E-01  1.50000000E+00  1.50000000E+00  8.00000000E-01
  8.00000000E-01  1.50000000E+00  1.50000000E+00  8.00000000E-01  8.00000000E-01
  1.50000000E+00  1.50000000E+00  8.00000000E-01  8.00000000E-01  1.50000000E+00
  1.50000000E+00  8.00000000E-01  8.00000000E-01  1.50000000E+00  1.50000000E+00
  8.00000000E-01  8.00000000E-01  1.50000000E+00  1.50000000E+00  8.00000000E-01
  8.00000000E-01  1.50000000E+00  1.50000000E+00  8.00000000E-01  8.00000000E-01
  1.50000000E+00  1.50000000E+00  8.00000000E-01  8.00000000E-01  1.50000000E+00
  1.50000000E+00  8.00000000E-01  8.00000000E-01  1.50000000E+00  1.50000000E+00
  8.00000000E-01  8.00000000E-01  1.50000000E+00  1.50000000E+00  8.00000000E-01
  8.00000000E-01  1.50000000E+00  1.50000000E+00  8.00000000E-01  8.00000000E-01
  1.50000000E+00  1.50000000E+00  8.00000000E-01  8.00000000E-01  1.50000000E+00
  1.50000000E+00  8.00000000E-01  8.00000000E-01  1.50000000E+00  1.50000000E+00
  8.00000000E-01  8.00000000E-01  1.50000000E+00  1.50000000E+00  8.00000000E-01
  8.00000000E-01  1.50000000E+00  1.50000000E+00  8.00000000E-01  8.00000000E-01
  1.50000000E+00  1.50000000E+00  8.00000000E-01  8.00000000E-01  1.50000000E+00
  1.50000000E+00  8.00000000E-01  8.00000000E-01  1.50000000E+00  1.50000000E+00
  8.00000000E-01  8.00000000E-01  1.50000000E+00  1.50000000E+00  8.00000000E-01
  8.00000000E-01  1.50000000E+00  1.50000000E+00  8.00000000E-01  8.00000000E-01
  1.50000000E+00  1.50000000E+00  8.00000000E-01  8.00000000E-01  1.50000000E+00
  1.50000000E+00  8.00000000E-01  8.00000000E-01  1.50000000E+00  1.50000000E+00
  8.00000000E-01  8.00000000E-01  1.50000000E+00  1.50000000E+00  8.00000000E-01
  8.00000000E-01  1.50000000E+00  1.50000000E+00  8.00000000E-01  8.00000000E-01
  1.50000000E+00  1.50000000E+00  8.00000000E-01  8.00000000E-01  1.50000000E+00
  1.50000000E+00  8.00000000E-01  8.00000000E-01  1.50000000E+00  1.50000000E+00
  8.00000000E-01  8.00000000E-01  1.50000000E+00  1.50000000E+00  8.00000000E-01
  8.00000000E-01  1.50000000E+00  1.50000000E+00  8.00000000E-01  8.00000000E-01
  1.50000000E+00  1.50000000E+00  8.00000000E-01  8.00000000E-01  1.50000000E+00
  1.50000000E+00  8.00000000E-01  8.00000000E-01  1.50000000E+00  1.50000000E+00
  8.00000000E-01  8.00000000E-01  1.50000000E+00  1.50000000E+00  8.00000000E-01
  8.00000000E-01  1.50000000E+00  1.50000000E+00  8.00000000E-01  8.00000000E-01
  1.50000000E+00  1.50000000E+00  8.00000000E-01  8.00000000E-01  1.50000000E+00
  1.50000000E+00  8.00000000E-01  8.00000000E-01  1.50000000E+00  1.50000000E+00
  8.00000000E-01  8.00000000E-01  1.50000000E+00  1.50000000E+00  8.00000000E-01
  8.00000000E-01  1.50000000E+00  1.50000000E+00  8.00000000E-01  8.00000000E-01
  1.50000000E+00  1.50000000E+00  8.00000000E-01  8.00000000E-01  1.50000000E+00
  1.50000000E+00  8.00000000E-01  8.00000000E-01  1.50000000E+00  1.50000000E+00
  8.00000000E-01  8.00000000E-01  1.50000000E+00  1.50000000E+00  8.00000000E-01
  8.00000000E-01  1.50000000E+00  1.50000000E+00  8.00000000E-01  8.00000000E-01
  1.50000000E+00  1.50000000E+00  8.00000000E-01  8.00000000E-01  1.50000000E+00
  1.50000000E+00  8.00000000E-01  8.00000000E-01  1.50000000E+00  1.50000000E+00
  8.00000000E-01  8.00000000E-01  1.50000000E+00  1.50000000E+00  8.00000000E-01
  8.00000000E-01  1.50000000E+00  1.50000000E+00  8.00000000E-01  8.00000000E-01
  1.50000000E+00  1.50000000E+00  8.00000000E-01  8.00000000E-01  1.50000000E+00
  1.50000000E+00  8.00000000E-01  8.00000000E-01  1.50000000E+00  1.50000000E+00
  8.00000000E-01  8.00000000E-01  1.50000000E+00  1.50000000E+00  8.00000000E-01
  8.00000000E-01  1.50000000E+00  1.50000000E+00  8.00000000E-01  8.00000000E-01
  1.50000000E+00  1.50000000E+00  8.00000000E-01  8.00000000E-01  1.50000000E+00
  1.50000000E+00  8.00000000E-01  8.00000000E-01  1.50000000E+00  1.50000000E+00
  8.00000000E-01  8.00000000E-01  1.50000000E+00  1.50000000E+00  8.00000000E-01
  8.00000000E-01  1.50000000E+00  1.50000000E+00  8.00000000E-01  8.00000000E-01
  1.50000000E+00  1.50000000E+00  8.00000000E-01  8.00000000E-01  1.50000000E+00
  1.50000000E+00  8.00000000E-01  8.00000000E-01  1.50000000E+00  1.50000000E+00
  8.00000000E-01  8.00000000E-01  1.50000000E+00  1.50000000E+00  8.00000000E-01
  8.00000000E-01  1.50000000E+00  1.50000000E+00  8.00000000E-01  8.00000000E-01
  1.50000000E+00  1.50000000E+00  8.00000000E-01  8.00000000E-01  1.50000000E+00
  1.50000000E+00  8.00000000E-01  8.00000000E-01  1.50000000E+00  1.50000000E+00
  8.00000000E-01  8.00000000E-01  1.50000000E+00  1.50000000E+00  8.00000000E-01
  8.00000000E-01  1.50000000E+00  1.50000000E+00  8.00000000E-01  8.00000000E-01
  1.50000000E+00  1.50000000E+00  8.00000000E-01  8.00000000E-01  1.50000000E+00
  1.50000000E+00  8.00000000E-01  8.00000000E-01  1.50000000E+00  1.50000000E+00
  8.00000000E-01  8.00000000E-01  1.50000000E+00  1.50000000E+00  8.00000000E-01
  8.00000000E-01  1.50000000E+00  1.50000000E+00  8.00000000E-01  8.00000000E-01
  1.50000000E+00  1.50000000E+00  8.00000000E-01  8.00000000E-01  1.50000000E+00
  1.50000000E+00  8.00000000E-01  8.00000000E-01  1.50000000E+00  1.50000000E+00
  8.00000000E-01  8.00000000E-01  1.50000000E+00  1.50000000E+00  8.00000000E-01
  8.00000000E-01  1.50000000E+00  1.50000000E+00  8.00000000E-01  8.00000000E-01
  1.50000000E+00  1.50000000E+00  8.00000000E-01  8.00000000E-01  1.50000000E+00
  1.50000000E+00  8.00000000E-01  8.00000000E-01  1.50000000E+00  1.50000000E+00
  8.00000000E-01  8.00000000E-01  1.50000000E+00  1.50000000E+00  8.00000000E-01
  8.00000000E-01  1.50000000E+00  1.50000000E+00  8.00000000E-01  8.00000000E-01
  1.50000000E+00  1.50000000E+00  8.00000000E-01  8.00000000E-01  1.50000000E+00
  1.50000000E+00  8.00000000E-01  8.00000000E-01  1.50000000E+00  1.50000000E+00
  8.00000000E-01  8.00000000E-01  1.50000000E+00  1.50000000E+00  8.00000000E-01
  8.00000000E-01  1.50000000E+00  1.50000000E+00  8.00000000E-01  8.00000000E-01
  1.50000000E+00  1.50000000E+00  8.00000000E-01  8.00000000E-01  1.50000000E+00
  1.50000000E+00  8.00000000E-01  8.00000000E-01  1.50000000E+00  1.50000000E+00
  8.00000000E-01  8.00000000E-01  1.50000000E+00  1.50000000E+00  8.00000000E-01
  8.00000000E-01  1.50000000E+00  1.50000000E+00  8.00000000E-01  8.00000000E-01
  1.50000000E+00  1.50000000E+00  8.00000000E-01  8.00000000E-01  1.50000000E+00
  1.50000000E+00  8.00000000E-01  8.00000000E-01  1.50000000E+00  1.50000000E+00
  8.00000000E-01  8.00000000E-01  1.50000000E+00  1.50000000E+00  8.00000000E-01
  8.00000000E-01  1.50000000E+00  1.50000000E+00  8.00000000E-01  8.00000000E-01
  1.50000000E+00  1.50000000E+00  8.00000000E-01  8.00000000E-01  1.50000000E+00
  1.50000000E+00  8.00000000E-01  8.00000000E-01  1.50000000E+00  1.50000000E+00
  8.00000000E-01  8.00000000E-01  1.50000000E+00  1.50000000E+00  8.00000000E-01
  8.00000000E-01  1.50000000E+00  1.50000000E+00  8.00000000E-01  8.00000000E-01
  1.50000000E+00  1.50000000E+00  8.00000000E-01  8.00000000E-01  1.50000000E+00
  1.50000000E+00  8.00000000E-01  8.00000000E-01  1.50000000E+00  1.50000000E+00
  8.00000000E-01  8.00000000E-01  1.50000000E+00  1.50000000E+00  8.00000000E-01
  8.00000000E-01  1.50000000E+00  1.50000000E+00  8.00000000E-01  8.00000000E-01
  1.50000000E+00  1.50000000E+00  8.00000000E-01  8.00000000E-01  1.50000000E+00
  1.50000000E+00  8.00000000E-01  8.00000000E-01  1.50000000E+00  1.50000000E+00
  8.00000000E-01  8.00000000E-01  1.50000000E+00  1.50000000E+00  8.00000000E-01
  8.00000000E-01  1.50000000E+00  1.50000000E+00  8.00000000E-01  8.00000000E-01
  1.50000000E+00  1.50000000E+00  8.00000000E-01  8.00000000E-01  1.50000000E+00
  1.50000000E+00  8.00000000E-01  8.00000000E-01  1.50000000E+00  1.50000000E+00
  8.00000000E-01  8.00000000E-01  1.50000000E+00  1.50000000E+00  8.00000000E-01
  8.00000000E-01  1.50000000E+00  1.50000000E+00  8.00000000E-01  8.00000000E-01
  1.50000000E+00  1.50000000E+00  8.00000000E-01  8.00000000E-01  1.50000000E+00
  1.50000000E+00  8.00000000E-01  8.00000000E-01  1.50000000E+00  1.50000000E+00
  8.00000000E-01  8.00000000E-01  1.50000000E+00  1.50000000E+00  8.00000000E-01
  8.00000000E-01  1.50000000E+00  1.50000000E+00  8.00000000E-01  8.00000000E-01
  1.50000000E+00  1.50000000E+00  8.00000000E-01  8.00000000E-01  1.50000000E+00
  1.50000000E+00  8.00000000E-01  8.00000000E-01  1.50000000E+00  1.50000000E+00
  8.00000000E-01  8.00000000E-01  1.50000000E+00  1.50000000E+00  8.00000000E-01
  8.00000000E-01  1.50000000E+00  1.50000000E+00  8.00000000E-01  8.00000000E-01
  1.50000000E+00  1.50000000E+00  8.00000000E-01  8.00000000E-01  1.50000000E+00
  1.50000000E+00  8.00000000E-01  8.00000000E-01  1.50000000E+00  1.50000000E+00
  8.00000000E-01  8.00000000E-01  1.50000000E+00  1.50000000E+00  8.00000000E-01
  8.00000000E-01  1.50000000E+00  1.50000000E+00  8.00000000E-01  8.00000000E-01
  1.50000000E+00  1.50000000E+00  8.00000000E-01  8.00000000E-01  1.50000000E+00
  1.50000000E+00  8.00000000E-01  8.00000000E-01  1.50000000E+00  1.50000000E+00
  8.00000000E-01  8.00000000E-01  1.50000000E+00  1.50000000E+00  8.00000000E-01
  8.00000000E-01  1.50000000E+00  1.50000000E+00  8.00000000E-01  8.00000000E-01
  1.50000000E+00  1.50000000E+00  8.00000000E-01  8.00000000E-01  1.50000000E+00
  1.50000000E+00  8.00000000E-01  8.00000000E-01  1.50000000E+00  1.50000000E+00
  8.00000000E-01  8.00000000E-01  1.50000000E+00  1.50000000E+00  8.00000000E-01
  8.00000000E-01  1.50000000E+00  1.50000000E+00  8.00000000E-01  8.00000000E-01
  1.50000000E+00  1.50000000E+00  8.00000000E-01  8.00000000E-01  1.50000000E+00
  1.50000000E+00  8.00000000E-01  8.00000000E-01  1.50000000E+00  1.50000000E+00
  8.00000000E-01  8.00000000E-01  1.50000000E+00  1.50000000E+00  8.00000000E-01
  8.00000000E-01  1.50000000E+00  1.50000000E+00  8.00000000E-01  8.00000000E-01
  1.50000000E+00  1.50000000E+00  8.00000000E-01  8.00000000E-01  1.50000000E+00
  1.50000000E+00  8.00000000E-01  8.00000000E-01  1.50000000E+00  1.50000000E+00
  8.00000000E-01  8.00000000E-01  1.50000000E+00  1.50000000E+00  8.00000000E-01
  8.00000000E-01  1.50000000E+00  1.50000000E+00  8.00000000E-01  8.00000000E-01
  1.50000000E+00  1.50000000E+00  8.00000000E-01  8.00000000E-01  1.50000000E+00
  1.50000000E+00  8.00000000E-01  8.00000000E-01  1.50000000E+00  1.50000000E+00
  8.00000000E-01  8.00000000E-01  1.50000000E+00  1.50000000E+00  8.00000000E-01
  8.00000000E-01  1.50000000E+00  1.50000000E+00  8.00000000E-01  8.00000000E-01
  1.50000000E+00  1.50000000E+00  8.00000000E-01  8.00000000E-01  1.50000000E+00
  1.50000000E+00  8.00000000E-01  8.00000000E-01  1.50000000E+00  1.50000000E+00
  8.00000000E-01  8.00000000E-01  1.50000000E+00  1.50000000E+00  8.00000000E-01
  8.00000000E-01  1.50000000E+00  1.50000000E+00  8.00000000E-01  8.00000000E-01
  1.50000000E+00  1.50000000E+00  8.00000000E-01  8.00000000E-01  1.50000000E+00
  1.50000000E+00  8.00000000E-01  8.00000000E-01  1.50000000E+00  1.50000000E+00
  8.00000000E-01  8.00000000E-01  1.50000000E+00  1.50000000E+00  8.00000000E-01
  8.00000000E-01  1.50000000E+00  1.50000000E+00  8.00000000E-01  8.00000000E-01
  1.50000000E+00  1.50000000E+00  8.00000000E-01  8.00000000E-01  1.50000000E+00
  1.50000000E+00  8.00000000E-01  8.00000000E-01  1.50000000E+00  1.50000000E+00
  8.00000000E-01  8.00000000E-01  1.50000000E+00  1.50000000E+00  8.00000000E-01
  8.00000000E-01  1.50000000E+00  1.50000000E+00  8.00000000E-01  8.00000000E-01
  1.50000000E+00  1.50000000E+00  8.00000000E-01  8.00000000E-01  1.50000000E+00
  1.50000000E+00  8.00000000E-01  8.00000000E-01  1.50000000E+00  1.50000000E+00
  8.00000000E-01  8.00000000E-01  1.50000000E+00  1.50000000E+00  8.00000000E-01
  8.00000000E-01  1.50000000E+00  1.50000000E+00  8.00000000E-01  8.00000000E-01
  1.50000000E+00  1.50000000E+00  8.00000000E-01  8.00000000E-01  1.50000000E+00
  1.50000000E+00  8.00000000E-01  8.00000000E-01  1.50000000E+00  1.50000000E+00
  8.00000000E-01  8.00000000E-01  1.50000000E+00  1.50000000E+00  8.00000000E-01
  8.00000000E-01  1.50000000E+00  1.50000000E+00  8.00000000E-01  8.00000000E-01
  1.50000000E+00  1.50000000E+00  8.00000000E-01  8.00000000E-01  1.50000000E+00
  1.50000000E+00  8.00000000E-01  8.00000000E-01  1.50000000E+00  1.50000000E+00
  8.00000000E-01  8.00000000E-01  1.50000000E+00  1.50000000E+00  8.00000000E-01
  8.00000000E-01  1.50000000E+00  1.50000000E+00  8.00000000E-01  8.00000000E-01
  1.50000000E+00  1.50000000E+00  8.00000000E-01  8.00000000E-01  1.50000000E+00
  1.50000000E+00  8.00000000E-01  8.00000000E-01  1.50000000E+00  1.50000000E+00
  8.00000000E-01  8.00000000E-01  1.50000000E+00  1.50000000E+00  8.00000000E-01
  8.00000000E-01  1.50000000E+00  1.50000000E+00  8.00000000E-01  8.00000000E-01
  1.50000000E+00  1.50000000E+00  8.00000000E-01  8.00000000E-01  1.50000000E+00
  1.50000000E+00  8.00000000E-01  8.00000000E-01  1.50000000E+00  1.50000000E+00
  8.00000000E-01  8.00000000E-01  1.50000000E+00  1.50000000E+00  8.00000000E-01
  8.00000000E-01  1.50000000E+00  1.50000000E+00  8.00000000E-01  8.00000000E-01
  1.50000000E+00  1.50000000E+00  8.00000000E-01  8.00000000E-01  1.50000000E+00
  1.50000000E+00  8.00000000E-01  8.00000000E-01  1.50000000E+00  1.50000000E+00
  8.00000000E-01  8.00000000E-01  1.50000000E+00  1.50000000E+00  8.00000000E-01
  8.00000000E-01  1.50000000E+00  1.50000000E+00  8.00000000E-01  8.00000000E-01
  1.50000000E+00  1.50000000E+00  8.00000000E-01  8.00000000E-01  1.50000000E+00
  1.50000000E+00  8.00000000E-01  8.00000000E-01  1.50000000E+00  1.50000000E+00
  8.00000000E-01  8.00000000E-01  1.50000000E+00  1.50000000E+00  8.00000000E-01
  8.00000000E-01  1.50000000E+00  1.50000000E+00  8.00000000E-01  8.00000000E-01
  1.50000000E+00  1.50000000E+00  8.00000000E-01  8.00000000E-01  1.50000000E+00
  1.50000000E+00  8.00000000E-01  8.00000000E-01  1.50000000E+00  1.50000000E+00
  8.00000000E-01  8.00000000E-01  1.50000000E+00  1.50000000E+00  8.00000000E-01
  8.00000000E-01  1.50000000E+00  1.50000000E+00  8.00000000E-01  8.00000000E-01
  1.50000000E+00  1.50000000E+00  8.00000000E-01  8.00000000E-01  1.50000000E+00
  1.50000000E+00  8.00000000E-01  8.00000000E-01  1.50000000E+00  1.50000000E+00
  8.00000000E-01  8.00000000E-01  1.50000000E+00  1.50000000E+00  8.00000000E-01
  8.00000000E-01  1.50000000E+00  1.50000000E+00  8.00000000E-01  8.00000000E-01
  1.50000000E+00  1.50000000E+00  8.00000000E-01  8.00000000E-01  1.50000000E+00
  1.50000000E+00  8.00000000E-01  8.00000000E-01  1.50000000E+00  1.50000000E+00
  8.00000000E-01  8.00000000E-01  1.50000000E+00  1.50000000E+00  8.00000000E-01
  8.00000000E-01  1.50000000E+00  1.50000000E+00  8.00000000E-01  8.00000000E-01
  1.50000000E+00  1.50000000E+00  8.00000000E-01  8.00000000E-01  1.50000000E+00
  1.50000000E+00  8.00000000E-01  8.00000000E-01  1.50000000E+00  1.50000000E+00
  8.00000000E-01  8.00000000E-01  1.50000000E+00  1.50000000E+00  8.00000000E-01
  8.00000000E-01  1.50000000E+00  1.50000000E+00  8.00000000E-01  8.00000000E-01
  1.50000000E+00  1.50000000E+00  8.00000000E-01  8.00000000E-01  1.50000000E+00
  1.50000000E+00  8.00000000E-01  8.00000000E-01  1.50000000E+00  1.50000000E+00
  8.00000000E-01  8.00000000E-01  1.50000000E+00  1.50000000E+00  8.00000000E-01
  8.00000000E-01  1.50000000E+00  1.50000000E+00  8.00000000E-01  8.00000000E-01
  1.50000000E+00  1.50000000E+00  8.00000000E-01  8.00000000E-01  1.50000000E+00
  1.50000000E+00  8.00000000E-01  8.00000000E-01  1.50000000E+00  1.50000000E+00
  8.00000000E-01  8.00000000E-01  1.50000000E+00  1.50000000E+00  8.00000000E-01
  8.00000000E-01  1.50000000E+00  1.50000000E+00  8.00000000E-01  8.00000000E-01
  1.50000000E+00  1.50000000E+00  8.00000000E-01  8.00000000E-01  1.50000000E+00
  1.50000000E+00  8.00000000E-01  8.00000000E-01  1.50000000E+00  1.50000000E+00
  8.00000000E-01  8.00000000E-01  1.50000000E+00  1.50000000E+00  8.00000000E-01
  8.00000000E-01  1.50000000E+00  1.50000000E+00  8.00000000E-01  8.00000000E-01
  1.50000000E+00  1.50000000E+00  8.00000000E-01  8.00000000E-01  1.50000000E+00
  1.50000000E+00  8.00000000E-01  8.00000000E-01  1.50000000E+00  1.50000000E+00
  8.00000000E-01  8.00000000E-01  1.50000000E+00  1.50000000E+00  8.00000000E-01
  8.00000000E-01  1.50000000E+00  1.50000000E+00  8.00000000E-01  8.00000000E-01
  1.50000000E+00  1.50000000E+00  8.00000000E-01  8.00000000E-01  1.50000000E+00
  1.50000000E+00  8.00000000E-01  8.00000000E-01  1.50000000E+00  1.50000000E+00
  8.00000000E-01  8.00000000E-01  1.50000000E+00  1.50000000E+00  8.00000000E-01
  8.00000000E-01  1.50000000E+00  1.50000000E+00  8.00000000E-01  8.00000000E-01
  1.50000000E+00  1.50000000E+00  8.00000000E-01  8.00000000E-01  1.50000000E+00
  1.50000000E+00  8.00000000E-01  8.00000000E-01  1.50000000E+00  1.50000000E+00
  8.00000000E-01  8.00000000E-01  1.50000000E+00  1.50000000E+00  8.00000000E-01
  8.00000000E-01  1.50000000E+00  1.50000000E+00  8.00000000E-01  8.00000000E-01
  1.50000000E+00  1.50000000E+00  8.00000000E-01  8.00000000E-01  1.50000000E+00
  1.50000000E+00  8.00000000E-01  8.00000000E-01  1.50000000E+00  1.50000000E+00
  8.00000000E-01  8.00000000E-01  1.50000000E+00  1.50000000E+00  8.00000000E-01
  8.00000000E-01  1.50000000E+00  1.50000000E+00  8.00000000E-01  8.00000000E-01
  1.50000000E+00  1.50000000E+00  8.00000000E-01  8.00000000E-01  1.50000000E+00
  1.50000000E+00  8.00000000E-01  8.00000000E-01  1.50000000E+00  1.50000000E+00
  8.00000000E-01  8.00000000E-01  1.50000000E+00  1.50000000E+00  8.00000000E-01
  8.00000000E-01  1.50000000E+00  1.50000000E+00  8.00000000E-01  8.00000000E-01
  1.50000000E+00  1.50000000E+00  8.00000000E-01  8.00000000E-01  1.50000000E+00
  1.50000000E+00  8.00000000E-01  8.00000000E-01  1.50000000E+00  1.50000000E+00
  8.00000000E-01  8.00000000E-01  1.50000000E+00  1.50000000E+00  8.00000000E-01
  8.00000000E-01  1.50000000E+00  1.50000000E+00  8.00000000E-01  8.00000000E-01
  1.50000000E+00  1.50000000E+00  8.00000000E-01  8.00000000E-01  1.50000000E+00
  1.50000000E+00  8.00000000E-01  8.00000000E-01  1.50000000E+00  1.50000000E+00
  8.00000000E-01  8.00000000E-01  1.50000000E+00  1.50000000E+00  8.00000000E-01
  8.00000000E-01  1.50000000E+00  1.50000000E+00  8.00000000E-01  8.00000000E-01
  1.50000000E+00  1.50000000E+00  8.00000000E-01  8.00000000E-01  1.50000000E+00
  1.50000000E+00  8.00000000E-01  8.00000000E-01  1.50000000E+00  1.50000000E+00
  8.00000000E-01  8.00000000E-01  1.50000000E+00  1.50000000E+00  8.00000000E-01
  8.00000000E-01  1.50000000E+00  1.50000000E+00  8.00000000E-01  8.00000000E-01
  1.50000000E+00  1.50000000E+00  8.00000000E-01  8.00000000E-01  1.50000000E+00
  1.50000000E+00  8.00000000E-01  8.00000000E-01  1.50000000E+00  1.50000000E+00
  8.00000000E-01  8.00000000E-01  1.50000000E+00  1.50000000E+00  8.00000000E-01
  8.00000000E-01  1.50000000E+00  1.50000000E+00  8.00000000E-01  8.00000000E-01
  1.50000000E+00  1.50000000E+00  8.00000000E-01  8.00000000E-01  1.50000000E+00
  1.50000000E+00  8.00000000E-01  8.00000000E-01  1.50000000E+00  1.50000000E+00
  8.00000000E-01  8.00000000E-01  1.50000000E+00  1.50000000E+00  8.00000000E-01
  8.00000000E-01  1.50000000E+00  1.50000000E+00  8.00000000E-01  8.00000000E-01
  1.50000000E+00  1.50000000E+00  8.00000000E-01  8.00000000E-01  1.50000000E+00
  1.50000000E+00  8.00000000E-01  8.00000000E-01  1.50000000E+00  1.50000000E+00
  8.00000000E-01  8.00000000E-01  1.50000000E+00  1.50000000E+00  8.00000000E-01
  8.00000000E-01  1.50000000E+00  1.50000000E+00  8.00000000E-01  8.00000000E-01
  1.50000000E+00  1.50000000E+00  8.00000000E-01  8.00000000E-01  1.50000000E+00
  1.50000000E+00  8.00000000E-01  8.00000000E-01  1.50000000E+00  1.50000000E+00
  8.00000000E-01  8.00000000E-01  1.50000000E+00  1.50000000E+00  8.00000000E-01
  8.00000000E-01  1.50000000E+00  1.50000000E+00  8.00000000E-01  8.00000000E-01
  1.50000000E+00  1.50000000E+00  8.00000000E-01  8.00000000E-01  1.50000000E+00
  1.50000000E+00  8.00000000E-01  8.00000000E-01  1.50000000E+00  1.50000000E+00
  8.00000000E-01  8.00000000E-01  1.50000000E+00  1.50000000E+00  8.00000000E-01
  8.00000000E-01  1.50000000E+00  1.50000000E+00  8.00000000E-01  8.00000000E-01
  1.50000000E+00  1.50000000E+00  8.00000000E-01  8.00000000E-01  1.50000000E+00
  1.50000000E+00  8.00000000E-01  8.00000000E-01  1.50000000E+00  1.50000000E+00
  8.00000000E-01  8.00000000E-01  1.50000000E+00  1.50000000E+00  8.00000000E-01
  8.00000000E-01  1.50000000E+00  1.50000000E+00  8.00000000E-01  8.00000000E-01
  1.50000000E+00  1.50000000E+00  8.00000000E-01  8.00000000E-01  1.50000000E+00
  1.50000000E+00  8.00000000E-01  8.00000000E-01  1.50000000E+00  1.50000000E+00
  8.00000000E-01  8.00000000E-01  1.50000000E+00  1.50000000E+00  8.00000000E-01
  8.00000000E-01  1.50000000E+00  1.50000000E+00  8.00000000E-01  8.00000000E-01
  1.50000000E+00  1.50000000E+00  8.00000000E-01  8.00000000E-01  1.50000000E+00
  1.50000000E+00  8.00000000E-01  8.00000000E-01  1.50000000E+00  1.50000000E+00
  8.00000000E-01  8.00000000E-01  1.50000000E+00  1.50000000E+00  8.00000000E-01
  8.00000000E-01  1.50000000E+00  1.50000000E+00  8.00000000E-01  8.00000000E-01
  1.50000000E+00  1.50000000E+00  8.00000000E-01  8.00000000E-01  1.50000000E+00
  1.50000000E+00  8.00000000E-01  8.00000000E-01  1.50000000E+00  1.50000000E+00
  8.00000000E-01  8.00000000E-01  1.50000000E+00  1.50000000E+00  8.00000000E-01
  8.00000000E-01  1.50000000E+00  1.50000000E+00  8.00000000E-01  8.00000000E-01
  1.50000000E+00  1.50000000E+00  8.00000000E-01  8.00000000E-01  1.50000000E+00
  1.50000000E+00  8.00000000E-01  8.00000000E-01  1.50000000E+00  1.50000000E+00
  8.00000000E-01  8.00000000E-01  1.50000000E+00  1.50000000E+00  8.00000000E-01
  8.00000000E-01  1.50000000E+00  1.50000000E+00  8.00000000E-01  8.00000000E-01
  1.50000000E+00  1.50000000E+00  8.00000000E-01  8.00000000E-01  1.50000000E+00
  1.50000000E+00  8.00000000E-01  8.00000000E-01  1.50000000E+00  1.50000000E+00
  8.00000000E-01  8.00000000E-01  1.50000000E+00  1.50000000E+00  8.00000000E-01
  8.00000000E-01  1.50000000E+00  1.50000000E+00  8.00000000E-01  8.00000000E-01
  1.50000000E+00  1.50000000E+00  8.00000000E-01  8.00000000E-01  1.50000000E+00
  1.50000000E+00  8.00000000E-01  8.00000000E-01  1.50000000E+00  1.50000000E+00
  8.00000000E-01  8.00000000E-01  1.50000000E+00  1.50000000E+00  8.00000000E-01
  8.00000000E-01  1.50000000E+00  1.50000000E+00  8.00000000E-01  8.00000000E-01
  1.50000000E+00  1.50000000E+00  8.00000000E-01  8.00000000E-01  1.50000000E+00
  1.50000000E+00  8.00000000E-01  8.00000000E-01  1.50000000E+00  1.50000000E+00
  8.00000000E-01  8.00000000E-01  1.50000000E+00  1.50000000E+00  8.00000000E-01
  8.00000000E-01  1.50000000E+00  1.50000000E+00  8.00000000E-01  8.00000000E-01
  1.50000000E+00  1.50000000E+00  8.00000000E-01  8.00000000E-01  1.50000000E+00
  1.50000000E+00  8.00000000E-01  8.00000000E-01  1.50000000E+00  1.50000000E+00
  8.00000000E-01  8.00000000E-01  1.50000000E+00  1.50000000E+00  8.00000000E-01
  8.00000000E-01  1.50000000E+00  1.50000000E+00  8.00000000E-01  8.00000000E-01
  1.50000000E+00  1.50000000E+00  8.00000000E-01  8.00000000E-01  1.50000000E+00
  1.50000000E+00  8.00000000E-01  8.00000000E-01  1.50000000E+00  1.50000000E+00
  8.00000000E-01  8.00000000E-01  1.50000000E+00  1.50000000E+00  8.00000000E-01
  8.00000000E-01  1.50000000E+00  1.50000000E+00  8.00000000E-01  8.00000000E-01
  1.50000000E+00  1.50000000E+00  8.00000000E-01  8.00000000E-01  1.50000000E+00
  1.50000000E+00  8.00000000E-01  8.00000000E-01  1.50000000E+00  1.50000000E+00
  8.00000000E-01  8.00000000E-01  1.50000000E+00  1.50000000E+00  8.00000000E-01
  8.00000000E-01  1.50000000E+00  1.50000000E+00  8.00000000E-01  8.00000000E-01
  1.50000000E+00  1.50000000E+00  8.00000000E-01  8.00000000E-01  1.50000000E+00
  1.50000000E+00  8.00000000E-01  8.00000000E-01  1.50000000E+00  1.50000000E+00
  8.00000000E-01  8.00000000E-01  1.50000000E+00  1.50000000E+00  8.00000000E-01
  8.00000000E-01  1.50000000E+00  1.50000000E+00  8.00000000E-01  8.00000000E-01
  1.50000000E+00  1.50000000E+00  8.00000000E-01  8.00000000E-01  1.50000000E+00
  1.50000000E+00  8.00000000E-01  8.00000000E-01  1.50000000E+00  1.50000000E+00
  8.00000000E-01  8.00000000E-01  1.50000000E+00  1.50000000E+00  8.00000000E-01
  8.00000000E-01  1.50000000E+00  1.50000000E+00  8.00000000E-01  8.00000000E-01
  1.50000000E+00  1.50000000E+00  8.00000000E-01  8.00000000E-01  1.50000000E+00
  1.50000000E+00  8.00000000E-01  8.00000000E-01  1.50000000E+00  1.50000000E+00
  8.00000000E-01  8.00000000E-01  1.50000000E+00  1.50000000E+00  8.00000000E-01
  8.00000000E-01  1.50000000E+00  1.50000000E+00  8.00000000E-01  8.00000000E-01
  1.50000000E+00  1.50000000E+00  8.00000000E-01  8.00000000E-01  1.50000000E+00
  1.50000000E+00  8.00000000E-01  8.00000000E-01  1.50000000E+00  1.50000000E+00
  8.00000000E-01  8.00000000E-01  1.50000000E+00  1.50000000E+00  8.00000000E-01
  8.00000000E-01  1.50000000E+00  1.50000000E+00  8.00000000E-01  8.00000000E-01
  1.50000000E+00  1.50000000E+00  8.00000000E-01  8.00000000E-01  1.50000000E+00
  1.50000000E+00  8.00000000E-01  8.00000000E-01  1.50000000E+00  1.50000000E+00
  8.00000000E-01  8.00000000E-01  1.50000000E+00  1.50000000E+00  8.00000000E-01
  8.00000000E-01  1.50000000E+00  1.50000000E+00  8.00000000E-01  8.00000000E-01
  1.50000000E+00  1.50000000E+00  8.00000000E-01  8.00000000E-01  1.50000000E+00
  1.50000000E+00  8.00000000E-01  8.00000000E-01  1.50000000E+00  1.50000000E+00
  8.00000000E-01  8.00000000E-01  1.50000000E+00  1.50000000E+00  8.00000000E-01
  8.00000000E-01  1.50000000E+00  1.50000000E+00  8.00000000E-01  8.00000000E-01
  1.50000000E+00  1.50000000E+00  8.00000000E-01  8.00000000E-01  1.50000000E+00
  1.50000000E+00  8.00000000E-01  8.00000000E-01  1.50000000E+00  1.50000000E+00
  8.00000000E-01  8.00000000E-01  1.50000000E+00  1.50000000E+00  8.00000000E-01
  8.00000000E-01  1.50000000E+00  1.50000000E+00  8.00000000E-01  8.00000000E-01
  1.50000000E+00  1.50000000E+00  8.00000000E-01  8.00000000E-01  1.50000000E+00
  1.50000000E+00  8.00000000E-01  8.00000000E-01  1.50000000E+00  1.50000000E+00
  8.00000000E-01  8.00000000E-01  1.50000000E+00  1.50000000E+00  8.00000000E-01
  8.00000000E-01  1.50000000E+00  1.50000000E+00  8.00000000E-01  8.00000000E-01
  1.50000000E+00  1.50000000E+00  8.00000000E-01  8.00000000E-01  1.50000000E+00
  1.50000000E+00  8.00000000E-01  8.00000000E-01  1.50000000E+00  1.50000000E+00
  8.00000000E-01  8.00000000E-01  1.50000000E+00  1.50000000E+00  8.00000000E-01
  8.00000000E-01  1.50000000E+00  1.50000000E+00  8.00000000E-01  8.00000000E-01
  1.50000000E+00  1.50000000E+00  8.00000000E-01  8.00000000E-01  1.50000000E+00
  1.50000000E+00  8.00000000E-01  8.00000000E-01  1.50000000E+00  1.50000000E+00
  8.00000000E-01  8.00000000E-01  1.50000000E+00  1.50000000E+00  8.00000000E-01
  8.00000000E-01  1.50000000E+00  1.50000000E+00  8.00000000E-01  8.00000000E-01
  1.50000000E+00  1.50000000E+00  8.00000000E-01  8.00000000E-01  1.50000000E+00
  1.50000000E+00  8.00000000E-01  8.00000000E-01  1.50000000E+00  1.50000000E+00
  8.00000000E-01  8.00000000E-01  1.50000000E+00  1.50000000E+00  8.00000000E-01
  8.00000000E-01  1.50000000E+00  1.50000000E+00  8.00000000E-01  8.00000000E-01
  1.50000000E+00  1.50000000E+00  8.00000000E-01  8.00000000E-01  1.50000000E+00
  1.50000000E+00  8.00000000E-01  8.00000000E-01  1.50000000E+00  1.50000000E+00
  8.00000000E-01  8.00000000E-01  1.50000000E+00  1.50000000E+00  8.00000000E-01
  8.00000000E-01  1.50000000E+00  1.50000000E+00  8.00000000E-01  8.00000000E-01
  1.50000000E+00  1.50000000E+00  8.00000000E-01  8.00000000E-01  1.50000000E+00
  1.50000000E+00  8.00000000E-01  8.00000000E-01  1.50000000E+00  1.50000000E+00
  8.00000000E-01  8.00000000E-01  1.50000000E+00  1.50000000E+00  8.00000000E-01
  8.00000000E-01  1.50000000E+00  1.50000000E+00  8.00000000E-01  8.00000000E-01
  1.50000000E+00  1.50000000E+00  8.00000000E-01  8.00000000E-01  1.50000000E+00
  1.50000000E+00  8.00000000E-01  8.00000000E-01  1.50000000E+00  1.50000000E+00
  8.00000000E-01  8.00000000E-01  1.50000000E+00  1.50000000E+00  8.00000000E-01
  8.00000000E-01  1.50000000E+00  1.50000000E+00  8.00000000E-01  8.00000000E-01
  1.50000000E+00  1.50000000E+00  8.00000000E-01  8.00000000E-01  1.50000000E+00
  1.50000000E+00  8.00000000E-01  8.00000000E-01  1.50000000E+00  1.50000000E+00
  8.00000000E-01  8.00000000E-01  1.50000000E+00  1.50000000E+00  8.00000000E-01
  8.00000000E-01  1.50000000E+00  1.50000000E+00  8.00000000E-01  8.00000000E-01
  1.50000000E+00  1.50000000E+00  8.00000000E-01  8.00000000E-01  1.50000000E+00
  1.50000000E+00  8.00000000E-01  8.00000000E-01  1.50000000E+00  1.50000000E+00
  8.00000000E-01  8.00000000E-01  1.50000000E+00  1.50000000E+00  8.00000000E-01
  8.00000000E-01  1.50000000E+00  1.50000000E+00  8.00000000E-01  8.00000000E-01
  1.50000000E+00  1.50000000E+00  8.00000000E-01  8.00000000E-01  1.50000000E+00
  1.50000000E+00  8.00000000E-01  8.00000000E-01  1.50000000E+00  1.50000000E+00
  8.00000000E-01  8.00000000E-01  1.50000000E+00  1.50000000E+00  8.00000000E-01
  8.00000000E-01  1.50000000E+00  1.50000000E+00  8.00000000E-01  8.00000000E-01
  1.50000000E+00  1.50000000E+00  8.00000000E-01  8.00000000E-01  1.50000000E+00
  1.50000000E+00  8.00000000E-01  8.00000000E-01  1.50000000E+00  1.50000000E+00
  8.00000000E-01  8.00000000E-01  1.50000000E+00  1.50000000E+00  8.00000000E-01
  8.00000000E-01  1.50000000E+00  1.50000000E+00  8.00000000E-01  8.00000000E-01
  1.50000000E+00  1.50000000E+00  8.00000000E-01  8.00000000E-01  1.50000000E+00
  1.50000000E+00  8.00000000E-01  8.00000000E-01  1.50000000E+00  1.50000000E+00
  8.00000000E-01  8.00000000E-01  1.50000000E+00  1.50000000E+00  8.00000000E-01
  8.00000000E-01  1.50000000E+00  1.50000000E+00  8.00000000E-01  8.00000000E-01
  1.50000000E+00  1.50000000E+00  8.00000000E-01  8.00000000E-01  1.50000000E+00
  1.50000000E+00  8.00000000E-01  8.00000000E-01  1.50000000E+00  1.50000000E+00
  8.00000000E-01  8.00000000E-01  1.50000000E+00  1.50000000E+00  8.00000000E-01
  8.00000000E-01  1.50000000E+00  1.50000000E+00  8.00000000E-01  8.00000000E-01
  1.50000000E+00  1.50000000E+00  8.00000000E-01  8.00000000E-01  1.50000000E+00
  1.50000000E+00  8.00000000E-01  8.00000000E-01  1.50000000E+00  1.50000000E+00
  8.00000000E-01  8.00000000E-01  1.50000000E+00  1.50000000E+00  8.00000000E-01
  8.00000000E-01  1.50000000E+00  1.50000000E+00  8.00000000E-01  8.00000000E-01
  1.50000000E+00  1.50000000E+00  8.00000000E-01  8.00000000E-01  1.50000000E+00
  1.50000000E+00  8.00000000E-01  8.00000000E-01  1.50000000E+00  1.50000000E+00
  8.00000000E-01  8.00000000E-01  1.50000000E+00  1.50000000E+00  8.00000000E-01
  8.00000000E-01  1.50000000E+00  1.50000000E+00  8.00000000E-01  8.00000000E-01
  1.50000000E+00  1.50000000E+00  8.00000000E-01  8.00000000E-01  1.50000000E+00
  1.50000000E+00  8.00000000E-01  8.00000000E-01  1.50000000E+00  1.50000000E+00
  8.00000000E-01  8.00000000E-01  1.50000000E+00  1.50000000E+00  8.00000000E-01
  8.00000000E-01  1.50000000E+00  1.50000000E+00  8.00000000E-01  8.00000000E-01
  1.50000000E+00  1.50000000E+00  8.00000000E-01  8.00000000E-01  1.50000000E+00
  1.50000000E+00  8.00000000E-01  8.00000000E-01  1.50000000E+00  1.50000000E+00
  8.00000000E-01  8.00000000E-01  1.50000000E+00  1.50000000E+00  8.00000000E-01
  8.00000000E-01  1.50000000E+00  1.50000000E+00  8.00000000E-01  8.00000000E-01
  1.50000000E+00  1.50000000E+00  8.00000000E-01  8.00000000E-01  1.50000000E+00
  1.50000000E+00  8.00000000E-01  8.00000000E-01  1.50000000E+00  1.50000000E+00
  8.00000000E-01  8.00000000E-01  1.50000000E+00  1.50000000E+00  8.00000000E-01
  8.00000000E-01  1.50000000E+00  1.50000000E+00  8.00000000E-01  8.00000000E-01
  1.50000000E+00  1.50000000E+00  8.00000000E-01  8.00000000E-01  1.50000000E+00
  1.50000000E+00  8.00000000E-01  8.00000000E-01  1.50000000E+00  1.50000000E+00
  8.00000000E-01  8.00000000E-01  1.50000000E+00  1.50000000E+00  8.00000000E-01
  8.00000000E-01  1.50000000E+00  1.50000000E+00  8.00000000E-01  8.00000000E-01
  1.50000000E+00  1.50000000E+00  8.00000000E-01  8.00000000E-01  1.50000000E+00
  1.50000000E+00  8.00000000E-01  8.00000000E-01  1.50000000E+00  1.50000000E+00
  8.00000000E-01  8.00000000E-01  1.50000000E+00  1.50000000E+00  8.00000000E-01
  8.00000000E-01  1.50000000E+00  1.50000000E+00  8.00000000E-01  8.00000000E-01
  1.50000000E+00  1.50000000E+00  8.00000000E-01  8.00000000E-01  1.50000000E+00
  1.50000000E+00  8.00000000E-01  8.00000000E-01  1.50000000E+00  1.50000000E+00
  8.00000000E-01  8.00000000E-01  1.50000000E+00  1.50000000E+00  8.00000000E-01
  8.00000000E-01  1.50000000E+00  1.50000000E+00  8.00000000E-01  8.00000000E-01
  1.50000000E+00  1.50000000E+00  8.00000000E-01  8.00000000E-01  1.50000000E+00
  1.50000000E+00  8.00000000E-01  8.00000000E-01  1.50000000E+00  1.50000000E+00
  8.00000000E-01  8.00000000E-01  1.50000000E+00  1.50000000E+00  8.00000000E-01
  8.00000000E-01  1.50000000E+00  1.50000000E+00  8.00000000E-01  8.00000000E-01
  1.50000000E+00  1.50000000E+00  8.00000000E-01  8.00000000E-01  1.50000000E+00
  1.50000000E+00  8.00000000E-01  8.00000000E-01  1.50000000E+00  1.50000000E+00
  8.00000000E-01  8.00000000E-01  1.50000000E+00  1.50000000E+00  8.00000000E-01
  8.00000000E-01  1.50000000E+00  1.50000000E+00  8.00000000E-01  8.00000000E-01
  1.50000000E+00  1.50000000E+00  8.00000000E-01  8.00000000E-01  1.50000000E+00
  1.50000000E+00  8.00000000E-01  8.00000000E-01  1.50000000E+00  1.50000000E+00
  8.00000000E-01  8.00000000E-01  1.50000000E+00  1.50000000E+00  8.00000000E-01
  8.00000000E-01  1.50000000E+00  1.50000000E+00  8.00000000E-01  8.00000000E-01
  1.50000000E+00  1.50000000E+00  8.00000000E-01  8.00000000E-01  1.50000000E+00
  1.50000000E+00  8.00000000E-01  8.00000000E-01  1.50000000E+00  1.50000000E+00
  8.00000000E-01  8.00000000E-01  1.50000000E+00  1.50000000E+00  8.00000000E-01
  8.00000000E-01  1.50000000E+00  1.50000000E+00  8.00000000E-01  8.00000000E-01
  1.50000000E+00  1.50000000E+00  8.00000000E-01  8.00000000E-01  1.50000000E+00
  1.50000000E+00  8.00000000E-01  8.00000000E-01  1.50000000E+00  1.50000000E+00
  8.00000000E-01  8.00000000E-01  1.50000000E+00  1.50000000E+00  8.00000000E-01
  8.00000000E-01  1.50000000E+00  1.50000000E+00  8.00000000E-01  8.00000000E-01
  1.50000000E+00  1.50000000E+00  8.00000000E-01  8.00000000E-01  1.50000000E+00
  1.50000000E+00  8.00000000E-01  8.00000000E-01  1.50000000E+00  1.50000000E+00
  8.00000000E-01  8.00000000E-01  1.50000000E+00  1.50000000E+00  8.00000000E-01
  8.00000000E-01  1.50000000E+00  1.50000000E+00  8.00000000E-01  8.00000000E-01
  1.50000000E+00  1.50000000E+00  8.00000000E-01  8.00000000E-01  1.50000000E+00
  1.50000000E+00  8.00000000E-01  8.00000000E-01  1.50000000E+00  1.50000000E+00
  8.00000000E-01  8.00000000E-01  1.50000000E+00  1.50000000E+00  8.00000000E-01
  8.00000000E-01  1.50000000E+00  1.50000000E+00  8.00000000E-01  8.00000000E-01
  1.50000000E+00  1.50000000E+00  8.00000000E-01  8.00000000E-01  1.50000000E+00
  1.50000000E+00  8.00000000E-01  8.00000000E-01  1.50000000E+00  1.50000000E+00
  8.00000000E-01  8.00000000E-01  1.50000000E+00  1.50000000E+00  8.00000000E-01
  8.00000000E-01  1.50000000E+00  1.50000000E+00  8.00000000E-01  8.00000000E-01
  1.50000000E+00  1.50000000E+00  8.00000000E-01  8.00000000E-01  1.50000000E+00
  1.50000000E+00  8.00000000E-01  8.00000000E-01  1.50000000E+00  1.50000000E+00
  8.00000000E-01  8.00000000E-01  1.50000000E+00  1.50000000E+00  8.00000000E-01
  8.00000000E-01  1.50000000E+00  1.50000000E+00  8.00000000E-01  8.00000000E-01
  1.50000000E+00  1.50000000E+00  8.00000000E-01  8.00000000E-01  1.50000000E+00
  1.50000000E+00  8.00000000E-01  8.00000000E-01  1.50000000E+00  1.50000000E+00
  8.00000000E-01  8.00000000E-01  1.50000000E+00  1.50000000E+00  8.00000000E-01
  8.00000000E-01  1.50000000E+00  1.50000000E+00  8.00000000E-01  8.00000000E-01
  1.50000000E+00  1.50000000E+00  8.00000000E-01  8.00000000E-01  1.50000000E+00
  1.50000000E+00  8.00000000E-01  8.00000000E-01  1.50000000E+00  1.50000000E+00
  8.00000000E-01  8.00000000E-01  1.50000000E+00  1.50000000E+00  8.00000000E-01
  8.00000000E-01  1.50000000E+00  1.50000000E+00  8.00000000E-01  8.00000000E-01
  1.50000000E+00  1.50000000E+00  8.00000000E-01  8.00000000E-01  1.50000000E+00
  1.50000000E+00  8.00000000E-01  8.00000000E-01  1.50000000E+00  1.50000000E+00
  8.00000000E-01  8.00000000E-01  1.50000000E+00  1.50000000E+00  8.00000000E-01
  8.00000000E-01  1.50000000E+00  1.50000000E+00  8.00000000E-01  8.00000000E-01
  1.50000000E+00  1.50000000E+00  8.00000000E-01  8.00000000E-01  1.50000000E+00
  1.50000000E+00  8.00000000E-01  8.00000000E-01  1.50000000E+00  1.50000000E+00
  8.00000000E-01  8.00000000E-01  1.50000000E+00  1.50000000E+00  8.00000000E-01
  8.00000000E-01  1.50000000E+00  1.50000000E+00  8.00000000E-01  8.00000000E-01
  1.50000000E+00  1.50000000E+00  8.00000000E-01  8.00000000E-01  1.50000000E+00
  1.50000000E+00  8.00000000E-01  8.00000000E-01  1.50000000E+00  1.50000000E+00
  8.00000000E-01  8.00000000E-01  1.50000000E+00  1.50000000E+00  8.00000000E-01
  8.00000000E-01  1.50000000E+00  1.50000000E+00  8.00000000E-01  8.00000000E-01
  1.50000000E+00  1.50000000E+00  8.00000000E-01  8.00000000E-01  1.50000000E+00
  1.50000000E+00  8.00000000E-01  8.00000000E-01  1.50000000E+00  1.50000000E+00
  8.00000000E-01  8.00000000E-01  1.50000000E+00  1.50000000E+00  8.00000000E-01
  8.00000000E-01  1.50000000E+00  1.50000000E+00  8.00000000E-01  8.00000000E-01
  1.50000000E+00  1.50000000E+00  8.00000000E-01  8.00000000E-01  1.50000000E+00
  1.50000000E+00  8.00000000E-01  8.00000000E-01  1.50000000E+00  1.50000000E+00
  8.00000000E-01  8.00000000E-01  1.50000000E+00  1.50000000E+00  8.00000000E-01
  8.00000000E-01  1.50000000E+00  1.50000000E+00  8.00000000E-01  8.00000000E-01
  1.50000000E+00  1.50000000E+00  8.00000000E-01  8.00000000E-01  1.50000000E+00
  1.50000000E+00  8.00000000E-01  8.00000000E-01  1.50000000E+00  1.50000000E+00
  8.00000000E-01  8.00000000E-01  1.50000000E+00  1.50000000E+00  8.00000000E-01
  8.00000000E-01  1.50000000E+00  1.50000000E+00  8.00000000E-01  8.00000000E-01
  1.50000000E+00  1.50000000E+00  8.00000000E-01  8.00000000E-01  1.50000000E+00
  1.50000000E+00  8.00000000E-01  8.00000000E-01  1.50000000E+00  1.50000000E+00
  8.00000000E-01  8.00000000E-01  1.50000000E+00  1.50000000E+00  8.00000000E-01
  8.00000000E-01  1.50000000E+00  1.50000000E+00  8.00000000E-01  8.00000000E-01
  1.50000000E+00  1.50000000E+00  8.00000000E-01  8.00000000E-01  1.50000000E+00
  1.50000000E+00  8.00000000E-01  8.00000000E-01  1.50000000E+00  1.50000000E+00
  8.00000000E-01  8.00000000E-01  1.50000000E+00  1.50000000E+00  8.00000000E-01
  8.00000000E-01  1.50000000E+00  1.50000000E+00  8.00000000E-01  8.00000000E-01
  1.50000000E+00  1.50000000E+00  8.00000000E-01  8.00000000E-01  1.50000000E+00
  1.50000000E+00  8.00000000E-01  8.00000000E-01  1.50000000E+00  1.50000000E+00
  8.00000000E-01  8.00000000E-01  1.50000000E+00  1.50000000E+00  8.00000000E-01
  8.00000000E-01  1.50000000E+00  1.50000000E+00  8.00000000E-01  8.00000000E-01
  1.50000000E+00  1.50000000E+00  8.00000000E-01  8.00000000E-01  1.50000000E+00
  1.50000000E+00  8.00000000E-01  8.00000000E-01  1.50000000E+00  1.50000000E+00
  8.00000000E-01  8.00000000E-01  1.50000000E+00  1.50000000E+00  8.00000000E-01
  8.00000000E-01  1.50000000E+00  1.50000000E+00  8.00000000E-01  8.00000000E-01
  1.50000000E+00  1.50000000E+00  8.00000000E-01  8.00000000E-01  1.50000000E+00
  1.50000000E+00  8.00000000E-01  8.00000000E-01  1.50000000E+00  1.50000000E+00
  8.00000000E-01  8.00000000E-01  1.50000000E+00  1.50000000E+00  8.00000000E-01
  8.00000000E-01  1.50000000E+00  1.50000000E+00  8.00000000E-01  8.00000000E-01
  1.50000000E+00  1.50000000E+00  8.00000000E-01  8.00000000E-01  1.50000000E+00
  1.50000000E+00  8.00000000E-01  8.00000000E-01  1.50000000E+00  1.50000000E+00
  8.00000000E-01  8.00000000E-01  1.50000000E+00  1.50000000E+00  8.00000000E-01
  8.00000000E-01  1.50000000E+00  1.50000000E+00  8.00000000E-01  8.00000000E-01
  1.50000000E+00  1.50000000E+00  8.00000000E-01  8.00000000E-01  1.50000000E+00
  1.50000000E+00  8.00000000E-01  8.00000000E-01  1.50000000E+00  1.50000000E+00
  8.00000000E-01  8.00000000E-01  1.50000000E+00  1.50000000E+00  8.00000000E-01
  8.00000000E-01  1.50000000E+00  1.50000000E+00  8.00000000E-01  8.00000000E-01
  1.50000000E+00  1.50000000E+00  8.00000000E-01  8.00000000E-01  1.50000000E+00
  1.50000000E+00  8.00000000E-01  8.00000000E-01  1.50000000E+00  1.50000000E+00
  8.00000000E-01  8.00000000E-01  1.50000000E+00  1.50000000E+00  8.00000000E-01
  8.00000000E-01  1.50000000E+00  1.50000000E+00  8.00000000E-01  8.00000000E-01
  1.50000000E+00  1.50000000E+00  8.00000000E-01  8.00000000E-01  1.50000000E+00
  1.50000000E+00  8.00000000E-01  8.00000000E-01  1.50000000E+00  1.50000000E+00
  8.00000000E-01  8.00000000E-01  1.50000000E+00  1.50000000E+00  8.00000000E-01
  8.00000000E-01  1.50000000E+00  1.50000000E+00  8.00000000E-01  8.00000000E-01
  1.50000000E+00  1.50000000E+00  8.00000000E-01  8.00000000E-01  1.50000000E+00
  1.50000000E+00  8.00000000E-01  8.00000000E-01  1.50000000E+00  1.50000000E+00
  8.00000000E-01  8.00000000E-01  1.50000000E+00  1.50000000E+00  8.00000000E-01
  8.00000000E-01  1.50000000E+00  1.50000000E+00  8.00000000E-01  8.00000000E-01
  1.50000000E+00  1.50000000E+00  8.00000000E-01  8.00000000E-01  1.50000000E+00
  1.50000000E+00  8.00000000E-01  8.00000000E-01  1.50000000E+00  1.50000000E+00
  8.00000000E-01  8.00000000E-01  1.50000000E+00  1.50000000E+00  8.00000000E-01
  8.00000000E-01  1.50000000E+00  1.50000000E+00  8.00000000E-01  8.00000000E-01
  1.50000000E+00  1.50000000E+00  8.00000000E-01  8.00000000E-01  1.50000000E+00
  1.50000000E+00  8.00000000E-01  8.00000000E-01  1.50000000E+00  1.50000000E+00
  8.00000000E-01  8.00000000E-01  1.50000000E+00  1.50000000E+00  8.00000000E-01
  8.00000000E-01  1.50000000E+00  1.50000000E+00  8.00000000E-01  8.00000000E-01
  1.50000000E+00  1.50000000E+00  8.00000000E-01  8.00000000E-01  1.50000000E+00
  1.50000000E+00  8.00000000E-01  8.00000000E-01  1.50000000E+00  1.50000000E+00
  8.00000000E-01  8.00000000E-01  1.50000000E+00  1.50000000E+00  8.00000000E-01
  8.00000000E-01  1.50000000E+00  1.50000000E+00  8.00000000E-01  8.00000000E-01
  1.50000000E+00  1.50000000E+00  8.00000000E-01  8.00000000E-01  1.50000000E+00
  1.50000000E+00  8.00000000E-01  8.00000000E-01  1.50000000E+00  1.50000000E+00
  8.00000000E-01  8.00000000E-01  1.50000000E+00  1.50000000E+00  8.00000000E-01
  8.00000000E-01  1.50000000E+00  1.50000000E+00  8.00000000E-01  8.00000000E-01
  1.50000000E+00  1.50000000E+00  8.00000000E-01  8.00000000E-01  1.50000000E+00
  1.50000000E+00  8.00000000E-01  8.00000000E-01  1.50000000E+00  1.50000000E+00
  8.00000000E-01  8.00000000E-01  1.50000000E+00  1.50000000E+00  8.00000000E-01
  8.00000000E-01  1.50000000E+00  1.50000000E+00  8.00000000E-01  8.00000000E-01
  1.50000000E+00  1.50000000E+00  8.00000000E-01  8.00000000E-01  1.50000000E+00
  1.50000000E+00  8.00000000E-01  8.00000000E-01  1.50000000E+00  1.50000000E+00
  8.00000000E-01  8.00000000E-01  1.50000000E+00  1.50000000E+00  8.00000000E-01
  8.00000000E-01  1.50000000E+00  1.50000000E+00  8.00000000E-01  8.00000000E-01
  1.50000000E+00  1.50000000E+00  8.00000000E-01  8.00000000E-01  1.50000000E+00
  1.50000000E+00  8.00000000E-01  8.00000000E-01  1.50000000E+00  1.50000000E+00
  8.00000000E-01  8.00000000E-01  1.50000000E+00  1.50000000E+00  8.00000000E-01
  8.00000000E-01  1.50000000E+00  1.50000000E+00  8.00000000E-01  8.00000000E-01
  1.50000000E+00  1.50000000E+00  8.00000000E-01  8.00000000E-01  1.50000000E+00
  1.50000000E+00  8.00000000E-01  8.00000000E-01  1.50000000E+00  1.50000000E+00
  8.00000000E-01  8.00000000E-01  1.50000000E+00  1.50000000E+00  8.00000000E-01
  8.00000000E-01  1.50000000E+00  1.50000000E+00  8.00000000E-01  8.00000000E-01
  1.50000000E+00  1.50000000E+00  8.00000000E-01  8.00000000E-01  1.50000000E+00
  1.50000000E+00  8.00000000E-01  8.00000000E-01  1.50000000E+00  1.50000000E+00
  8.00000000E-01  8.00000000E-01  1.50000000E+00  1.50000000E+00  8.00000000E-01
  8.00000000E-01  1.50000000E+00  1.50000000E+00  8.00000000E-01  8.00000000E-01
  1.50000000E+00  1.50000000E+00  8.00000000E-01  8.00000000E-01  1.50000000E+00
  1.50000000E+00  8.00000000E-01  8.00000000E-01  1.50000000E+00  1.50000000E+00
  8.00000000E-01  8.00000000E-01  1.50000000E+00  1.50000000E+00  8.00000000E-01
  8.00000000E-01  1.50000000E+00  1.50000000E+00  8.00000000E-01  8.00000000E-01
  1.50000000E+00  1.50000000E+00  8.00000000E-01  8.00000000E-01  1.50000000E+00
  1.50000000E+00  8.00000000E-01  8.00000000E-01  1.50000000E+00  1.50000000E+00
  8.00000000E-01  8.00000000E-01  1.50000000E+00  1.50000000E+00  8.00000000E-01
  8.00000000E-01  1.50000000E+00  1.50000000E+00  8.00000000E-01  8.00000000E-01
  1.50000000E+00  1.50000000E+00  8.00000000E-01  8.00000000E-01  1.50000000E+00
  1.50000000E+00  8.00000000E-01  8.00000000E-01  1.50000000E+00  1.50000000E+00
  8.00000000E-01  8.00000000E-01  1.50000000E+00  1.50000000E+00  8.00000000E-01
  8.00000000E-01  1.50000000E+00  1.50000000E+00  8.00000000E-01  8.00000000E-01
  1.50000000E+00  1.50000000E+00  8.00000000E-01  8.00000000E-01  1.50000000E+00
  1.50000000E+00  8.00000000E-01  8.00000000E-01  1.50000000E+00  1.50000000E+00
  8.00000000E-01  8.00000000E-01  1.50000000E+00  1.50000000E+00  8.00000000E-01
  8.00000000E-01  1.50000000E+00  1.50000000E+00  8.00000000E-01  8.00000000E-01
  1.50000000E+00  1.50000000E+00  8.00000000E-01  8.00000000E-01  1.50000000E+00
  1.50000000E+00  8.00000000E-01  8.00000000E-01  1.50000000E+00  1.50000000E+00
  8.00000000E-01  8.00000000E-01  1.50000000E+00  1.50000000E+00  8.00000000E-01
  8.00000000E-01  1.50000000E+00  1.50000000E+00  8.00000000E-01  8.00000000E-01
  1.50000000E+00  1.50000000E+00  8.00000000E-01  8.00000000E-01  1.50000000E+00
  1.50000000E+00  8.00000000E-01  8.00000000E-01  1.50000000E+00  1.50000000E+00
  8.00000000E-01  8.00000000E-01  1.50000000E+00  1.50000000E+00  8.00000000E-01
  8.00000000E-01  1.50000000E+00  1.50000000E+00  8.00000000E-01  8.00000000E-01
  1.50000000E+00  1.50000000E+00  8.00000000E-01  8.00000000E-01  1.50000000E+00
  1.50000000E+00  8.00000000E-01  8.00000000E-01  1.50000000E+00  1.50000000E+00
  8.00000000E-01  8.00000000E-01  1.50000000E+00  1.50000000E+00  8.00000000E-01
  8.00000000E-01  1.50000000E+00  1.50000000E+00  8.00000000E-01  8.00000000E-01
  1.50000000E+00  1.50000000E+00  8.00000000E-01  8.00000000E-01  1.50000000E+00
  1.50000000E+00  8.00000000E-01  8.00000000E-01  1.50000000E+00  1.50000000E+00
  8.00000000E-01  8.00000000E-01  1.50000000E+00  1.50000000E+00  8.00000000E-01
  8.00000000E-01  1.50000000E+00  1.50000000E+00  8.00000000E-01  8.00000000E-01
  1.50000000E+00  1.50000000E+00  8.00000000E-01  8.00000000E-01  1.50000000E+00
  1.50000000E+00  8.00000000E-01  8.00000000E-01  1.50000000E+00  1.50000000E+00
  8.00000000E-01  8.00000000E-01  1.50000000E+00  1.50000000E+00  8.00000000E-01
  8.00000000E-01  1.50000000E+00  1.50000000E+00  8.00000000E-01  8.00000000E-01
  1.50000000E+00  1.50000000E+00  8.00000000E-01  8.00000000E-01  1.50000000E+00
  1.50000000E+00  8.00000000E-01  8.00000000E-01  1.50000000E+00  1.50000000E+00
  8.00000000E-01  8.00000000E-01  1.50000000E+00  1.50000000E+00  8.00000000E-01
  8.00000000E-01  1.50000000E+00  1.50000000E+00  8.00000000E-01  8.00000000E-01
  1.50000000E+00  1.50000000E+00  8.00000000E-01  8.00000000E-01  1.50000000E+00
  1.50000000E+00  8.00000000E-01  8.00000000E-01  1.50000000E+00  1.50000000E+00
  8.00000000E-01  8.00000000E-01  1.50000000E+00  1.50000000E+00  8.00000000E-01
  8.00000000E-01  1.50000000E+00  1.50000000E+00  8.00000000E-01  8.00000000E-01
  1.50000000E+00  1.50000000E+00  8.00000000E-01  8.00000000E-01  1.50000000E+00
  1.50000000E+00  8.00000000E-01  8.00000000E-01  1.50000000E+00  1.50000000E+00
  8.00000000E-01  8.00000000E-01  1.50000000E+00  1.50000000E+00  8.00000000E-01
  8.00000000E-01  1.50000000E+00  1.50000000E+00  8.00000000E-01  8.00000000E-01
  1.50000000E+00  1.50000000E+00  8.00000000E-01  8.00000000E-01  1.50000000E+00
  1.50000000E+00  8.00000000E-01  8.00000000E-01  1.50000000E+00  1.50000000E+00
  8.00000000E-01  8.00000000E-01  1.50000000E+00  1.50000000E+00  8.00000000E-01
  8.00000000E-01  1.50000000E+00  1.50000000E+00  8.00000000E-01  8.00000000E-01
  1.50000000E+00  1.50000000E+00  8.00000000E-01  8.00000000E-01  1.50000000E+00
  1.50000000E+00  8.00000000E-01  8.00000000E-01  1.50000000E+00  1.50000000E+00
  8.00000000E-01  8.00000000E-01  1.50000000E+00  1.50000000E+00  8.00000000E-01
  8.00000000E-01  1.50000000E+00  1.50000000E+00  8.00000000E-01  8.00000000E-01
  1.50000000E+00  1.50000000E+00  8.00000000E-01  8.00000000E-01  1.50000000E+00
  1.50000000E+00  8.00000000E-01  8.00000000E-01  1.50000000E+00  1.50000000E+00
  8.00000000E-01  8.00000000E-01  1.50000000E+00  1.50000000E+00  8.00000000E-01
  8.00000000E-01  1.50000000E+00  1.50000000E+00  8.00000000E-01  8.00000000E-01
  1.50000000E+00  1.50000000E+00  8.00000000E-01  8.00000000E-01  1.50000000E+00
  1.50000000E+00  8.00000000E-01  8.00000000E-01  1.50000000E+00  1.50000000E+00
  8.00000000E-01  8.00000000E-01  1.50000000E+00  1.50000000E+00  8.00000000E-01
  8.00000000E-01  1.50000000E+00  1.50000000E+00  8.00000000E-01  8.00000000E-01
  1.50000000E+00  1.50000000E+00  8.00000000E-01  8.00000000E-01  1.50000000E+00
  1.50000000E+00  8.00000000E-01  8.00000000E-01  1.50000000E+00  1.50000000E+00
  8.00000000E-01  8.00000000E-01  1.50000000E+00  1.50000000E+00  8.00000000E-01
  8.00000000E-01  1.50000000E+00  1.50000000E+00  8.00000000E-01  8.00000000E-01
  1.50000000E+00  1.50000000E+00  8.00000000E-01  8.00000000E-01  1.50000000E+00
  1.50000000E+00  8.00000000E-01  8.00000000E-01  1.50000000E+00  1.50000000E+00
  8.00000000E-01  8.00000000E-01  1.50000000E+00  1.50000000E+00  8.00000000E-01
  8.00000000E-01  1.50000000E+00  1.50000000E+00  8.00000000E-01  8.00000000E-01
  1.50000000E+00  1.50000000E+00  8.00000000E-01  8.00000000E-01  1.50000000E+00
  1.50000000E+00  8.00000000E-01  8.00000000E-01  1.50000000E+00  1.50000000E+00
  8.00000000E-01  8.00000000E-01  1.50000000E+00  1.50000000E+00  8.00000000E-01
  8.00000000E-01  1.50000000E+00  1.50000000E+00  8.00000000E-01  8.00000000E-01
  1.50000000E+00  1.50000000E+00  8.00000000E-01  8.00000000E-01  1.50000000E+00
  1.50000000E+00  8.00000000E-01  8.00000000E-01  1.50000000E+00  1.50000000E+00
  8.00000000E-01  8.00000000E-01  1.50000000E+00  1.50000000E+00  8.00000000E-01
  8.00000000E-01  1.50000000E+00  1.50000000E+00  8.00000000E-01  8.00000000E-01
  1.50000000E+00  1.50000000E+00  8.00000000E-01  8.00000000E-01  1.50000000E+00
  1.50000000E+00  8.00000000E-01  8.00000000E-01  1.50000000E+00  1.50000000E+00
  8.00000000E-01  8.00000000E-01  1.50000000E+00  1.50000000E+00  8.00000000E-01
  8.00000000E-01  1.50000000E+00  1.50000000E+00  8.00000000E-01  8.00000000E-01
  1.50000000E+00  1.50000000E+00  8.00000000E-01  8.00000000E-01  1.50000000E+00
  1.50000000E+00  8.00000000E-01  8.00000000E-01  1.50000000E+00  1.50000000E+00
  8.00000000E-01  8.00000000E-01  1.50000000E+00  1.50000000E+00  8.00000000E-01
  8.00000000E-01  1.50000000E+00  1.50000000E+00  8.00000000E-01  8.00000000E-01
  1.50000000E+00  1.50000000E+00  8.00000000E-01  8.00000000E-01  1.50000000E+00
  1.50000000E+00  8.00000000E-01  8.00000000E-01  1.50000000E+00  1.50000000E+00
  8.00000000E-01  8.00000000E-01  1.50000000E+00  1.50000000E+00  8.00000000E-01
  8.00000000E-01  1.50000000E+00  1.50000000E+00  8.00000000E-01  8.00000000E-01
  1.50000000E+00  1.50000000E+00  8.00000000E-01  8.00000000E-01  1.50000000E+00
  1.50000000E+00  8.00000000E-01  8.00000000E-01  1.50000000E+00  1.50000000E+00
  8.00000000E-01  8.00000000E-01  1.50000000E+00  1.50000000E+00  8.00000000E-01
  8.00000000E-01  1.50000000E+00  1.50000000E+00  8.00000000E-01  8.00000000E-01
  1.50000000E+00  1.50000000E+00  8.00000000E-01  8.00000000E-01  1.50000000E+00
  1.50000000E+00  8.00000000E-01  8.00000000E-01  1.50000000E+00  1.50000000E+00
  8.00000000E-01  8.00000000E-01  1.50000000E+00  1.50000000E+00  8.00000000E-01
  8.00000000E-01  1.50000000E+00  1.50000000E+00  8.00000000E-01  8.00000000E-01
  1.50000000E+00  1.50000000E+00  8.00000000E-01  8.00000000E-01  1.50000000E+00
  1.50000000E+00  8.00000000E-01  8.00000000E-01  1.50000000E+00  1.50000000E+00
  8.00000000E-01  8.00000000E-01  1.50000000E+00  1.50000000E+00  8.00000000E-01
  8.00000000E-01  1.50000000E+00  1.50000000E+00  8.00000000E-01  8.00000000E-01
  1.50000000E+00  1.50000000E+00  8.00000000E-01  8.00000000E-01  1.50000000E+00
  1.50000000E+00  8.00000000E-01  8.00000000E-01  1.50000000E+00  1.50000000E+00
  8.00000000E-01  8.00000000E-01  1.50000000E+00  1.50000000E+00  8.00000000E-01
  8.00000000E-01  1.50000000E+00  1.50000000E+00  8.00000000E-01  8.00000000E-01
  1.50000000E+00  1.50000000E+00  8.00000000E-01  8.00000000E-01  1.50000000E+00
  1.50000000E+00  8.00000000E-01  8.00000000E-01  1.50000000E+00  1.50000000E+00
  8.00000000E-01  8.00000000E-01  1.50000000E+00  1.50000000E+00  8.00000000E-01
  8.00000000E-01  1.50000000E+00  1.50000000E+00  8.00000000E-01  8.00000000E-01
  1.50000000E+00  1.50000000E+00  8.00000000E-01  8.00000000E-01  1.50000000E+00
  1.50000000E+00  8.00000000E-01  8.00000000E-01  1.50000000E+00  1.50000000E+00
  8.00000000E-01  8.00000000E-01  1.50000000E+00  1.50000000E+00  8.00000000E-01
  8.00000000E-01  1.50000000E+00  1.50000000E+00  8.00000000E-01  8.00000000E-01
  1.50000000E+00  1.50000000E+00  8.00000000E-01  8.00000000E-01  1.50000000E+00
  1.50000000E+00  8.00000000E-01  8.00000000E-01  1.50000000E+00  1.50000000E+00
  8.00000000E-01  8.00000000E-01  1.50000000E+00  1.50000000E+00  8.00000000E-01
  8.00000000E-01  1.50000000E+00  1.50000000E+00  8.00000000E-01  8.00000000E-01
  1.50000000E+00  1.50000000E+00  8.00000000E-01  8.00000000E-01  1.50000000E+00
  1.50000000E+00  8.00000000E-01  8.00000000E-01  1.50000000E+00  1.50000000E+00
  8.00000000E-01  8.00000000E-01  1.50000000E+00  1.50000000E+00  8.00000000E-01
  8.00000000E-01  1.50000000E+00  1.50000000E+00  8.00000000E-01  8.00000000E-01
  1.50000000E+00  1.50000000E+00  8.00000000E-01  8.00000000E-01  1.50000000E+00
  1.50000000E+00  8.00000000E-01  8.00000000E-01  1.50000000E+00  1.50000000E+00
  8.00000000E-01  8.00000000E-01  1.50000000E+00  1.50000000E+00  8.00000000E-01
  8.00000000E-01  1.50000000E+00  1.50000000E+00  8.00000000E-01  8.00000000E-01
  1.50000000E+00  1.50000000E+00  8.00000000E-01  8.00000000E-01  1.50000000E+00
  1.50000000E+00  8.00000000E-01  8.00000000E-01  1.50000000E+00  1.50000000E+00
  8.00000000E-01  8.00000000E-01  1.50000000E+00  1.50000000E+00  8.00000000E-01
  8.00000000E-01  1.50000000E+00  1.50000000E+00  8.00000000E-01  8.00000000E-01
  1.50000000E+00  1.50000000E+00  8.00000000E-01  8.00000000E-01  1.50000000E+00
  1.50000000E+00  8.00000000E-01  8.00000000E-01  1.50000000E+00  1.50000000E+00
  8.00000000E-01  8.00000000E-01  1.50000000E+00  1.50000000E+00  8.00000000E-01
  8.00000000E-01  1.50000000E+00  1.50000000E+00  8.00000000E-01  8.00000000E-01
  1.50000000E+00  1.50000000E+00  8.00000000E-01  8.00000000E-01  1.50000000E+00
  1.50000000E+00  8.00000000E-01  8.00000000E-01  1.50000000E+00  1.50000000E+00
  8.00000000E-01  8.00000000E-01  1.50000000E+00  1.50000000E+00  8.00000000E-01
  8.00000000E-01  1.50000000E+00  1.50000000E+00  8.00000000E-01  8.00000000E-01
  1.50000000E+00  1.50000000E+00  8.00000000E-01  8.00000000E-01  1.50000000E+00
  1.50000000E+00  8.00000000E-01  8.00000000E-01  1.50000000E+00  1.50000000E+00
  8.00000000E-01  8.00000000E-01  1.50000000E+00  1.50000000E+00  8.00000000E-01
  8.00000000E-01  1.50000000E+00  1.50000000E+00  8.00000000E-01  8.00000000E-01
  1.50000000E+00  1.50000000E+00  8.00000000E-01  8.00000000E-01  1.50000000E+00
  1.50000000E+00  8.00000000E-01  8.00000000E-01  1.50000000E+00  1.50000000E+00
  8.00000000E-01  8.00000000E-01  1.50000000E+00  1.50000000E+00  8.00000000E-01
  8.00000000E-01  1.50000000E+00  1.50000000E+00  8.00000000E-01  8.00000000E-01
  1.50000000E+00  1.50000000E+00  8.00000000E-01  8.00000000E-01  1.50000000E+00
  1.50000000E+00  8.00000000E-01  8.00000000E-01  1.50000000E+00  1.50000000E+00
  8.00000000E-01  8.00000000E-01  1.50000000E+00  1.50000000E+00  8.00000000E-01
  8.00000000E-01  1.50000000E+00  1.50000000E+00  8.00000000E-01  8.00000000E-01
  1.50000000E+00  1.50000000E+00  8.00000000E-01  8.00000000E-01  1.50000000E+00
  1.50000000E+00  8.00000000E-01  8.00000000E-01  1.50000000E+00  1.50000000E+00
  8.00000000E-01  8.00000000E-01  1.50000000E+00  1.50000000E+00  8.00000000E-01
  8.00000000E-01  1.50000000E+00  1.50000000E+00  8.00000000E-01  8.00000000E-01
  1.50000000E+00  1.50000000E+00  8.00000000E-01  8.00000000E-01  1.50000000E+00
  1.50000000E+00  8.00000000E-01  8.00000000E-01  1.50000000E+00  1.50000000E+00
  8.00000000E-01  8.00000000E-01  1.50000000E+00  1.50000000E+00  8.00000000E-01
  8.00000000E-01  1.50000000E+00  1.50000000E+00  8.00000000E-01  8.00000000E-01
  1.50000000E+00  1.50000000E+00  8.00000000E-01  8.00000000E-01  1.50000000E+00
  1.50000000E+00  8.00000000E-01  8.00000000E-01  1.50000000E+00  1.50000000E+00
  8.00000000E-01  8.00000000E-01  1.50000000E+00  1.50000000E+00  8.00000000E-01
  8.00000000E-01  1.50000000E+00  1.50000000E+00  8.00000000E-01  8.00000000E-01
  1.50000000E+00  1.50000000E+00  8.00000000E-01  8.00000000E-01  1.50000000E+00
  1.50000000E+00  8.00000000E-01  8.00000000E-01  1.50000000E+00  1.50000000E+00
  8.00000000E-01  8.00000000E-01  1.50000000E+00  1.50000000E+00  8.00000000E-01
  8.00000000E-01  1.50000000E+00  1.50000000E+00  8.00000000E-01  8.00000000E-01
  1.50000000E+00  1.50000000E+00  8.00000000E-01  8.00000000E-01  1.50000000E+00
  1.50000000E+00  8.00000000E-01  8.00000000E-01  1.50000000E+00  1.50000000E+00
  8.00000000E-01  8.00000000E-01  1.50000000E+00  1.50000000E+00  8.00000000E-01
  8.00000000E-01  1.50000000E+00  1.50000000E+00  8.00000000E-01  8.00000000E-01
  1.50000000E+00  1.50000000E+00  8.00000000E-01  8.00000000E-01  1.50000000E+00
  1.50000000E+00  8.00000000E-01  8.00000000E-01  1.50000000E+00  1.50000000E+00
  8.00000000E-01  8.00000000E-01  1.50000000E+00  1.50000000E+00  8.00000000E-01
  8.00000000E-01  1.50000000E+00  1.50000000E+00  8.00000000E-01  8.00000000E-01
  1.50000000E+00  1.50000000E+00  8.00000000E-01  8.00000000E-01  1.50000000E+00
  1.50000000E+00  8.00000000E-01  8.00000000E-01  1.50000000E+00  1.50000000E+00
  8.00000000E-01  8.00000000E-01  1.50000000E+00  1.50000000E+00  8.00000000E-01
  8.00000000E-01  1.50000000E+00  1.50000000E+00  8.00000000E-01  8.00000000E-01
  1.50000000E+00  1.50000000E+00  8.00000000E-01  8.00000000E-01  1.50000000E+00
  1.50000000E+00  8.00000000E-01  8.00000000E-01  1.50000000E+00  1.50000000E+00
  8.00000000E-01  8.00000000E-01  1.50000000E+00  1.50000000E+00  8.00000000E-01
  8.00000000E-01  1.50000000E+00  1.50000000E+00  8.00000000E-01  8.00000000E-01
  1.50000000E+00  1.50000000E+00  8.00000000E-01  8.00000000E-01  1.50000000E+00
  1.50000000E+00  8.00000000E-01  8.00000000E-01  1.50000000E+00  1.50000000E+00
  8.00000000E-01  8.00000000E-01  1.50000000E+00  1.50000000E+00  8.00000000E-01
  8.00000000E-01  1.50000000E+00  1.50000000E+00  8.00000000E-01  8.00000000E-01
  1.50000000E+00  1.50000000E+00  8.00000000E-01  8.00000000E-01  1.50000000E+00
  1.50000000E+00  8.00000000E-01  8.00000000E-01  1.50000000E+00  1.50000000E+00
  8.00000000E-01  8.00000000E-01  1.50000000E+00  1.50000000E+00  8.00000000E-01
  8.00000000E-01  1.50000000E+00  1.50000000E+00  8.00000000E-01  8.00000000E-01
  1.50000000E+00  1.50000000E+00  8.00000000E-01  8.00000000E-01  1.50000000E+00
  1.50000000E+00  8.00000000E-01  8.00000000E-01  1.50000000E+00  1.50000000E+00
  8.00000000E-01  8.00000000E-01  1.50000000E+00  1.50000000E+00  8.00000000E-01
  8.00000000E-01  1.50000000E+00  1.50000000E+00  8.00000000E-01  8.00000000E-01
  1.50000000E+00  1.50000000E+00  8.00000000E-01  8.00000000E-01  1.50000000E+00
  1.50000000E+00  8.00000000E-01  8.00000000E-01  1.50000000E+00  1.50000000E+00
  8.00000000E-01  8.00000000E-01  1.50000000E+00  1.50000000E+00  8.00000000E-01
  8.00000000E-01  1.50000000E+00  1.50000000E+00  8.00000000E-01  8.00000000E-01
  1.50000000E+00  1.50000000E+00  8.00000000E-01  8.00000000E-01  1.50000000E+00
  1.50000000E+00  8.00000000E-01  8.00000000E-01  1.50000000E+00  1.50000000E+00
  8.00000000E-01  8.00000000E-01  1.50000000E+00  1.50000000E+00  8.00000000E-01
  8.00000000E-01  1.50000000E+00  1.50000000E+00  8.00000000E-01  8.00000000E-01
  1.50000000E+00  1.50000000E+00  8.00000000E-01  8.00000000E-01  1.50000000E+00
  1.50000000E+00  8.00000000E-01  8.00000000E-01  1.50000000E+00  1.50000000E+00
  8.00000000E-01  8.00000000E-01  1.50000000E+00  1.50000000E+00  8.00000000E-01
  8.00000000E-01  1.50000000E+00  1.50000000E+00  8.00000000E-01  8.00000000E-01
  1.50000000E+00  1.50000000E+00  8.00000000E-01  8.00000000E-01  1.50000000E+00
  1.50000000E+00  8.00000000E-01  8.00000000E-01  1.50000000E+00  1.50000000E+00
  8.00000000E-01  8.00000000E-01  1.50000000E+00  1.50000000E+00  8.00000000E-01
  8.00000000E-01  1.50000000E+00  1.50000000E+00  8.00000000E-01  8.00000000E-01
  1.50000000E+00  1.50000000E+00  8.00000000E-01  8.00000000E-01  1.50000000E+00
  1.50000000E+00  8.00000000E-01  8.00000000E-01  1.50000000E+00  1.50000000E+00
  8.00000000E-01  8.00000000E-01  1.50000000E+00  1.50000000E+00  8.00000000E-01
  8.00000000E-01  1.50000000E+00  1.50000000E+00  8.00000000E-01  8.00000000E-01
  1.50000000E+00  1.50000000E+00  8.00000000E-01  8.00000000E-01  1.50000000E+00
  1.50000000E+00  8.00000000E-01  8.00000000E-01  1.50000000E+00  1.50000000E+00
  8.00000000E-01  8.00000000E-01  1.50000000E+00  1.50000000E+00  8.00000000E-01
  8.00000000E-01  1.50000000E+00  1.50000000E+00  8.00000000E-01  8.00000000E-01
  1.50000000E+00  1.50000000E+00  8.00000000E-01  8.00000000E-01  1.50000000E+00
  1.50000000E+00  8.00000000E-01  8.00000000E-01  1.50000000E+00  1.50000000E+00
  8.00000000E-01  8.00000000E-01  1.50000000E+00  1.50000000E+00  8.00000000E-01
  8.00000000E-01  1.50000000E+00  1.50000000E+00  8.00000000E-01  8.00000000E-01
  1.50000000E+00  1.50000000E+00  8.00000000E-01  8.00000000E-01  1.50000000E+00
  1.50000000E+00  8.00000000E-01  8.00000000E-01  1.50000000E+00  1.50000000E+00
  8.00000000E-01  8.00000000E-01  1.50000000E+00  1.50000000E+00  8.00000000E-01
  8.00000000E-01  1.50000000E+00  1.50000000E+00  8.00000000E-01  8.00000000E-01
  1.50000000E+00  1.50000000E+00  8.00000000E-01  8.00000000E-01  1.50000000E+00
  1.50000000E+00  8.00000000E-01  8.00000000E-01  1.50000000E+00  1.50000000E+00
  8.00000000E-01  8.00000000E-01  1.50000000E+00  1.50000000E+00  8.00000000E-01
  8.00000000E-01  1.50000000E+00  1.50000000E+00  8.00000000E-01  8.00000000E-01
  1.50000000E+00  1.50000000E+00  8.00000000E-01  8.00000000E-01  1.50000000E+00
  1.50000000E+00  8.00000000E-01  8.00000000E-01  1.50000000E+00  1.50000000E+00
  8.00000000E-01  8.00000000E-01  1.50000000E+00  1.50000000E+00  8.00000000E-01
  8.00000000E-01  1.50000000E+00  1.50000000E+00  8.00000000E-01  8.00000000E-01
  1.50000000E+00  1.50000000E+00  8.00000000E-01  8.00000000E-01  1.50000000E+00
  1.50000000E+00  8.00000000E-01  8.00000000E-01  1.50000000E+00  1.50000000E+00
  8.00000000E-01  8.00000000E-01  1.50000000E+00  1.50000000E+00  8.00000000E-01
  8.00000000E-01  1.50000000E+00  1.50000000E+00  8.00000000E-01  8.00000000E-01
  1.50000000E+00  1.50000000E+00  8.00000000E-01  8.00000000E-01  1.50000000E+00
  1.50000000E+00  8.00000000E-01  8.00000000E-01  1.50000000E+00  1.50000000E+00
  8.00000000E-01  8.00000000E-01  1.50000000E+00  1.50000000E+00  8.00000000E-01
  8.00000000E-01  1.50000000E+00  1.50000000E+00  8.00000000E-01  8.00000000E-01
  1.50000000E+00  1.50000000E+00  8.00000000E-01  8.00000000E-01  1.50000000E+00
  1.50000000E+00  8.00000000E-01  8.00000000E-01  1.50000000E+00  1.50000000E+00
  8.00000000E-01  8.00000000E-01  1.50000000E+00  1.50000000E+00  8.00000000E-01
  8.00000000E-01  1.50000000E+00  1.50000000E+00  8.00000000E-01  8.00000000E-01
  1.50000000E+00  1.50000000E+00  8.00000000E-01  8.00000000E-01  1.50000000E+00
  1.50000000E+00  8.00000000E-01  8.00000000E-01  1.50000000E+00  1.50000000E+00
  8.00000000E-01  8.00000000E-01  1.50000000E+00  1.50000000E+00  8.00000000E-01
  8.00000000E-01  1.50000000E+00  1.50000000E+00  8.00000000E-01  8.00000000E-01
  1.50000000E+00  1.50000000E+00  8.00000000E-01  8.00000000E-01  1.50000000E+00
  1.50000000E+00  8.00000000E-01  8.00000000E-01  1.50000000E+00  1.50000000E+00
  8.00000000E-01  8.00000000E-01  1.50000000E+00  1.50000000E+00  8.00000000E-01
  8.00000000E-01  1.50000000E+00  1.50000000E+00  8.00000000E-01  8.00000000E-01
  1.50000000E+00  1.50000000E+00  8.00000000E-01  8.00000000E-01  1.50000000E+00
  1.50000000E+00  8.00000000E-01  8.00000000E-01  1.50000000E+00  1.50000000E+00
  8.00000000E-01  8.00000000E-01  1.50000000E+00  1.50000000E+00  8.00000000E-01
  8.00000000E-01  1.50000000E+00  1.50000000E+00  8.00000000E-01  8.00000000E-01
  1.50000000E+00  1.50000000E+00  8.00000000E-01  8.00000000E-01  1.50000000E+00
  1.50000000E+00  8.00000000E-01  8.00000000E-01  1.50000000E+00  1.50000000E+00
  8.00000000E-01  8.00000000E-01  1.50000000E+00  1.50000000E+00  8.00000000E-01
  8.00000000E-01  1.50000000E+00  1.50000000E+00  8.00000000E-01  8.00000000E-01
  1.50000000E+00  1.50000000E+00  8.00000000E-01  8.00000000E-01  1.50000000E+00
  1.50000000E+00  8.00000000E-01  8.00000000E-01  1.50000000E+00  1.50000000E+00
  8.00000000E-01  8.00000000E-01  1.50000000E+00  1.50000000E+00  8.00000000E-01
  8.00000000E-01  1.50000000E+00  1.50000000E+00  8.00000000E-01  8.00000000E-01
  1.50000000E+00  1.50000000E+00  8.00000000E-01  8.00000000E-01  1.50000000E+00
  1.50000000E+00  8.00000000E-01  8.00000000E-01  1.50000000E+00  1.50000000E+00
  8.00000000E-01  8.00000000E-01  1.50000000E+00  1.50000000E+00  8.00000000E-01
  8.00000000E-01  1.50000000E+00  1.50000000E+00  8.00000000E-01  8.00000000E-01
  1.50000000E+00  1.50000000E+00  8.00000000E-01  8.00000000E-01  1.50000000E+00
  1.50000000E+00  8.00000000E-01  8.00000000E-01  1.50000000E+00  1.50000000E+00
  8.00000000E-01  8.00000000E-01  1.50000000E+00  1.50000000E+00  8.00000000E-01
  8.00000000E-01  1.50000000E+00  1.50000000E+00  8.00000000E-01  8.00000000E-01
  1.50000000E+00  1.50000000E+00  8.00000000E-01  8.00000000E-01  1.50000000E+00
  1.50000000E+00  8.00000000E-01  8.00000000E-01  1.50000000E+00  1.50000000E+00
  8.00000000E-01  8.00000000E-01  1.50000000E+00  1.50000000E+00  8.00000000E-01
  8.00000000E-01  1.50000000E+00  1.50000000E+00  8.00000000E-01  8.00000000E-01
  1.50000000E+00  1.50000000E+00  8.00000000E-01  8.00000000E-01  1.50000000E+00
  1.50000000E+00  8.00000000E-01  8.00000000E-01  1.50000000E+00  1.50000000E+00
  8.00000000E-01  8.00000000E-01  1.50000000E+00  1.50000000E+00  8.00000000E-01
  8.00000000E-01  1.50000000E+00  1.50000000E+00  8.00000000E-01  8.00000000E-01
  1.50000000E+00  1.50000000E+00  8.00000000E-01  8.00000000E-01  1.50000000E+00
  1.50000000E+00  8.00000000E-01  8.00000000E-01  1.50000000E+00  1.50000000E+00
  8.00000000E-01  8.00000000E-01  1.50000000E+00  1.50000000E+00  8.00000000E-01
  8.00000000E-01  1.50000000E+00  1.50000000E+00  8.00000000E-01  8.00000000E-01
  1.50000000E+00  1.50000000E+00  8.00000000E-01  8.00000000E-01  1.50000000E+00
  1.50000000E+00  8.00000000E-01  8.00000000E-01  1.50000000E+00  1.50000000E+00
  8.00000000E-01  8.00000000E-01  1.50000000E+00  1.50000000E+00  8.00000000E-01
  8.00000000E-01  1.50000000E+00  1.50000000E+00  8.00000000E-01  8.00000000E-01
  1.50000000E+00  1.50000000E+00  8.00000000E-01  8.00000000E-01  1.50000000E+00
  1.50000000E+00  8.00000000E-01  8.00000000E-01  1.50000000E+00  1.50000000E+00
  8.00000000E-01  8.00000000E-01  1.50000000E+00  1.50000000E+00  8.00000000E-01
  8.00000000E-01  1.50000000E+00  1.50000000E+00  8.00000000E-01  8.00000000E-01
  1.50000000E+00  1.50000000E+00  8.00000000E-01  8.00000000E-01  1.50000000E+00
  1.50000000E+00  8.00000000E-01  8.00000000E-01  1.50000000E+00  1.50000000E+00
  8.00000000E-01  8.00000000E-01  1.50000000E+00  1.50000000E+00  8.00000000E-01
  8.00000000E-01  1.50000000E+00  1.50000000E+00  8.00000000E-01  8.00000000E-01
  1.50000000E+00  1.50000000E+00  8.00000000E-01  8.00000000E-01  1.50000000E+00
  1.50000000E+00  8.00000000E-01  8.00000000E-01  1.50000000E+00  1.50000000E+00
  8.00000000E-01  8.00000000E-01  1.50000000E+00  1.50000000E+00  8.00000000E-01
  8.00000000E-01  1.50000000E+00  1.50000000E+00  8.00000000E-01  8.00000000E-01
  1.50000000E+00  1.50000000E+00  8.00000000E-01  8.00000000E-01  1.50000000E+00
  1.50000000E+00  8.00000000E-01  8.00000000E-01  1.50000000E+00  1.50000000E+00
  8.00000000E-01  8.00000000E-01  1.50000000E+00  1.50000000E+00  8.00000000E-01
  8.00000000E-01  1.50000000E+00  1.50000000E+00  8.00000000E-01  8.00000000E-01
  1.50000000E+00  1.50000000E+00  8.00000000E-01  8.00000000E-01  1.50000000E+00
  1.50000000E+00  8.00000000E-01  8.00000000E-01  1.50000000E+00  1.50000000E+00
  8.00000000E-01  8.00000000E-01  1.50000000E+00  1.50000000E+00  8.00000000E-01
  8.00000000E-01  1.50000000E+00  1.50000000E+00  8.00000000E-01  8.00000000E-01
  1.50000000E+00  1.50000000E+00  8.00000000E-01  8.00000000E-01  1.50000000E+00
  1.50000000E+00  8.00000000E-01  8.00000000E-01  1.50000000E+00  1.50000000E+00
  8.00000000E-01  8.00000000E-01  1.50000000E+00  1.50000000E+00  8.00000000E-01
  8.00000000E-01  1.50000000E+00  1.50000000E+00  8.00000000E-01  8.00000000E-01
  1.50000000E+00  1.50000000E+00  8.00000000E-01  8.00000000E-01  1.50000000E+00
  1.50000000E+00  8.00000000E-01  8.00000000E-01  1.50000000E+00  1.50000000E+00
  8.00000000E-01  8.00000000E-01  1.50000000E+00  1.50000000E+00  8.00000000E-01
  8.00000000E-01  1.50000000E+00  1.50000000E+00  8.00000000E-01  8.00000000E-01
  1.50000000E+00  1.50000000E+00  8.00000000E-01  8.00000000E-01  1.50000000E+00
  1.50000000E+00  8.00000000E-01  8.00000000E-01  1.50000000E+00  1.50000000E+00
  8.00000000E-01  8.00000000E-01  1.50000000E+00  1.50000000E+00  8.00000000E-01
  8.00000000E-01  1.50000000E+00  1.50000000E+00  8.00000000E-01  8.00000000E-01
  1.50000000E+00  1.50000000E+00  8.00000000E-01  8.00000000E-01  1.50000000E+00
  1.50000000E+00  8.00000000E-01  8.00000000E-01  1.50000000E+00  1.50000000E+00
  8.00000000E-01  8.00000000E-01  1.50000000E+00  1.50000000E+00  8.00000000E-01
  8.00000000E-01  1.50000000E+00  1.50000000E+00  8.00000000E-01  8.00000000E-01
  1.50000000E+00  1.50000000E+00  8.00000000E-01  8.00000000E-01  1.50000000E+00
  1.50000000E+00  8.00000000E-01  8.00000000E-01  1.50000000E+00  1.50000000E+00
  8.00000000E-01  8.00000000E-01  1.50000000E+00  1.50000000E+00  8.00000000E-01
  8.00000000E-01  1.50000000E+00  1.50000000E+00  8.00000000E-01  8.00000000E-01
  1.50000000E+00  1.50000000E+00  8.00000000E-01  8.00000000E-01  1.50000000E+00
  1.50000000E+00  8.00000000E-01  8.00000000E-01  1.50000000E+00  1.50000000E+00
  8.00000000E-01  8.00000000E-01  1.50000000E+00  1.50000000E+00  8.00000000E-01
  8.00000000E-01  1.50000000E+00  1.50000000E+00  8.00000000E-01  8.00000000E-01
  1.50000000E+00  1.50000000E+00  8.00000000E-01  8.00000000E-01  1.50000000E+00
  1.50000000E+00  8.00000000E-01  8.00000000E-01  1.50000000E+00  1.50000000E+00
  8.00000000E-01  8.00000000E-01  1.50000000E+00  1.50000000E+00  8.00000000E-01
  8.00000000E-01  1.50000000E+00  1.50000000E+00  8.00000000E-01  8.00000000E-01
  1.50000000E+00  1.50000000E+00  8.00000000E-01  8.00000000E-01  1.50000000E+00
  1.50000000E+00  8.00000000E-01  8.00000000E-01  1.50000000E+00  1.50000000E+00
  8.00000000E-01  8.00000000E-01  1.50000000E+00  1.50000000E+00  8.00000000E-01
  8.00000000E-01  1.50000000E+00  1.50000000E+00  8.00000000E-01  8.00000000E-01
  1.50000000E+00  1.50000000E+00  8.00000000E-01  8.00000000E-01  1.50000000E+00
  1.50000000E+00  8.00000000E-01  8.00000000E-01  1.50000000E+00  1.50000000E+00
  8.00000000E-01  8.00000000E-01  1.50000000E+00  1.50000000E+00  8.00000000E-01
  8.00000000E-01  1.50000000E+00  1.50000000E+00  8.00000000E-01  8.00000000E-01
  1.50000000E+00  1.50000000E+00  8.00000000E-01  8.00000000E-01  1.50000000E+00
  1.50000000E+00  8.00000000E-01  8.00000000E-01  1.50000000E+00  1.50000000E+00
  8.00000000E-01  8.00000000E-01  1.50000000E+00  1.50000000E+00  8.00000000E-01
  8.00000000E-01  1.50000000E+00  1.50000000E+00  8.00000000E-01  8.00000000E-01
  1.50000000E+00  1.50000000E+00  8.00000000E-01  8.00000000E-01  1.50000000E+00
  1.50000000E+00  8.00000000E-01  8.00000000E-01  1.50000000E+00  1.50000000E+00
  8.00000000E-01  8.00000000E-01  1.50000000E+00  1.50000000E+00  8.00000000E-01
  8.00000000E-01  1.50000000E+00  1.50000000E+00  8.00000000E-01  8.00000000E-01
  1.50000000E+00  1.50000000E+00  8.00000000E-01  8.00000000E-01  1.50000000E+00
  1.50000000E+00  8.00000000E-01  8.00000000E-01  1.50000000E+00  1.50000000E+00
  8.00000000E-01  8.00000000E-01  1.50000000E+00  1.50000000E+00  8.00000000E-01
  8.00000000E-01  1.50000000E+00  1.50000000E+00  8.00000000E-01  8.00000000E-01
  1.50000000E+00  1.50000000E+00  8.00000000E-01  8.00000000E-01  1.50000000E+00
  1.50000000E+00  8.00000000E-01  8.00000000E-01  1.50000000E+00  1.50000000E+00
  8.00000000E-01  8.00000000E-01  1.50000000E+00  1.50000000E+00  8.00000000E-01
  8.00000000E-01  1.50000000E+00  1.50000000E+00  8.00000000E-01  8.00000000E-01
  1.50000000E+00  1.50000000E+00  8.00000000E-01  8.00000000E-01  1.50000000E+00
  1.50000000E+00  8.00000000E-01  8.00000000E-01  1.50000000E+00  1.50000000E+00
  8.00000000E-01  8.00000000E-01  1.50000000E+00  1.50000000E+00  8.00000000E-01
  8.00000000E-01  1.50000000E+00  1.50000000E+00  8.00000000E-01  8.00000000E-01
  1.50000000E+00  1.50000000E+00  8.00000000E-01  8.00000000E-01  1.50000000E+00
  1.50000000E+00  8.00000000E-01  8.00000000E-01  1.50000000E+00  1.50000000E+00
  8.00000000E-01  8.00000000E-01  1.50000000E+00  1.50000000E+00  8.00000000E-01
  8.00000000E-01  1.50000000E+00  1.50000000E+00  8.00000000E-01  8.00000000E-01
  1.50000000E+00  1.50000000E+00  8.00000000E-01  8.00000000E-01  1.50000000E+00
  1.50000000E+00  8.00000000E-01  8.00000000E-01  1.50000000E+00  1.50000000E+00
  8.00000000E-01  8.00000000E-01  1.50000000E+00  1.50000000E+00  8.00000000E-01
  8.00000000E-01  1.50000000E+00  1.50000000E+00  8.00000000E-01  8.00000000E-01
  1.50000000E+00  1.50000000E+00  8.00000000E-01  8.00000000E-01  1.50000000E+00
  1.50000000E+00  8.00000000E-01  8.00000000E-01  1.50000000E+00  1.50000000E+00
  8.00000000E-01  8.00000000E-01  1.50000000E+00  1.50000000E+00  8.00000000E-01
  8.00000000E-01  1.50000000E+00  1.50000000E+00  8.00000000E-01  8.00000000E-01
  1.50000000E+00  1.50000000E+00  8.00000000E-01  8.00000000E-01  1.50000000E+00
  1.50000000E+00  8.00000000E-01  8.00000000E-01  1.50000000E+00  1.50000000E+00
  8.00000000E-01  8.00000000E-01  1.50000000E+00  1.50000000E+00  8.00000000E-01
  8.00000000E-01  1.50000000E+00  1.50000000E+00  8.00000000E-01  8.00000000E-01
  1.50000000E+00  1.50000000E+00  8.00000000E-01  8.00000000E-01  1.50000000E+00
  1.50000000E+00  8.00000000E-01  8.00000000E-01  1.50000000E+00  1.50000000E+00
  8.00000000E-01  8.00000000E-01  1.50000000E+00  1.50000000E+00  8.00000000E-01
  8.00000000E-01  1.50000000E+00  1.50000000E+00  8.00000000E-01  8.00000000E-01
  1.50000000E+00  1.50000000E+00  8.00000000E-01  8.00000000E-01  1.50000000E+00
  1.50000000E+00  8.00000000E-01  8.00000000E-01  1.50000000E+00  1.50000000E+00
  8.00000000E-01  8.00000000E-01  1.50000000E+00  1.50000000E+00  8.00000000E-01
  8.00000000E-01  1.50000000E+00  1.50000000E+00  8.00000000E-01  8.00000000E-01
  1.50000000E+00  1.50000000E+00  8.00000000E-01  8.00000000E-01  1.50000000E+00
  1.50000000E+00  8.00000000E-01  8.00000000E-01  1.50000000E+00  1.50000000E+00
  8.00000000E-01  8.00000000E-01  1.50000000E+00  1.50000000E+00  8.00000000E-01
  8.00000000E-01  1.50000000E+00  1.50000000E+00  8.00000000E-01  8.00000000E-01
  1.50000000E+00  1.50000000E+00  8.00000000E-01  8.00000000E-01  1.50000000E+00
  1.50000000E+00  8.00000000E-01  8.00000000E-01  1.50000000E+00  1.50000000E+00
  8.00000000E-01  8.00000000E-01  1.50000000E+00  1.50000000E+00  8.00000000E-01
  8.00000000E-01  1.50000000E+00  1.50000000E+00  8.00000000E-01  8.00000000E-01
  1.50000000E+00  1.50000000E+00  8.00000000E-01  8.00000000E-01  1.50000000E+00
  1.50000000E+00  8.00000000E-01  8.00000000E-01  1.50000000E+00  1.50000000E+00
  8.00000000E-01  8.00000000E-01  1.50000000E+00  1.50000000E+00  8.00000000E-01
  8.00000000E-01  1.50000000E+00  1.50000000E+00  8.00000000E-01  8.00000000E-01
  1.50000000E+00  1.50000000E+00  8.00000000E-01  8.00000000E-01  1.50000000E+00
  1.50000000E+00  8.00000000E-01  8.00000000E-01  1.50000000E+00  1.50000000E+00
  8.00000000E-01  8.00000000E-01  1.50000000E+00  1.50000000E+00  8.00000000E-01
  8.00000000E-01  1.50000000E+00  1.50000000E+00  8.00000000E-01  8.00000000E-01
  1.50000000E+00  1.50000000E+00  8.00000000E-01  8.00000000E-01  1.50000000E+00
  1.50000000E+00  8.00000000E-01  8.00000000E-01  1.50000000E+00  1.50000000E+00
  8.00000000E-01  8.00000000E-01  1.50000000E+00  1.50000000E+00  8.00000000E-01
  8.00000000E-01  1.50000000E+00  1.50000000E+00  8.00000000E-01  8.00000000E-01
  1.50000000E+00  1.50000000E+00  8.00000000E-01  8.00000000E-01  1.50000000E+00
  1.50000000E+00  8.00000000E-01  8.00000000E-01  1.50000000E+00  1.50000000E+00
  8.00000000E-01  8.00000000E-01  1.50000000E+00  1.50000000E+00  8.00000000E-01
  8.00000000E-01  1.50000000E+00  1.50000000E+00  8.00000000E-01  8.00000000E-01
  1.50000000E+00  1.50000000E+00  8.00000000E-01  8.00000000E-01  1.50000000E+00
  1.50000000E+00  8.00000000E-01  8.00000000E-01  1.50000000E+00  1.50000000E+00
  8.00000000E-01  8.00000000E-01  1.50000000E+00  1.50000000E+00  8.00000000E-01
  8.00000000E-01  1.50000000E+00  1.50000000E+00  8.00000000E-01  8.00000000E-01
  1.50000000E+00  1.50000000E+00  8.00000000E-01  8.00000000E-01  1.50000000E+00
  1.50000000E+00  8.00000000E-01  8.00000000E-01  1.50000000E+00  1.50000000E+00
  8.00000000E-01  8.00000000E-01  1.50000000E+00  1.50000000E+00  8.00000000E-01
  8.00000000E-01  1.50000000E+00  1.50000000E+00  8.00000000E-01  8.00000000E-01
  1.50000000E+00  1.50000000E+00  8.00000000E-01  8.00000000E-01  1.50000000E+00
  1.50000000E+00  8.00000000E-01  8.00000000E-01  1.50000000E+00  1.50000000E+00
  8.00000000E-01  8.00000000E-01  1.50000000E+00  1.50000000E+00  8.00000000E-01
  8.00000000E-01  1.50000000E+00  1.50000000E+00  8.00000000E-01  8.00000000E-01
  1.50000000E+00  1.50000000E+00  8.00000000E-01  8.00000000E-01  1.50000000E+00
  1.50000000E+00  8.00000000E-01  8.00000000E-01  1.50000000E+00  1.50000000E+00
  8.00000000E-01  8.00000000E-01  1.50000000E+00  1.50000000E+00  8.00000000E-01
  8.00000000E-01  1.50000000E+00  1.50000000E+00  8.00000000E-01  8.00000000E-01
  1.50000000E+00  1.50000000E+00  8.00000000E-01  8.00000000E-01  1.50000000E+00
  1.50000000E+00  8.00000000E-01  8.00000000E-01  1.50000000E+00  1.50000000E+00
  8.00000000E-01  8.00000000E-01  1.50000000E+00  1.50000000E+00  8.00000000E-01
  8.00000000E-01  1.50000000E+00  1.50000000E+00  8.00000000E-01  8.00000000E-01
  1.50000000E+00  1.50000000E+00  8.00000000E-01  8.00000000E-01  1.50000000E+00
  1.50000000E+00  8.00000000E-01  8.00000000E-01  1.50000000E+00  1.50000000E+00
  8.00000000E-01  8.00000000E-01  1.50000000E+00  1.50000000E+00  8.00000000E-01
  8.00000000E-01  1.50000000E+00  1.50000000E+00  8.00000000E-01  8.00000000E-01
  1.50000000E+00  1.50000000E+00  8.00000000E-01  8.00000000E-01  1.50000000E+00
  1.50000000E+00  8.00000000E-01  8.00000000E-01  1.50000000E+00  1.50000000E+00
  8.00000000E-01  8.00000000E-01  1.50000000E+00  1.50000000E+00  8.00000000E-01
  8.00000000E-01  1.50000000E+00  1.50000000E+00  8.00000000E-01  8.00000000E-01
  1.50000000E+00  1.50000000E+00  8.00000000E-01  8.00000000E-01  1.50000000E+00
  1.50000000E+00  8.00000000E-01  8.00000000E-01  1.50000000E+00  1.50000000E+00
  8.00000000E-01  8.00000000E-01  1.50000000E+00  1.50000000E+00  8.00000000E-01
  8.00000000E-01  1.50000000E+00  1.50000000E+00  8.00000000E-01  8.00000000E-01
  1.50000000E+00  1.50000000E+00  8.00000000E-01  8.00000000E-01  1.50000000E+00
  1.50000000E+00  8.00000000E-01  8.00000000E-01  1.50000000E+00  1.50000000E+00
  8.00000000E-01  8.00000000E-01  1.50000000E+00  1.50000000E+00  8.00000000E-01
  8.00000000E-01  1.50000000E+00  1.50000000E+00  8.00000000E-01  8.00000000E-01
  1.50000000E+00  1.50000000E+00  8.00000000E-01  8.00000000E-01  1.50000000E+00
  1.50000000E+00  8.00000000E-01  8.00000000E-01  1.50000000E+00  1.50000000E+00
  8.00000000E-01  8.00000000E-01  1.50000000E+00  1.50000000E+00  8.00000000E-01
  8.00000000E-01  1.50000000E+00  1.50000000E+00  8.00000000E-01  8.00000000E-01
  1.50000000E+00  1.50000000E+00  8.00000000E-01  8.00000000E-01  1.50000000E+00
  1.50000000E+00  8.00000000E-01  8.00000000E-01  1.50000000E+00  1.50000000E+00
  8.00000000E-01  8.00000000E-01  1.50000000E+00  1.50000000E+00  8.00000000E-01
  8.00000000E-01  1.50000000E+00  1.50000000E+00  8.00000000E-01  8.00000000E-01
  1.50000000E+00  1.50000000E+00  8.00000000E-01  8.00000000E-01  1.50000000E+00
  1.50000000E+00  8.00000000E-01  8.00000000E-01  1.50000000E+00  1.50000000E+00
  8.00000000E-01  8.00000000E-01  1.50000000E+00  1.50000000E+00  8.00000000E-01
  8.00000000E-01  1.50000000E+00  1.50000000E+00  8.00000000E-01  8.00000000E-01
  1.50000000E+00  1.50000000E+00  8.00000000E-01  8.00000000E-01  1.50000000E+00
  1.50000000E+00  8.00000000E-01  8.00000000E-01  1.50000000E+00  1.50000000E+00
  8.00000000E-01  8.00000000E-01  1.50000000E+00  1.50000000E+00  8.00000000E-01
  8.00000000E-01  1.50000000E+00  1.50000000E+00  8.00000000E-01  8.00000000E-01
  1.50000000E+00  1.50000000E+00  8.00000000E-01  8.00000000E-01  1.50000000E+00
  1.50000000E+00  8.00000000E-01  8.00000000E-01  1.50000000E+00  1.50000000E+00
  8.00000000E-01  8.00000000E-01  1.50000000E+00  1.50000000E+00  8.00000000E-01
  8.00000000E-01  1.50000000E+00  1.50000000E+00  8.00000000E-01  8.00000000E-01
  1.50000000E+00  1.50000000E+00  8.00000000E-01  8.00000000E-01  1.50000000E+00
  1.50000000E+00  8.00000000E-01  8.00000000E-01  1.50000000E+00  1.50000000E+00
  8.00000000E-01  8.00000000E-01  1.50000000E+00  1.50000000E+00  8.00000000E-01
  8.00000000E-01  1.50000000E+00  1.50000000E+00  8.00000000E-01  8.00000000E-01
  1.50000000E+00  1.50000000E+00  8.00000000E-01  8.00000000E-01  1.50000000E+00
  1.50000000E+00  8.00000000E-01  8.00000000E-01  1.50000000E+00  1.50000000E+00
  8.00000000E-01  8.00000000E-01  1.50000000E+00  1.50000000E+00  8.00000000E-01
  8.00000000E-01  1.50000000E+00  1.50000000E+00  8.00000000E-01  8.00000000E-01
  1.50000000E+00  1.50000000E+00  8.00000000E-01  8.00000000E-01  1.50000000E+00
  1.50000000E+00  8.00000000E-01  8.00000000E-01  1.50000000E+00  1.50000000E+00
  8.00000000E-01  8.00000000E-01  1.50000000E+00  1.50000000E+00  8.00000000E-01
  8.00000000E-01  1.50000000E+00  1.50000000E+00  8.00000000E-01  8.00000000E-01
  1.50000000E+00  1.50000000E+00  8.00000000E-01  8.00000000E-01  1.50000000E+00
  1.50000000E+00  8.00000000E-01  8.00000000E-01  1.50000000E+00  1.50000000E+00
  8.00000000E-01  8.00000000E-01  1.50000000E+00  1.50000000E+00  8.00000000E-01
  8.00000000E-01  1.50000000E+00  1.50000000E+00  8.00000000E-01  8.00000000E-01
  1.50000000E+00  1.50000000E+00  8.00000000E-01  8.00000000E-01  1.50000000E+00
  1.50000000E+00  8.00000000E-01  8.00000000E-01  1.50000000E+00  1.50000000E+00
  8.00000000E-01  8.00000000E-01  1.50000000E+00  1.50000000E+00  8.00000000E-01
  8.00000000E-01  1.50000000E+00  1.50000000E+00  8.00000000E-01  8.00000000E-01
  1.50000000E+00  1.50000000E+00  8.00000000E-01  8.00000000E-01  1.50000000E+00
  1.50000000E+00  8.00000000E-01  8.00000000E-01  1.50000000E+00  1.50000000E+00
  8.00000000E-01  8.00000000E-01  1.50000000E+00  1.50000000E+00  8.00000000E-01
  8.00000000E-01  1.50000000E+00  1.50000000E+00  8.00000000E-01  8.00000000E-01
  1.50000000E+00  1.50000000E+00  8.00000000E-01  8.00000000E-01  1.50000000E+00
  1.50000000E+00  8.00000000E-01  8.00000000E-01  1.50000000E+00  1.50000000E+00
  8.00000000E-01  8.00000000E-01  1.50000000E+00  1.50000000E+00  8.00000000E-01
  8.00000000E-01  1.50000000E+00  1.50000000E+00  8.00000000E-01  8.00000000E-01
  1.50000000E+00  1.50000000E+00  8.00000000E-01  8.00000000E-01  1.50000000E+00
  1.50000000E+00  8.00000000E-01  8.00000000E-01  1.50000000E+00  1.50000000E+00
  8.00000000E-01  8.00000000E-01  1.50000000E+00  1.50000000E+00  8.00000000E-01
  8.00000000E-01  1.50000000E+00  1.50000000E+00  8.00000000E-01  8.00000000E-01
  1.50000000E+00  1.50000000E+00  8.00000000E-01  8.00000000E-01  1.50000000E+00
  1.50000000E+00  8.00000000E-01  8.00000000E-01  1.50000000E+00  1.50000000E+00
  8.00000000E-01  8.00000000E-01  1.50000000E+00  1.50000000E+00  8.00000000E-01
  8.00000000E-01  1.50000000E+00  1.50000000E+00  8.00000000E-01  8.00000000E-01
  1.50000000E+00  1.50000000E+00  8.00000000E-01  8.00000000E-01  1.50000000E+00
  1.50000000E+00  8.00000000E-01  8.00000000E-01  1.50000000E+00  1.50000000E+00
  8.00000000E-01  8.00000000E-01  1.50000000E+00  1.50000000E+00  8.00000000E-01
  8.00000000E-01  1.50000000E+00  1.50000000E+00  8.00000000E-01  8.00000000E-01
  1.50000000E+00  1.50000000E+00  8.00000000E-01  8.00000000E-01  1.50000000E+00
  1.50000000E+00  8.00000000E-01  8.00000000E-01  1.50000000E+00  1.50000000E+00
  8.00000000E-01  8.00000000E-01  1.50000000E+00  1.50000000E+00  8.00000000E-01
  8.00000000E-01  1.50000000E+00  1.50000000E+00  8.00000000E-01  8.00000000E-01
  1.50000000E+00  1.50000000E+00  8.00000000E-01  8.00000000E-01  1.50000000E+00
  1.50000000E+00  8.00000000E-01  8.00000000E-01  1.50000000E+00  1.50000000E+00
  8.00000000E-01  8.00000000E-01  1.50000000E+00  1.50000000E+00  8.00000000E-01
  8.00000000E-01  1.50000000E+00  1.50000000E+00  8.00000000E-01  8.00000000E-01
  1.50000000E+00  1.50000000E+00  8.00000000E-01  8.00000000E-01  1.50000000E+00
  1.50000000E+00  8.00000000E-01  8.00000000E-01  1.50000000E+00  1.50000000E+00
  8.00000000E-01  8.00000000E-01  1.50000000E+00  1.50000000E+00  8.00000000E-01
  8.00000000E-01  1.50000000E+00  1.50000000E+00  8.00000000E-01  8.00000000E-01
  1.50000000E+00  1.50000000E+00  8.00000000E-01  8.00000000E-01  1.50000000E+00
  1.50000000E+00  8.00000000E-01  8.00000000E-01  1.50000000E+00  1.50000000E+00
  8.00000000E-01  8.00000000E-01  1.50000000E+00  1.50000000E+00  8.00000000E-01
  8.00000000E-01  1.50000000E+00  1.50000000E+00  8.00000000E-01  8.00000000E-01
  1.50000000E+00  1.50000000E+00  8.00000000E-01  8.00000000E-01  1.50000000E+00
  1.50000000E+00  8.00000000E-01  8.00000000E-01  1.50000000E+00  1.50000000E+00
  8.00000000E-01  8.00000000E-01  1.50000000E+00  1.50000000E+00  8.00000000E-01
  8.00000000E-01  1.50000000E+00  1.50000000E+00  8.00000000E-01  8.00000000E-01
  1.50000000E+00  1.50000000E+00  8.00000000E-01  8.00000000E-01  1.50000000E+00
  1.50000000E+00  8.00000000E-01  8.00000000E-01  1.50000000E+00  1.50000000E+00
  8.00000000E-01  8.00000000E-01  1.50000000E+00  1.50000000E+00  8.00000000E-01
  8.00000000E-01  1.50000000E+00  1.50000000E+00  8.00000000E-01  8.00000000E-01
  1.50000000E+00  1.50000000E+00  8.00000000E-01  8.00000000E-01  1.50000000E+00
  1.50000000E+00  8.00000000E-01  8.00000000E-01  1.50000000E+00  1.50000000E+00
  8.00000000E-01  8.00000000E-01  1.50000000E+00  1.50000000E+00  8.00000000E-01
  8.00000000E-01  1.50000000E+00  1.50000000E+00  8.00000000E-01  8.00000000E-01
  1.50000000E+00  1.50000000E+00  8.00000000E-01  8.00000000E-01  1.50000000E+00
  1.50000000E+00  8.00000000E-01  8.00000000E-01  1.50000000E+00  1.50000000E+00
  8.00000000E-01  8.00000000E-01  1.50000000E+00  1.50000000E+00  8.00000000E-01
  8.00000000E-01  1.50000000E+00  1.50000000E+00  8.00000000E-01  8.00000000E-01
  1.50000000E+00  1.50000000E+00  8.00000000E-01  8.00000000E-01  1.50000000E+00
  1.50000000E+00  8.00000000E-01  8.00000000E-01  1.50000000E+00  1.50000000E+00
  8.00000000E-01  8.00000000E-01  1.50000000E+00  1.50000000E+00  8.00000000E-01
  8.00000000E-01  1.50000000E+00  1.50000000E+00  8.00000000E-01  8.00000000E-01
  1.50000000E+00  1.50000000E+00  8.00000000E-01  8.00000000E-01  1.50000000E+00
  1.50000000E+00  8.00000000E-01  8.00000000E-01  1.50000000E+00  1.50000000E+00
  8.00000000E-01  8.00000000E-01  1.50000000E+00  1.50000000E+00  8.00000000E-01
  8.00000000E-01  1.50000000E+00  1.50000000E+00  8.00000000E-01  8.00000000E-01
  1.50000000E+00  1.50000000E+00  8.00000000E-01  8.00000000E-01  1.50000000E+00
  1.50000000E+00  8.00000000E-01  8.00000000E-01  1.50000000E+00  1.50000000E+00
  8.00000000E-01  8.00000000E-01  1.50000000E+00  1.50000000E+00  8.00000000E-01
  8.00000000E-01  1.50000000E+00  1.50000000E+00  8.00000000E-01  8.00000000E-01
  1.50000000E+00  1.50000000E+00  8.00000000E-01  8.00000000E-01  1.50000000E+00
  1.50000000E+00  8.00000000E-01  8.00000000E-01  1.50000000E+00  1.50000000E+00
  8.00000000E-01  8.00000000E-01  1.50000000E+00  1.50000000E+00  8.00000000E-01
  8.00000000E-01  1.50000000E+00  1.50000000E+00  8.00000000E-01  8.00000000E-01
  1.50000000E+00  1.50000000E+00  8.00000000E-01  8.00000000E-01  1.50000000E+00
  1.50000000E+00  8.00000000E-01  8.00000000E-01  1.50000000E+00  1.50000000E+00
  8.00000000E-01  8.00000000E-01  1.50000000E+00  1.50000000E+00  8.00000000E-01
  8.00000000E-01  1.50000000E+00  1.50000000E+00  8.00000000E-01  8.00000000E-01
  1.50000000E+00  1.50000000E+00  8.00000000E-01  8.00000000E-01  1.50000000E+00
  1.50000000E+00  8.00000000E-01  8.00000000E-01  1.50000000E+00  1.50000000E+00
  8.00000000E-01  8.00000000E-01  1.50000000E+00  1.50000000E+00  8.00000000E-01
  8.00000000E-01  1.50000000E+00  1.50000000E+00  8.00000000E-01  8.00000000E-01
  1.50000000E+00  1.50000000E+00  8.00000000E-01  8.00000000E-01  1.50000000E+00
  1.50000000E+00  8.00000000E-01  8.00000000E-01  1.50000000E+00  1.50000000E+00
  8.00000000E-01  8.00000000E-01  1.50000000E+00  1.50000000E+00  8.00000000E-01
  8.00000000E-01  1.50000000E+00  1.50000000E+00  8.00000000E-01  8.00000000E-01
  1.50000000E+00  1.50000000E+00  8.00000000E-01  8.00000000E-01  1.50000000E+00
  1.50000000E+00  8.00000000E-01  8.00000000E-01  1.50000000E+00  1.50000000E+00
  8.00000000E-01  8.00000000E-01  1.50000000E+00  1.50000000E+00  8.00000000E-01
  8.00000000E-01  1.50000000E+00  1.50000000E+00  8.00000000E-01  8.00000000E-01
  1.50000000E+00  1.50000000E+00  8.00000000E-01  8.00000000E-01  1.50000000E+00
  1.50000000E+00  8.00000000E-01  8.00000000E-01  1.50000000E+00  1.50000000E+00
  8.00000000E-01  8.00000000E-01  1.50000000E+00  1.50000000E+00  8.00000000E-01
  8.00000000E-01  1.50000000E+00  1.50000000E+00  8.00000000E-01  8.00000000E-01
  1.50000000E+00  1.50000000E+00  8.00000000E-01  8.00000000E-01  1.50000000E+00
  1.50000000E+00  8.00000000E-01  8.00000000E-01  1.50000000E+00  1.50000000E+00
  8.00000000E-01  8.00000000E-01  1.50000000E+00  1.50000000E+00  8.00000000E-01
  8.00000000E-01  1.50000000E+00  1.50000000E+00  8.00000000E-01  8.00000000E-01
  1.50000000E+00  1.50000000E+00  8.00000000E-01  8.00000000E-01  1.50000000E+00
  1.50000000E+00  8.00000000E-01  8.00000000E-01  1.50000000E+00  1.50000000E+00
  8.00000000E-01  8.00000000E-01  1.50000000E+00  1.50000000E+00  8.00000000E-01
  8.00000000E-01  1.50000000E+00  1.50000000E+00  8.00000000E-01  8.00000000E-01
  1.50000000E+00  1.50000000E+00  8.00000000E-01  8.00000000E-01  1.50000000E+00
  1.50000000E+00  8.00000000E-01  8.00000000E-01  1.50000000E+00  1.50000000E+00
  8.00000000E-01  8.00000000E-01  1.50000000E+00  1.50000000E+00  8.00000000E-01
  8.00000000E-01  1.50000000E+00  1.50000000E+00  8.00000000E-01  8.00000000E-01
  1.50000000E+00  1.50000000E+00  8.00000000E-01  8.00000000E-01  1.50000000E+00
  1.50000000E+00  8.00000000E-01  8.00000000E-01  1.50000000E+00  1.50000000E+00
  8.00000000E-01  8.00000000E-01  1.50000000E+00  1.50000000E+00  8.00000000E-01
  8.00000000E-01  1.50000000E+00  1.50000000E+00  8.00000000E-01  8.00000000E-01
  1.50000000E+00  1.50000000E+00  8.00000000E-01  8.00000000E-01  1.50000000E+00
  1.50000000E+00  8.00000000E-01  8.00000000E-01  1.50000000E+00  1.50000000E+00
  8.00000000E-01  8.00000000E-01  1.50000000E+00  1.50000000E+00  8.00000000E-01
  8.00000000E-01  1.50000000E+00  1.50000000E+00  8.00000000E-01  8.00000000E-01
  1.50000000E+00  1.50000000E+00  8.00000000E-01  8.00000000E-01  1.50000000E+00
  1.50000000E+00  8.00000000E-01  8.00000000E-01  1.50000000E+00  1.50000000E+00
  8.00000000E-01  8.00000000E-01  1.50000000E+00  1.50000000E+00  8.00000000E-01
  8.00000000E-01  1.50000000E+00  1.50000000E+00  8.00000000E-01  8.00000000E-01
  1.50000000E+00  1.50000000E+00  8.00000000E-01  8.00000000E-01  1.50000000E+00
  1.50000000E+00  8.00000000E-01  8.00000000E-01  1.50000000E+00  1.50000000E+00
  8.00000000E-01  8.00000000E-01  1.50000000E+00  1.50000000E+00  8.00000000E-01
  8.00000000E-01  1.50000000E+00  1.50000000E+00  8.00000000E-01  8.00000000E-01
  1.50000000E+00  1.50000000E+00  8.00000000E-01  8.00000000E-01  1.50000000E+00
  1.50000000E+00  8.00000000E-01  8.00000000E-01  1.50000000E+00  1.50000000E+00
  8.00000000E-01  8.00000000E-01  1.50000000E+00  1.50000000E+00  8.00000000E-01
  8.00000000E-01  1.50000000E+00  1.50000000E+00  8.00000000E-01  8.00000000E-01
  1.50000000E+00  1.50000000E+00  8.00000000E-01  8.00000000E-01  1.50000000E+00
  1.50000000E+00  8.00000000E-01  8.00000000E-01  1.50000000E+00  1.50000000E+00
  8.00000000E-01  8.00000000E-01  1.50000000E+00  1.50000000E+00  8.00000000E-01
  8.00000000E-01  1.50000000E+00  1.50000000E+00  8.00000000E-01  8.00000000E-01
  1.50000000E+00  1.50000000E+00  8.00000000E-01  8.00000000E-01  1.50000000E+00
  1.50000000E+00  8.00000000E-01  8.00000000E-01  1.50000000E+00  1.50000000E+00
  8.00000000E-01  8.00000000E-01  1.50000000E+00  1.50000000E+00  8.00000000E-01
  8.00000000E-01  1.50000000E+00  1.50000000E+00  8.00000000E-01  8.00000000E-01
  1.50000000E+00  1.50000000E+00  8.00000000E-01  8.00000000E-01  1.50000000E+00
  1.50000000E+00  8.00000000E-01  8.00000000E-01  1.50000000E+00  1.50000000E+00
  8.00000000E-01  8.00000000E-01  1.50000000E+00  1.50000000E+00  8.00000000E-01
  8.00000000E-01  1.50000000E+00  1.50000000E+00  8.00000000E-01  8.00000000E-01
  1.50000000E+00  1.50000000E+00  8.00000000E-01  8.00000000E-01  1.50000000E+00
  1.50000000E+00  8.00000000E-01  8.00000000E-01  1.50000000E+00  1.50000000E+00
  8.00000000E-01  8.00000000E-01  1.50000000E+00  1.50000000E+00  8.00000000E-01
  8.00000000E-01  1.50000000E+00  1.50000000E+00  8.00000000E-01  8.00000000E-01
  1.50000000E+00  1.50000000E+00  8.00000000E-01  8.00000000E-01  1.50000000E+00
  1.50000000E+00  8.00000000E-01  8.00000000E-01  1.50000000E+00  1.50000000E+00
  8.00000000E-01  8.00000000E-01  1.50000000E+00  1.50000000E+00  8.00000000E-01
  8.00000000E-01  1.50000000E+00  1.50000000E+00  8.00000000E-01  8.00000000E-01
  1.50000000E+00  1.50000000E+00  8.00000000E-01  8.00000000E-01  1.50000000E+00
  1.50000000E+00  8.00000000E-01  8.00000000E-01  1.50000000E+00  1.50000000E+00
  8.00000000E-01  8.00000000E-01  1.50000000E+00  1.50000000E+00  8.00000000E-01
  8.00000000E-01  1.50000000E+00  1.50000000E+00  8.00000000E-01  8.00000000E-01
  1.50000000E+00  1.50000000E+00  8.00000000E-01  8.00000000E-01  1.50000000E+00
  1.50000000E+00  8.00000000E-01  8.00000000E-01  1.50000000E+00  1.50000000E+00
  8.00000000E-01  8.00000000E-01  1.50000000E+00  1.50000000E+00  8.00000000E-01
  8.00000000E-01  1.50000000E+00  1.50000000E+00  8.00000000E-01  8.00000000E-01
  1.50000000E+00  1.50000000E+00  8.00000000E-01  8.00000000E-01  1.50000000E+00
  1.50000000E+00  8.00000000E-01  8.00000000E-01  1.50000000E+00  1.50000000E+00
  8.00000000E-01  8.00000000E-01  1.50000000E+00  1.50000000E+00  8.00000000E-01
  8.00000000E-01  1.50000000E+00  1.50000000E+00  8.00000000E-01  8.00000000E-01
  1.50000000E+00  1.50000000E+00  8.00000000E-01  8.00000000E-01  1.50000000E+00
  1.50000000E+00  8.00000000E-01  8.00000000E-01  1.50000000E+00  1.50000000E+00
  8.00000000E-01  8.00000000E-01  1.50000000E+00  1.50000000E+00  8.00000000E-01
  8.00000000E-01  1.50000000E+00  1.50000000E+00  8.00000000E-01  8.00000000E-01
  1.50000000E+00  1.50000000E+00  8.00000000E-01  8.00000000E-01  1.50000000E+00
  1.50000000E+00  8.00000000E-01  8.00000000E-01  1.50000000E+00  1.50000000E+00
  8.00000000E-01  8.00000000E-01  1.50000000E+00  1.50000000E+00  8.00000000E-01
  8.00000000E-01  1.50000000E+00  1.50000000E+00  8.00000000E-01  8.00000000E-01
  1.50000000E+00  1.50000000E+00  8.00000000E-01  8.00000000E-01  1.50000000E+00
  1.50000000E+00  8.00000000E-01  8.00000000E-01  1.50000000E+00  1.50000000E+00
  8.00000000E-01  8.00000000E-01  1.50000000E+00  1.50000000E+00  8.00000000E-01
  8.00000000E-01  1.50000000E+00  1.50000000E+00  8.00000000E-01  8.00000000E-01
  1.50000000E+00  1.50000000E+00  8.00000000E-01  8.00000000E-01  1.50000000E+00
  1.50000000E+00  8.00000000E-01  8.00000000E-01  1.50000000E+00  1.50000000E+00
  8.00000000E-01  8.00000000E-01  1.50000000E+00  1.50000000E+00  8.00000000E-01
  8.00000000E-01  1.50000000E+00  1.50000000E+00  8.00000000E-01  8.00000000E-01
  1.50000000E+00  1.50000000E+00  8.00000000E-01  8.00000000E-01  1.50000000E+00
  1.50000000E+00  8.00000000E-01  8.00000000E-01  1.50000000E+00  1.50000000E+00
  8.00000000E-01  8.00000000E-01  1.50000000E+00  1.50000000E+00  8.00000000E-01
  8.00000000E-01  1.50000000E+00  1.50000000E+00  8.00000000E-01  8.00000000E-01
  1.50000000E+00  1.50000000E+00  8.00000000E-01  8.00000000E-01  1.50000000E+00
  1.50000000E+00  8.00000000E-01  8.00000000E-01  1.50000000E+00  1.50000000E+00
  8.00000000E-01  8.00000000E-01  1.50000000E+00  1.50000000E+00  8.00000000E-01
  8.00000000E-01  1.50000000E+00  1.50000000E+00  8.00000000E-01  8.00000000E-01
  1.50000000E+00  1.50000000E+00  8.00000000E-01  8.00000000E-01  1.50000000E+00
  1.50000000E+00  8.00000000E-01  8.00000000E-01  1.50000000E+00  1.50000000E+00
  8.00000000E-01  8.00000000E-01  1.50000000E+00  1.50000000E+00  8.00000000E-01
  8.00000000E-01  1.50000000E+00  1.50000000E+00  8.00000000E-01  8.00000000E-01
  1.50000000E+00  1.50000000E+00  8.00000000E-01  8.00000000E-01  1.50000000E+00
  1.50000000E+00  8.00000000E-01  8.00000000E-01  1.50000000E+00  1.50000000E+00
  8.00000000E-01  8.00000000E-01  1.50000000E+00  1.50000000E+00  8.00000000E-01
  8.00000000E-01  1.50000000E+00  1.50000000E+00  8.00000000E-01  8.00000000E-01
  1.50000000E+00  1.50000000E+00  8.00000000E-01  8.00000000E-01  1.50000000E+00
  1.50000000E+00  8.00000000E-01  8.00000000E-01  1.50000000E+00  1.50000000E+00
  8.00000000E-01  8.00000000E-01  1.50000000E+00  1.50000000E+00  8.00000000E-01
  8.00000000E-01  1.50000000E+00  1.50000000E+00  8.00000000E-01  8.00000000E-01
  1.50000000E+00  1.50000000E+00  8.00000000E-01  8.00000000E-01  1.50000000E+00
  1.50000000E+00  8.00000000E-01  8.00000000E-01  1.50000000E+00  1.50000000E+00
  8.00000000E-01  8.00000000E-01  1.50000000E+00  1.50000000E+00  8.00000000E-01
  8.00000000E-01  1.50000000E+00  1.50000000E+00  8.00000000E-01  8.00000000E-01
  1.50000000E+00  1.50000000E+00  8.00000000E-01  8.00000000E-01  1.50000000E+00
  1.50000000E+00  8.00000000E-01  8.00000000E-01  1.50000000E+00  1.50000000E+00
  8.00000000E-01  8.00000000E-01  1.50000000E+00  1.50000000E+00  8.00000000E-01
  8.00000000E-01  1.50000000E+00  1.50000000E+00  8.00000000E-01  8.00000000E-01
  1.50000000E+00  1.50000000E+00  8.00000000E-01  8.00000000E-01  1.50000000E+00
  1.50000000E+00  8.00000000E-01  8.00000000E-01  1.50000000E+00  1.50000000E+00
  8.00000000E-01  8.00000000E-01  1.50000000E+00  1.50000000E+00  8.00000000E-01
  8.00000000E-01  1.50000000E+00  1.50000000E+00  8.00000000E-01  8.00000000E-01
  1.50000000E+00  1.50000000E+00  8.00000000E-01  8.00000000E-01  1.50000000E+00
  1.50000000E+00  8.00000000E-01  8.00000000E-01  1.50000000E+00  1.50000000E+00
  8.00000000E-01  8.00000000E-01  1.50000000E+00  1.50000000E+00  8.00000000E-01
  8.00000000E-01  1.50000000E+00  1.50000000E+00  8.00000000E-01  8.00000000E-01
  1.50000000E+00  1.50000000E+00  8.00000000E-01  8.00000000E-01  1.50000000E+00
  1.50000000E+00  8.00000000E-01  8.00000000E-01  1.50000000E+00  1.50000000E+00
  8.00000000E-01  8.00000000E-01  1.50000000E+00  1.50000000E+00  8.00000000E-01
  8.00000000E-01  1.50000000E+00  1.50000000E+00  8.00000000E-01  8.00000000E-01
  1.50000000E+00  1.50000000E+00  8.00000000E-01  8.00000000E-01  1.50000000E+00
  1.50000000E+00  8.00000000E-01  8.00000000E-01  1.50000000E+00  1.50000000E+00
  8.00000000E-01  8.00000000E-01  1.50000000E+00  1.50000000E+00  8.00000000E-01
  8.00000000E-01  1.50000000E+00  1.50000000E+00  8.00000000E-01  8.00000000E-01
  1.50000000E+00  1.50000000E+00  8.00000000E-01  8.00000000E-01  1.50000000E+00
  1.50000000E+00  8.00000000E-01  8.00000000E-01  1.50000000E+00  1.50000000E+00
  8.00000000E-01  8.00000000E-01  1.50000000E+00  1.50000000E+00  8.00000000E-01
  8.00000000E-01  1.50000000E+00  1.50000000E+00  8.00000000E-01  8.00000000E-01
  1.50000000E+00  1.50000000E+00  8.00000000E-01  8.00000000E-01  1.50000000E+00
  1.50000000E+00  8.00000000E-01  8.00000000E-01  1.50000000E+00  1.50000000E+00
  8.00000000E-01  8.00000000E-01  1.50000000E+00  1.50000000E+00  8.00000000E-01
  8.00000000E-01  1.50000000E+00  1.50000000E+00  8.00000000E-01  8.00000000E-01
  1.50000000E+00  1.50000000E+00  8.00000000E-01  8.00000000E-01  1.50000000E+00
  1.50000000E+00  8.00000000E-01  8.00000000E-01  1.50000000E+00  1.50000000E+00
  8.00000000E-01  8.00000000E-01  1.50000000E+00  1.50000000E+00  8.00000000E-01
  8.00000000E-01  1.50000000E+00  1.50000000E+00  8.00000000E-01  8.00000000E-01
  1.50000000E+00  1.50000000E+00  8.00000000E-01  8.00000000E-01  1.50000000E+00
  1.50000000E+00  8.00000000E-01  8.00000000E-01  1.50000000E+00  1.50000000E+00
  8.00000000E-01  8.00000000E-01  1.50000000E+00  1.50000000E+00  8.00000000E-01
  8.00000000E-01  1.50000000E+00  1.50000000E+00  8.00000000E-01  8.00000000E-01
  1.50000000E+00  1.50000000E+00  8.00000000E-01  8.00000000E-01  1.50000000E+00
  1.50000000E+00  8.00000000E-01  8.00000000E-01  1.50000000E+00  1.50000000E+00
  8.00000000E-01  8.00000000E-01  1.50000000E+00  1.50000000E+00  8.00000000E-01
  8.00000000E-01  1.50000000E+00  1.50000000E+00  8.00000000E-01  8.00000000E-01
  1.50000000E+00  1.50000000E+00  8.00000000E-01  8.00000000E-01  1.50000000E+00
  1.50000000E+00  8.00000000E-01  8.00000000E-01  1.50000000E+00  1.50000000E+00
  8.00000000E-01  8.00000000E-01  1.50000000E+00  1.50000000E+00  8.00000000E-01
  8.00000000E-01  1.50000000E+00  1.50000000E+00  8.00000000E-01  8.00000000E-01
  1.50000000E+00  1.50000000E+00  8.00000000E-01  8.00000000E-01  1.50000000E+00
  1.50000000E+00  8.00000000E-01  8.00000000E-01  1.50000000E+00  1.50000000E+00
  8.00000000E-01  8.00000000E-01  1.50000000E+00  1.50000000E+00  8.00000000E-01
  8.00000000E-01  1.50000000E+00  1.50000000E+00  8.00000000E-01  8.00000000E-01
  1.50000000E+00  1.50000000E+00  8.00000000E-01  8.00000000E-01  1.50000000E+00
  1.50000000E+00  8.00000000E-01  8.00000000E-01  1.50000000E+00  1.50000000E+00
  8.00000000E-01  8.00000000E-01  1.50000000E+00  1.50000000E+00  8.00000000E-01
  8.00000000E-01  1.50000000E+00  1.50000000E+00  8.00000000E-01  8.00000000E-01
  1.50000000E+00  1.50000000E+00  8.00000000E-01  8.00000000E-01  1.50000000E+00
  1.50000000E+00  8.00000000E-01  8.00000000E-01  1.50000000E+00  1.50000000E+00
  8.00000000E-01  8.00000000E-01  1.50000000E+00  1.50000000E+00  8.00000000E-01
  8.00000000E-01  1.50000000E+00  1.50000000E+00  8.00000000E-01  8.00000000E-01
  1.50000000E+00  1.50000000E+00  8.00000000E-01  8.00000000E-01  1.50000000E+00
  1.50000000E+00  8.00000000E-01  8.00000000E-01  1.50000000E+00  1.50000000E+00
  8.00000000E-01  8.00000000E-01  1.50000000E+00  1.50000000E+00  8.00000000E-01
  8.00000000E-01  1.50000000E+00  1.50000000E+00  8.00000000E-01  8.00000000E-01
  1.50000000E+00  1.50000000E+00  8.00000000E-01  8.00000000E-01  1.50000000E+00
  1.50000000E+00  8.00000000E-01  8.00000000E-01  1.50000000E+00  1.50000000E+00
  8.00000000E-01  8.00000000E-01  1.50000000E+00  1.50000000E+00  8.00000000E-01
  8.00000000E-01  1.50000000E+00  1.50000000E+00  8.00000000E-01  8.00000000E-01
  1.50000000E+00  1.50000000E+00  8.00000000E-01  8.00000000E-01  1.50000000E+00
  1.50000000E+00  8.00000000E-01  8.00000000E-01  1.50000000E+00  1.50000000E+00
  8.00000000E-01  8.00000000E-01  1.50000000E+00  1.50000000E+00  8.00000000E-01
  8.00000000E-01  1.50000000E+00  1.50000000E+00  8.00000000E-01  8.00000000E-01
  1.50000000E+00  1.50000000E+00  8.00000000E-01  8.00000000E-01  1.50000000E+00
  1.50000000E+00  8.00000000E-01  8.00000000E-01  1.50000000E+00  1.50000000E+00
  8.00000000E-01  8.00000000E-01  1.50000000E+00  1.50000000E+00  8.00000000E-01
  8.00000000E-01  1.50000000E+00  1.50000000E+00  8.00000000E-01  8.00000000E-01
  1.50000000E+00  1.50000000E+00  8.00000000E-01  8.00000000E-01  1.50000000E+00
  1.50000000E+00  8.00000000E-01  8.00000000E-01  1.50000000E+00  1.50000000E+00
  8.00000000E-01  8.00000000E-01  1.50000000E+00  1.50000000E+00  8.00000000E-01
  8.00000000E-01  1.50000000E+00  1.50000000E+00  8.00000000E-01  8.00000000E-01
  1.50000000E+00  1.50000000E+00  8.00000000E-01  8.00000000E-01  1.50000000E+00
  1.50000000E+00  8.00000000E-01  8.00000000E-01  1.50000000E+00  1.50000000E+00
  8.00000000E-01  8.00000000E-01  1.50000000E+00  1.50000000E+00  8.00000000E-01
  8.00000000E-01  1.50000000E+00  1.50000000E+00  8.00000000E-01  8.00000000E-01
  1.50000000E+00  1.50000000E+00  8.00000000E-01  8.00000000E-01  1.50000000E+00
  1.50000000E+00  8.00000000E-01  8.00000000E-01  1.50000000E+00  1.50000000E+00
  8.00000000E-01  8.00000000E-01  1.50000000E+00  1.50000000E+00  8.00000000E-01
  8.00000000E-01  1.50000000E+00  1.50000000E+00  8.00000000E-01  8.00000000E-01
  1.50000000E+00  1.50000000E+00  8.00000000E-01  8.00000000E-01  1.50000000E+00
  1.50000000E+00  8.00000000E-01  8.00000000E-01  1.50000000E+00  1.50000000E+00
  8.00000000E-01  8.00000000E-01  1.50000000E+00  1.50000000E+00  8.00000000E-01
  8.00000000E-01  1.50000000E+00  1.50000000E+00  8.00000000E-01  8.00000000E-01
  1.50000000E+00  1.50000000E+00  8.00000000E-01  8.00000000E-01  1.50000000E+00
  1.50000000E+00  8.00000000E-01  8.00000000E-01  1.50000000E+00  1.50000000E+00
  8.00000000E-01  8.00000000E-01  1.50000000E+00  1.50000000E+00  8.00000000E-01
  8.00000000E-01  1.50000000E+00  1.50000000E+00  8.00000000E-01  8.00000000E-01
  1.50000000E+00  1.50000000E+00  8.00000000E-01  8.00000000E-01  1.50000000E+00
  1.50000000E+00  8.00000000E-01  8.00000000E-01  1.50000000E+00  1.50000000E+00
  8.00000000E-01  8.00000000E-01  1.50000000E+00  1.50000000E+00  8.00000000E-01
  8.00000000E-01  1.50000000E+00  1.50000000E+00  8.00000000E-01  8.00000000E-01
  1.50000000E+00  1.50000000E+00  8.00000000E-01  8.00000000E-01  1.50000000E+00
  1.50000000E+00  8.00000000E-01  8.00000000E-01  1.50000000E+00  1.50000000E+00
  8.00000000E-01  8.00000000E-01  1.50000000E+00  1.50000000E+00  8.00000000E-01
  8.00000000E-01  1.50000000E+00  1.50000000E+00  8.00000000E-01  8.00000000E-01
  1.50000000E+00  1.50000000E+00  8.00000000E-01  8.00000000E-01  1.50000000E+00
  1.50000000E+00  8.00000000E-01  8.00000000E-01  1.50000000E+00  1.50000000E+00
  8.00000000E-01  8.00000000E-01  1.50000000E+00  1.50000000E+00  8.00000000E-01
  8.00000000E-01  1.50000000E+00  1.50000000E+00  8.00000000E-01  8.00000000E-01
  1.50000000E+00  1.50000000E+00  8.00000000E-01  8.00000000E-01  1.50000000E+00
  1.50000000E+00  8.00000000E-01  8.00000000E-01  1.50000000E+00  1.50000000E+00
  8.00000000E-01  8.00000000E-01  1.50000000E+00  1.50000000E+00  8.00000000E-01
  8.00000000E-01  1.50000000E+00  1.50000000E+00  8.00000000E-01  8.00000000E-01
  1.50000000E+00  1.50000000E+00  8.00000000E-01  8.00000000E-01  1.50000000E+00
  1.50000000E+00  8.00000000E-01  8.00000000E-01  1.50000000E+00  1.50000000E+00
  8.00000000E-01  8.00000000E-01  1.50000000E+00  1.50000000E+00  8.00000000E-01
  8.00000000E-01  1.50000000E+00  1.50000000E+00  8.00000000E-01  8.00000000E-01
  1.50000000E+00  1.50000000E+00  8.00000000E-01  8.00000000E-01  1.50000000E+00
  1.50000000E+00  8.00000000E-01  8.00000000E-01  1.50000000E+00  1.50000000E+00
  8.00000000E-01  8.00000000E-01  1.50000000E+00  1.50000000E+00  8.00000000E-01
  8.00000000E-01  1.50000000E+00  1.50000000E+00  8.00000000E-01  8.00000000E-01
  1.50000000E+00  1.50000000E+00  8.00000000E-01  8.00000000E-01  1.50000000E+00
  1.50000000E+00  8.00000000E-01  8.00000000E-01  1.50000000E+00  1.50000000E+00
  8.00000000E-01  8.00000000E-01  1.50000000E+00  1.50000000E+00  8.00000000E-01
  8.00000000E-01  1.50000000E+00  1.50000000E+00  8.00000000E-01  8.00000000E-01
  1.50000000E+00  1.50000000E+00  8.00000000E-01  8.00000000E-01  1.50000000E+00
  1.50000000E+00  8.00000000E-01  8.00000000E-01  1.50000000E+00  1.50000000E+00
  8.00000000E-01  8.00000000E-01  1.50000000E+00  1.50000000E+00  8.00000000E-01
  8.00000000E-01  1.50000000E+00  1.50000000E+00  8.00000000E-01  8.00000000E-01
  1.50000000E+00  1.50000000E+00  8.00000000E-01  8.00000000E-01  1.50000000E+00
  1.50000000E+00  8.00000000E-01  8.00000000E-01  1.50000000E+00  1.50000000E+00
  8.00000000E-01  8.00000000E-01  1.50000000E+00  1.50000000E+00  8.00000000E-01
  8.00000000E-01  1.50000000E+00  1.50000000E+00  8.00000000E-01  8.00000000E-01
  1.50000000E+00  1.50000000E+00  8.00000000E-01  8.00000000E-01  1.50000000E+00
  1.50000000E+00  8.00000000E-01  8.00000000E-01  1.50000000E+00  1.50000000E+00
  8.00000000E-01  8.00000000E-01  1.50000000E+00  1.50000000E+00  8.00000000E-01
  8.00000000E-01  1.50000000E+00  1.50000000E+00  8.00000000E-01  8.00000000E-01
  1.50000000E+00  1.50000000E+00  8.00000000E-01  8.00000000E-01  1.50000000E+00
  1.50000000E+00  8.00000000E-01  8.00000000E-01  1.50000000E+00  1.50000000E+00
  8.00000000E-01  8.00000000E-01  1.50000000E+00  1.50000000E+00  8.00000000E-01
  8.00000000E-01  1.50000000E+00  1.50000000E+00  8.00000000E-01  8.00000000E-01
  1.50000000E+00  1.50000000E+00  8.00000000E-01  8.00000000E-01  1.50000000E+00
  1.50000000E+00  8.00000000E-01  8.00000000E-01  1.50000000E+00  1.50000000E+00
  8.00000000E-01  8.00000000E-01  1.50000000E+00  1.50000000E+00  8.00000000E-01
  8.00000000E-01  1.50000000E+00  1.50000000E+00  8.00000000E-01  8.00000000E-01
  1.50000000E+00  1.50000000E+00  8.00000000E-01  8.00000000E-01  1.50000000E+00
  1.50000000E+00  8.00000000E-01  8.00000000E-01  1.50000000E+00  1.50000000E+00
  8.00000000E-01  8.00000000E-01  1.50000000E+00  1.50000000E+00  8.00000000E-01
  8.00000000E-01  1.50000000E+00  1.50000000E+00  8.00000000E-01  8.00000000E-01
  1.50000000E+00  1.50000000E+00  8.00000000E-01  8.00000000E-01  1.50000000E+00
  1.50000000E+00  8.00000000E-01  8.00000000E-01  1.50000000E+00  1.50000000E+00
  8.00000000E-01  8.00000000E-01  1.50000000E+00  1.50000000E+00  8.00000000E-01
  8.00000000E-01  1.50000000E+00  1.50000000E+00  8.00000000E-01  8.00000000E-01
  1.50000000E+00  1.50000000E+00  8.00000000E-01  8.00000000E-01  1.50000000E+00
  1.50000000E+00  8.00000000E-01  8.00000000E-01  1.50000000E+00  1.50000000E+00
  8.00000000E-01  8.00000000E-01  1.50000000E+00  1.50000000E+00  8.00000000E-01
  8.00000000E-01  1.50000000E+00  1.50000000E+00  8.00000000E-01  8.00000000E-01
  1.50000000E+00  1.50000000E+00  8.00000000E-01  8.00000000E-01  1.50000000E+00
  1.50000000E+00  8.00000000E-01  8.00000000E-01  1.50000000E+00  1.50000000E+00
  8.00000000E-01  8.00000000E-01  1.50000000E+00  1.50000000E+00  8.00000000E-01
  8.00000000E-01  1.50000000E+00  1.50000000E+00  8.00000000E-01  8.00000000E-01
  1.50000000E+00  1.50000000E+00  8.00000000E-01  8.00000000E-01  1.50000000E+00
  1.50000000E+00  8.00000000E-01  8.00000000E-01  1.50000000E+00  1.50000000E+00
  8.00000000E-01  8.00000000E-01  1.50000000E+00  1.50000000E+00  8.00000000E-01
  8.00000000E-01  1.50000000E+00  1.50000000E+00  8.00000000E-01  8.00000000E-01
  1.50000000E+00  1.50000000E+00  8.00000000E-01  8.00000000E-01  1.50000000E+00
  1.50000000E+00  8.00000000E-01  8.00000000E-01  1.50000000E+00  1.50000000E+00
  8.00000000E-01  8.00000000E-01  1.50000000E+00  1.50000000E+00  8.00000000E-01
  8.00000000E-01  1.50000000E+00  1.50000000E+00  8.00000000E-01  8.00000000E-01
  1.50000000E+00  1.50000000E+00  8.00000000E-01  8.00000000E-01  1.50000000E+00
  1.50000000E+00  8.00000000E-01  8.00000000E-01  1.50000000E+00  1.50000000E+00
  8.00000000E-01  8.00000000E-01  1.50000000E+00  1.50000000E+00  8.00000000E-01
  8.00000000E-01  1.50000000E+00  1.50000000E+00  8.00000000E-01  8.00000000E-01
  1.50000000E+00  1.50000000E+00  8.00000000E-01  8.00000000E-01  1.50000000E+00
  1.50000000E+00  8.00000000E-01  8.00000000E-01  1.50000000E+00  1.50000000E+00
  8.00000000E-01  8.00000000E-01  1.50000000E+00  1.50000000E+00  8.00000000E-01
  8.00000000E-01  1.50000000E+00  1.50000000E+00  8.00000000E-01  8.00000000E-01
  1.50000000E+00  1.50000000E+00  8.00000000E-01  8.00000000E-01  1.50000000E+00
  1.50000000E+00  8.00000000E-01  8.00000000E-01  1.50000000E+00  1.50000000E+00
  8.00000000E-01  8.00000000E-01  1.50000000E+00  1.50000000E+00  8.00000000E-01
  8.00000000E-01  1.50000000E+00  1.50000000E+00  8.00000000E-01  8.00000000E-01
  1.50000000E+00  1.50000000E+00  8.00000000E-01  8.00000000E-01  1.50000000E+00
  1.50000000E+00  8.00000000E-01  8.00000000E-01  1.50000000E+00  1.50000000E+00
  8.00000000E-01  8.00000000E-01  1.50000000E+00  1.50000000E+00  8.00000000E-01
  8.00000000E-01  1.50000000E+00  1.50000000E+00  8.00000000E-01  8.00000000E-01
  1.50000000E+00  1.50000000E+00  8.00000000E-01  8.00000000E-01  1.50000000E+00
  1.50000000E+00  8.00000000E-01  8.00000000E-01  1.50000000E+00  1.50000000E+00
  8.00000000E-01  8.00000000E-01  1.50000000E+00  1.50000000E+00  8.00000000E-01
  8.00000000E-01  1.50000000E+00  1.50000000E+00  8.00000000E-01  8.00000000E-01
  1.50000000E+00  1.50000000E+00  8.00000000E-01  8.00000000E-01  1.50000000E+00
  1.50000000E+00  8.00000000E-01  8.00000000E-01  1.50000000E+00  1.50000000E+00
  8.00000000E-01  8.00000000E-01  1.50000000E+00  1.50000000E+00  8.00000000E-01
  8.00000000E-01  1.50000000E+00  1.50000000E+00  8.00000000E-01  8.00000000E-01
  1.50000000E+00  1.50000000E+00  8.00000000E-01  8.00000000E-01  1.50000000E+00
  1.50000000E+00  8.00000000E-01  8.00000000E-01  1.50000000E+00  1.50000000E+00
  8.00000000E-01  8.00000000E-01  1.50000000E+00  1.50000000E+00  8.00000000E-01
  8.00000000E-01  1.50000000E+00  1.50000000E+00  8.00000000E-01  8.00000000E-01
  1.50000000E+00  1.50000000E+00  8.00000000E-01  8.00000000E-01  1.50000000E+00
  1.50000000E+00  8.00000000E-01  8.00000000E-01  1.50000000E+00  1.50000000E+00
  8.00000000E-01  8.00000000E-01  1.50000000E+00  1.50000000E+00  8.00000000E-01
  8.00000000E-01  1.50000000E+00  1.50000000E+00  8.00000000E-01  8.00000000E-01
  1.50000000E+00  1.50000000E+00  8.00000000E-01  8.00000000E-01  1.50000000E+00
  1.50000000E+00  8.00000000E-01  8.00000000E-01  1.50000000E+00  1.50000000E+00
  8.00000000E-01  8.00000000E-01  1.50000000E+00  1.50000000E+00  8.00000000E-01
  8.00000000E-01  1.50000000E+00  1.50000000E+00  8.00000000E-01  8.00000000E-01
  1.50000000E+00  1.50000000E+00  8.00000000E-01  8.00000000E-01  1.50000000E+00
  1.50000000E+00  8.00000000E-01  8.00000000E-01  1.50000000E+00  1.50000000E+00
  8.00000000E-01  8.00000000E-01  1.50000000E+00  1.50000000E+00  8.00000000E-01
  8.00000000E-01  1.50000000E+00  1.50000000E+00  8.00000000E-01  8.00000000E-01
  1.50000000E+00  1.50000000E+00  8.00000000E-01  8.00000000E-01  1.50000000E+00
  1.50000000E+00  8.00000000E-01  8.00000000E-01  1.50000000E+00  1.50000000E+00
  8.00000000E-01  8.00000000E-01  1.50000000E+00  1.50000000E+00  8.00000000E-01
  8.00000000E-01  1.50000000E+00  1.50000000E+00  8.00000000E-01  8.00000000E-01
  1.50000000E+00  1.50000000E+00  8.00000000E-01  8.00000000E-01  1.50000000E+00
  1.50000000E+00  8.00000000E-01  8.00000000E-01  1.50000000E+00  1.50000000E+00
  8.00000000E-01  8.00000000E-01  1.50000000E+00  1.50000000E+00  8.00000000E-01
  8.00000000E-01  1.50000000E+00  1.50000000E+00  8.00000000E-01  8.00000000E-01
  1.50000000E+00  1.50000000E+00  8.00000000E-01  8.00000000E-01  1.50000000E+00
  1.50000000E+00  8.00000000E-01  8.00000000E-01  1.50000000E+00  1.50000000E+00
  8.00000000E-01  8.00000000E-01  1.50000000E+00  1.50000000E+00  8.00000000E-01
  8.00000000E-01  1.50000000E+00  1.50000000E+00  8.00000000E-01  8.00000000E-01
  1.50000000E+00  1.50000000E+00  8.00000000E-01  8.00000000E-01  1.50000000E+00
  1.50000000E+00  8.00000000E-01  8.00000000E-01  1.50000000E+00  1.50000000E+00
  8.00000000E-01  8.00000000E-01  1.50000000E+00  1.50000000E+00  8.00000000E-01
  8.00000000E-01  1.50000000E+00  1.50000000E+00  8.00000000E-01  8.00000000E-01
  1.50000000E+00  1.50000000E+00  8.00000000E-01  8.00000000E-01  1.50000000E+00
  1.50000000E+00  8.00000000E-01  8.00000000E-01  1.50000000E+00  1.50000000E+00
  8.00000000E-01  8.00000000E-01  1.50000000E+00  1.50000000E+00  8.00000000E-01
  8.00000000E-01  1.50000000E+00  1.50000000E+00  8.00000000E-01  8.00000000E-01
  1.50000000E+00  1.50000000E+00  8.00000000E-01  8.00000000E-01  1.50000000E+00
  1.50000000E+00  8.00000000E-01  8.00000000E-01  1.50000000E+00  1.50000000E+00
  8.00000000E-01  8.00000000E-01  1.50000000E+00  1.50000000E+00  8.00000000E-01
  8.00000000E-01  1.50000000E+00  1.50000000E+00  8.00000000E-01  8.00000000E-01
  1.50000000E+00  1.50000000E+00  8.00000000E-01  8.00000000E-01  1.50000000E+00
  1.50000000E+00  8.00000000E-01  8.00000000E-01  1.50000000E+00  1.50000000E+00
  8.00000000E-01  8.00000000E-01  1.50000000E+00  1.50000000E+00  8.00000000E-01
  8.00000000E-01  1.50000000E+00  1.50000000E+00  8.00000000E-01  8.00000000E-01
  1.50000000E+00  1.50000000E+00  8.00000000E-01  8.00000000E-01  1.50000000E+00
  1.50000000E+00  8.00000000E-01  8.00000000E-01  1.50000000E+00  1.50000000E+00
  8.00000000E-01  8.00000000E-01  1.50000000E+00  1.50000000E+00  8.00000000E-01
  8.00000000E-01  1.50000000E+00  1.50000000E+00  8.00000000E-01  8.00000000E-01
  1.50000000E+00  1.50000000E+00  8.00000000E-01  8.00000000E-01  1.50000000E+00
  1.50000000E+00  8.00000000E-01  8.00000000E-01  1.50000000E+00  1.50000000E+00
  8.00000000E-01  8.00000000E-01  1.50000000E+00  1.50000000E+00  8.00000000E-01
  8.00000000E-01  1.50000000E+00  1.50000000E+00  8.00000000E-01  8.00000000E-01
  1.50000000E+00  1.50000000E+00  8.00000000E-01  8.00000000E-01  1.50000000E+00
  1.50000000E+00  8.00000000E-01  8.00000000E-01  1.50000000E+00  1.50000000E+00
  8.00000000E-01  8.00000000E-01  1.50000000E+00  1.50000000E+00  8.00000000E-01
  8.00000000E-01  1.50000000E+00  1.50000000E+00  8.00000000E-01  8.00000000E-01
  1.50000000E+00  1.50000000E+00  8.00000000E-01  8.00000000E-01  1.50000000E+00
  1.50000000E+00  8.00000000E-01  8.00000000E-01  1.50000000E+00  1.50000000E+00
  8.00000000E-01  8.00000000E-01  1.50000000E+00  1.50000000E+00  8.00000000E-01
  8.00000000E-01  1.50000000E+00  1.50000000E+00  8.00000000E-01  8.00000000E-01
  1.50000000E+00  1.50000000E+00  8.00000000E-01  8.00000000E-01  1.50000000E+00
  1.50000000E+00  8.00000000E-01  8.00000000E-01  1.50000000E+00  1.50000000E+00
  8.00000000E-01  8.00000000E-01  1.50000000E+00  1.50000000E+00  8.00000000E-01
  8.00000000E-01  1.50000000E+00  1.50000000E+00  8.00000000E-01  8.00000000E-01
  1.50000000E+00  1.50000000E+00  8.00000000E-01  8.00000000E-01  1.50000000E+00
  1.50000000E+00  8.00000000E-01  8.00000000E-01  1.50000000E+00  1.50000000E+00
  8.00000000E-01  8.00000000E-01  1.50000000E+00  1.50000000E+00  8.00000000E-01
  8.00000000E-01  1.50000000E+00  1.50000000E+00  8.00000000E-01  8.00000000E-01
  1.50000000E+00  1.50000000E+00  8.00000000E-01  8.00000000E-01  1.50000000E+00
  1.50000000E+00  8.00000000E-01  8.00000000E-01  1.50000000E+00  1.50000000E+00
  8.00000000E-01  8.00000000E-01  1.50000000E+00  1.50000000E+00  8.00000000E-01
  8.00000000E-01  1.50000000E+00  1.50000000E+00  8.00000000E-01  8.00000000E-01
  1.50000000E+00  1.50000000E+00  8.00000000E-01  8.00000000E-01  1.50000000E+00
  1.50000000E+00  8.00000000E-01  8.00000000E-01  1.50000000E+00  1.50000000E+00
  8.00000000E-01  8.00000000E-01  1.50000000E+00  1.50000000E+00  8.00000000E-01
  8.00000000E-01  1.50000000E+00  1.50000000E+00  8.00000000E-01  8.00000000E-01
  1.50000000E+00  1.50000000E+00  8.00000000E-01  8.00000000E-01  1.50000000E+00
  1.50000000E+00  8.00000000E-01  8.00000000E-01  1.50000000E+00  1.50000000E+00
  8.00000000E-01  8.00000000E-01  1.50000000E+00  1.50000000E+00  8.00000000E-01
  8.00000000E-01  1.50000000E+00  1.50000000E+00  8.00000000E-01  8.00000000E-01
  1.50000000E+00  1.50000000E+00  8.00000000E-01  8.00000000E-01  1.50000000E+00
  1.50000000E+00  8.00000000E-01  8.00000000E-01  1.50000000E+00  1.50000000E+00
  8.00000000E-01  8.00000000E-01  1.50000000E+00  1.50000000E+00  8.00000000E-01
  8.00000000E-01  1.50000000E+00  1.50000000E+00  8.00000000E-01  8.00000000E-01
  1.50000000E+00  1.50000000E+00  8.00000000E-01  8.00000000E-01  1.50000000E+00
  1.50000000E+00  8.00000000E-01  8.00000000E-01  1.50000000E+00  1.50000000E+00
  8.00000000E-01  8.00000000E-01  1.50000000E+00  1.50000000E+00  8.00000000E-01
  8.00000000E-01  1.50000000E+00  1.50000000E+00  8.00000000E-01  8.00000000E-01
  1.50000000E+00  1.50000000E+00  8.00000000E-01  8.00000000E-01  1.50000000E+00
  1.50000000E+00  8.00000000E-01  8.00000000E-01  1.50000000E+00  1.50000000E+00
  8.00000000E-01  8.00000000E-01  1.50000000E+00  1.50000000E+00  8.00000000E-01
  8.00000000E-01  1.50000000E+00  1.50000000E+00  8.00000000E-01  8.00000000E-01
  1.50000000E+00  1.50000000E+00  8.00000000E-01  8.00000000E-01  1.50000000E+00
  1.50000000E+00  8.00000000E-01  8.00000000E-01  1.50000000E+00  1.50000000E+00
  8.00000000E-01  8.00000000E-01  1.50000000E+00  1.50000000E+00  8.00000000E-01
  8.00000000E-01  1.50000000E+00  1.50000000E+00  8.00000000E-01  8.00000000E-01
  1.50000000E+00  1.50000000E+00  8.00000000E-01  8.00000000E-01  1.50000000E+00
  1.50000000E+00  8.00000000E-01  8.00000000E-01  1.50000000E+00  1.50000000E+00
  8.00000000E-01  8.00000000E-01  1.50000000E+00  1.50000000E+00  8.00000000E-01
  8.00000000E-01  1.50000000E+00  1.50000000E+00  8.00000000E-01  8.00000000E-01
  1.50000000E+00  1.50000000E+00  8.00000000E-01  8.00000000E-01  1.50000000E+00
  1.50000000E+00  8.00000000E-01  8.00000000E-01  1.50000000E+00  1.50000000E+00
  8.00000000E-01  8.00000000E-01  1.50000000E+00  1.50000000E+00  8.00000000E-01
  8.00000000E-01  1.50000000E+00  1.50000000E+00  8.00000000E-01  8.00000000E-01
  1.50000000E+00  1.50000000E+00  8.00000000E-01  8.00000000E-01  1.50000000E+00
  1.50000000E+00  8.00000000E-01  8.00000000E-01  1.50000000E+00  1.50000000E+00
  8.00000000E-01  8.00000000E-01  1.50000000E+00  1.50000000E+00  8.00000000E-01
  8.00000000E-01  1.50000000E+00  1.50000000E+00  8.00000000E-01  8.00000000E-01
  1.50000000E+00  1.50000000E+00  8.00000000E-01  8.00000000E-01  1.50000000E+00
  1.50000000E+00  8.00000000E-01  8.00000000E-01  1.50000000E+00  1.50000000E+00
  8.00000000E-01  8.00000000E-01  1.50000000E+00  1.50000000E+00  8.00000000E-01
  8.00000000E-01  1.50000000E+00  1.50000000E+00  8.00000000E-01  8.00000000E-01
  1.50000000E+00  1.50000000E+00  8.00000000E-01  8.00000000E-01  1.50000000E+00
  1.50000000E+00  8.00000000E-01  8.00000000E-01  1.50000000E+00  1.50000000E+00
  8.00000000E-01  8.00000000E-01  1.50000000E+00  1.50000000E+00  8.00000000E-01
  8.00000000E-01  1.50000000E+00  1.50000000E+00  8.00000000E-01  8.00000000E-01
  1.50000000E+00  1.50000000E+00  8.00000000E-01  8.00000000E-01  1.50000000E+00
  1.50000000E+00  8.00000000E-01  8.00000000E-01  1.50000000E+00  1.50000000E+00
  8.00000000E-01  8.00000000E-01  1.50000000E+00  1.50000000E+00  8.00000000E-01
  8.00000000E-01  1.50000000E+00  1.50000000E+00  8.00000000E-01  8.00000000E-01
  1.50000000E+00  1.50000000E+00  8.00000000E-01  8.00000000E-01  1.50000000E+00
  1.50000000E+00  8.00000000E-01  8.00000000E-01  1.50000000E+00  1.50000000E+00
  8.00000000E-01  8.00000000E-01  1.50000000E+00  1.50000000E+00  8.00000000E-01
  8.00000000E-01  1.50000000E+00  1.50000000E+00  8.00000000E-01  8.00000000E-01
  1.50000000E+00  1.50000000E+00  8.00000000E-01  8.00000000E-01  1.50000000E+00
  1.50000000E+00  8.00000000E-01  8.00000000E-01  1.50000000E+00  1.50000000E+00
  8.00000000E-01  8.00000000E-01  1.50000000E+00  1.50000000E+00  8.00000000E-01
  8.00000000E-01  1.50000000E+00  1.50000000E+00  8.00000000E-01  8.00000000E-01
  1.50000000E+00  1.50000000E+00  8.00000000E-01  8.00000000E-01  1.50000000E+00
  1.50000000E+00  8.00000000E-01  8.00000000E-01  1.50000000E+00  1.50000000E+00
  8.00000000E-01  8.00000000E-01  1.50000000E+00  1.50000000E+00  8.00000000E-01
  8.00000000E-01  1.50000000E+00  1.50000000E+00  8.00000000E-01  8.00000000E-01
  1.50000000E+00  1.50000000E+00  8.00000000E-01  8.00000000E-01  1.50000000E+00
  1.50000000E+00  8.00000000E-01  8.00000000E-01  1.50000000E+00  1.50000000E+00
  8.00000000E-01  8.00000000E-01  1.50000000E+00  1.50000000E+00  8.00000000E-01
  8.00000000E-01  1.50000000E+00  1.50000000E+00  8.00000000E-01  8.00000000E-01
  1.50000000E+00  1.50000000E+00  8.00000000E-01  8.00000000E-01  1.50000000E+00
  1.50000000E+00  8.00000000E-01  8.00000000E-01  1.50000000E+00  1.50000000E+00
  8.00000000E-01  8.00000000E-01  1.50000000E+00  1.50000000E+00  8.00000000E-01
  8.00000000E-01  1.50000000E+00  1.50000000E+00  8.00000000E-01  8.00000000E-01
  1.50000000E+00  1.50000000E+00  8.00000000E-01  8.00000000E-01  1.50000000E+00
  1.50000000E+00  8.00000000E-01  8.00000000E-01  1.50000000E+00  1.50000000E+00
  8.00000000E-01  8.00000000E-01  1.50000000E+00  1.50000000E+00  8.00000000E-01
  8.00000000E-01  1.50000000E+00  1.50000000E+00  8.00000000E-01  8.00000000E-01
  1.50000000E+00  1.50000000E+00  8.00000000E-01  8.00000000E-01  1.50000000E+00
  1.50000000E+00  8.00000000E-01  8.00000000E-01  1.50000000E+00  1.50000000E+00
  8.00000000E-01  8.00000000E-01  1.50000000E+00  1.50000000E+00  8.00000000E-01
  8.00000000E-01  1.50000000E+00  1.50000000E+00  8.00000000E-01  8.00000000E-01
  1.50000000E+00  1.50000000E+00  8.00000000E-01  8.00000000E-01  1.50000000E+00
  1.50000000E+00  8.00000000E-01  8.00000000E-01  1.50000000E+00  1.50000000E+00
  8.00000000E-01  8.00000000E-01  1.50000000E+00  1.50000000E+00  8.00000000E-01
  8.00000000E-01  1.50000000E+00  1.50000000E+00  8.00000000E-01  8.00000000E-01
  1.50000000E+00  1.50000000E+00  8.00000000E-01  8.00000000E-01  1.50000000E+00
  1.50000000E+00  8.00000000E-01  8.00000000E-01  1.50000000E+00  1.50000000E+00
  8.00000000E-01  8.00000000E-01  1.50000000E+00  1.50000000E+00  8.00000000E-01
  8.00000000E-01  1.50000000E+00  1.50000000E+00  8.00000000E-01  8.00000000E-01
  1.50000000E+00  1.50000000E+00  8.00000000E-01  8.00000000E-01  1.50000000E+00
  1.50000000E+00  8.00000000E-01  8.00000000E-01  1.50000000E+00  1.50000000E+00
  8.00000000E-01  8.00000000E-01  1.50000000E+00  1.50000000E+00  8.00000000E-01
  8.00000000E-01  1.50000000E+00  1.50000000E+00  8.00000000E-01  8.00000000E-01
  1.50000000E+00  1.50000000E+00  8.00000000E-01  8.00000000E-01  1.50000000E+00
  1.50000000E+00  8.00000000E-01  8.00000000E-01  1.50000000E+00  1.50000000E+00
  8.00000000E-01  8.00000000E-01  1.50000000E+00  1.50000000E+00  8.00000000E-01
  8.00000000E-01  1.50000000E+00  1.50000000E+00  8.00000000E-01  8.00000000E-01
  1.50000000E+00  1.50000000E+00  8.00000000E-01  8.00000000E-01  1.50000000E+00
  1.50000000E+00  8.00000000E-01  8.00000000E-01  1.50000000E+00  1.50000000E+00
  8.00000000E-01  8.00000000E-01  1.50000000E+00  1.50000000E+00  8.00000000E-01
  8.00000000E-01  1.50000000E+00  1.50000000E+00  8.00000000E-01  8.00000000E-01
  1.50000000E+00  1.50000000E+00  8.00000000E-01  8.00000000E-01  1.50000000E+00
  1.50000000E+00  8.00000000E-01  8.00000000E-01  1.50000000E+00  1.50000000E+00
  8.00000000E-01  8.00000000E-01  1.50000000E+00  1.50000000E+00  8.00000000E-01
  8.00000000E-01  1.50000000E+00  1.50000000E+00  8.00000000E-01  8.00000000E-01
  1.50000000E+00  1.50000000E+00  8.00000000E-01  8.00000000E-01  1.50000000E+00
  1.50000000E+00  8.00000000E-01  8.00000000E-01  1.50000000E+00  1.50000000E+00
  8.00000000E-01  8.00000000E-01  1.50000000E+00  1.50000000E+00  8.00000000E-01
  8.00000000E-01  1.50000000E+00  1.50000000E+00  8.00000000E-01  8.00000000E-01
  1.50000000E+00  1.50000000E+00  8.00000000E-01  8.00000000E-01  1.50000000E+00
  1.50000000E+00  8.00000000E-01  8.00000000E-01  1.50000000E+00  1.50000000E+00
  8.00000000E-01  8.00000000E-01  1.50000000E+00  1.50000000E+00  8.00000000E-01
  8.00000000E-01  1.50000000E+00  1.50000000E+00  8.00000000E-01  8.00000000E-01
  1.50000000E+00  1.50000000E+00  8.00000000E-01  8.00000000E-01  1.50000000E+00
  1.50000000E+00  8.00000000E-01  8.00000000E-01  1.50000000E+00  1.50000000E+00
  8.00000000E-01  8.00000000E-01  1.50000000E+00  1.50000000E+00  8.00000000E-01
  8.00000000E-01  1.50000000E+00  1.50000000E+00  8.00000000E-01  8.00000000E-01
  1.50000000E+00  1.50000000E+00  8.00000000E-01  8.00000000E-01  1.50000000E+00
  1.50000000E+00  8.00000000E-01  8.00000000E-01  1.50000000E+00  1.50000000E+00
  8.00000000E-01  8.00000000E-01  1.50000000E+00  1.50000000E+00  8.00000000E-01
  8.00000000E-01  1.50000000E+00  1.50000000E+00  8.00000000E-01  8.00000000E-01
  1.50000000E+00  1.50000000E+00  8.00000000E-01  8.00000000E-01  1.50000000E+00
  1.50000000E+00  8.00000000E-01  8.00000000E-01  1.50000000E+00  1.50000000E+00
  8.00000000E-01  8.00000000E-01  1.50000000E+00  1.50000000E+00  8.00000000E-01
  8.00000000E-01  1.50000000E+00  1.50000000E+00  8.00000000E-01  8.00000000E-01
  1.50000000E+00  1.50000000E+00  8.00000000E-01  8.00000000E-01  1.50000000E+00
  1.50000000E+00  8.00000000E-01  8.00000000E-01  1.50000000E+00  1.50000000E+00
  8.00000000E-01  8.00000000E-01  1.50000000E+00  1.50000000E+00  8.00000000E-01
  8.00000000E-01  1.50000000E+00  1.50000000E+00  8.00000000E-01  8.00000000E-01
  1.50000000E+00  1.50000000E+00  8.00000000E-01  8.00000000E-01  1.50000000E+00
  1.50000000E+00  8.00000000E-01  8.00000000E-01  1.50000000E+00  1.50000000E+00
  8.00000000E-01  8.00000000E-01  1.50000000E+00  1.50000000E+00  8.00000000E-01
  8.00000000E-01  1.50000000E+00  1.50000000E+00  8.00000000E-01  8.00000000E-01
  1.50000000E+00  1.50000000E+00  8.00000000E-01  8.00000000E-01  1.50000000E+00
  1.50000000E+00  8.00000000E-01  8.00000000E-01  1.50000000E+00  1.50000000E+00
  8.00000000E-01  8.00000000E-01  1.50000000E+00  1.50000000E+00  8.00000000E-01
  8.00000000E-01  1.50000000E+00  1.50000000E+00  8.00000000E-01  8.00000000E-01
  1.50000000E+00  1.50000000E+00  8.00000000E-01  8.00000000E-01  1.50000000E+00
  1.50000000E+00  8.00000000E-01  8.00000000E-01  1.50000000E+00  1.50000000E+00
  8.00000000E-01  8.00000000E-01  1.50000000E+00  1.50000000E+00  8.00000000E-01
  8.00000000E-01  1.50000000E+00  1.50000000E+00  8.00000000E-01  8.00000000E-01
  1.50000000E+00  1.50000000E+00  8.00000000E-01  8.00000000E-01  1.50000000E+00
  1.50000000E+00  8.00000000E-01  8.00000000E-01  1.50000000E+00  1.50000000E+00
  8.00000000E-01  8.00000000E-01  1.50000000E+00  1.50000000E+00  8.00000000E-01
  8.00000000E-01  1.50000000E+00  1.50000000E+00  8.00000000E-01  8.00000000E-01
  1.50000000E+00  1.50000000E+00  8.00000000E-01  8.00000000E-01  1.50000000E+00
  1.50000000E+00  8.00000000E-01  8.00000000E-01  1.50000000E+00  1.50000000E+00
  8.00000000E-01  8.00000000E-01  1.50000000E+00  1.50000000E+00  8.00000000E-01
  8.00000000E-01  1.50000000E+00  1.50000000E+00  8.00000000E-01  8.00000000E-01
  1.50000000E+00  1.50000000E+00  8.00000000E-01  8.00000000E-01  1.50000000E+00
  1.50000000E+00  8.00000000E-01  8.00000000E-01  1.50000000E+00  1.50000000E+00
  8.00000000E-01  8.00000000E-01  1.50000000E+00  1.50000000E+00  8.00000000E-01
  8.00000000E-01  1.50000000E+00  1.50000000E+00  8.00000000E-01  8.00000000E-01
  1.50000000E+00  1.50000000E+00  8.00000000E-01  8.00000000E-01  1.50000000E+00
  1.50000000E+00  8.00000000E-01  8.00000000E-01  1.50000000E+00  1.50000000E+00
  8.00000000E-01  8.00000000E-01  1.50000000E+00  1.50000000E+00  8.00000000E-01
  8.00000000E-01  1.50000000E+00  1.50000000E+00  8.00000000E-01  8.00000000E-01
  1.50000000E+00  1.50000000E+00  8.00000000E-01  8.00000000E-01  1.50000000E+00
  1.50000000E+00  8.00000000E-01  8.00000000E-01  1.50000000E+00  1.50000000E+00
  8.00000000E-01  8.00000000E-01  1.50000000E+00  1.50000000E+00  8.00000000E-01
  8.00000000E-01  1.50000000E+00  1.50000000E+00  8.00000000E-01  8.00000000E-01
  1.50000000E+00  1.50000000E+00  8.00000000E-01  8.00000000E-01  1.50000000E+00
  1.50000000E+00  8.00000000E-01  8.00000000E-01  1.50000000E+00  1.50000000E+00
  8.00000000E-01  8.00000000E-01  1.50000000E+00  1.50000000E+00  8.00000000E-01
  8.00000000E-01  1.50000000E+00  1.50000000E+00  8.00000000E-01  8.00000000E-01
  1.50000000E+00  1.50000000E+00  8.00000000E-01  8.00000000E-01  1.50000000E+00
  1.50000000E+00  8.00000000E-01  8.00000000E-01  1.50000000E+00  1.50000000E+00
  8.00000000E-01  8.00000000E-01  1.50000000E+00  1.50000000E+00  8.00000000E-01
  8.00000000E-01  1.50000000E+00  1.50000000E+00  8.00000000E-01  8.00000000E-01
  1.50000000E+00  1.50000000E+00  8.00000000E-01  8.00000000E-01  1.50000000E+00
  1.50000000E+00  8.00000000E-01  8.00000000E-01  1.50000000E+00  1.50000000E+00
  8.00000000E-01  8.00000000E-01  1.50000000E+00  1.50000000E+00  8.00000000E-01
  8.00000000E-01  1.50000000E+00  1.50000000E+00  8.00000000E-01  8.00000000E-01
  1.50000000E+00  1.50000000E+00  8.00000000E-01  8.00000000E-01  1.50000000E+00
  1.50000000E+00  8.00000000E-01  8.00000000E-01  1.50000000E+00  1.50000000E+00
  8.00000000E-01  8.00000000E-01  1.50000000E+00  1.50000000E+00  8.00000000E-01
  8.00000000E-01  1.50000000E+00  1.50000000E+00  8.00000000E-01  8.00000000E-01
  1.50000000E+00  1.50000000E+00  8.00000000E-01  8.00000000E-01  1.50000000E+00
  1.50000000E+00  8.00000000E-01  8.00000000E-01  1.50000000E+00  1.50000000E+00
  8.00000000E-01  8.00000000E-01  1.50000000E+00  1.50000000E+00  8.00000000E-01
  8.00000000E-01  1.50000000E+00  1.50000000E+00  8.00000000E-01  8.00000000E-01
  1.50000000E+00  1.50000000E+00  8.00000000E-01  8.00000000E-01  1.50000000E+00
  1.50000000E+00  8.00000000E-01  8.00000000E-01  1.50000000E+00  1.50000000E+00
  8.00000000E-01  8.00000000E-01  1.50000000E+00  1.50000000E+00  8.00000000E-01
  8.00000000E-01  1.50000000E+00  1.50000000E+00  8.00000000E-01  8.00000000E-01
  1.50000000E+00  1.50000000E+00  8.00000000E-01  8.00000000E-01  1.50000000E+00
  1.50000000E+00  8.00000000E-01  8.00000000E-01  1.50000000E+00  1.50000000E+00
  8.00000000E-01  8.00000000E-01  1.50000000E+00  1.50000000E+00  8.00000000E-01
  8.00000000E-01  1.50000000E+00  1.50000000E+00  8.00000000E-01  8.00000000E-01
  1.50000000E+00  1.50000000E+00  8.00000000E-01  8.00000000E-01  1.50000000E+00
  1.50000000E+00  8.00000000E-01  8.00000000E-01  1.50000000E+00  1.50000000E+00
  8.00000000E-01  8.00000000E-01  1.50000000E+00  1.50000000E+00  8.00000000E-01
  8.00000000E-01  1.50000000E+00  1.50000000E+00  8.00000000E-01  8.00000000E-01
  1.50000000E+00  1.50000000E+00  8.00000000E-01  8.00000000E-01  1.50000000E+00
  1.50000000E+00  8.00000000E-01  8.00000000E-01  1.50000000E+00  1.50000000E+00
  8.00000000E-01  8.00000000E-01  1.50000000E+00  1.50000000E+00  8.00000000E-01
  8.00000000E-01  1.50000000E+00  1.50000000E+00  8.00000000E-01  8.00000000E-01
  1.50000000E+00  1.50000000E+00  8.00000000E-01  8.00000000E-01  1.50000000E+00
  1.50000000E+00  8.00000000E-01  8.00000000E-01  1.50000000E+00  1.50000000E+00
  8.00000000E-01  8.00000000E-01  1.50000000E+00  1.50000000E+00  8.00000000E-01
  8.00000000E-01  1.50000000E+00  1.50000000E+00  8.00000000E-01  8.00000000E-01
  1.50000000E+00  1.50000000E+00  8.00000000E-01  8.00000000E-01  1.50000000E+00
  1.50000000E+00  8.00000000E-01  8.00000000E-01  1.50000000E+00  1.50000000E+00
  8.00000000E-01  8.00000000E-01  1.50000000E+00  1.50000000E+00  8.00000000E-01
  8.00000000E-01  1.50000000E+00  1.50000000E+00  8.00000000E-01  8.00000000E-01
  1.50000000E+00  1.50000000E+00  8.00000000E-01  8.00000000E-01  1.50000000E+00
  1.50000000E+00  8.00000000E-01  8.00000000E-01  1.50000000E+00  1.50000000E+00
  8.00000000E-01  8.00000000E-01  1.50000000E+00  1.50000000E+00  8.00000000E-01
  8.00000000E-01  1.50000000E+00  1.50000000E+00  8.00000000E-01  8.00000000E-01
  1.50000000E+00  1.50000000E+00  8.00000000E-01  8.00000000E-01  1.50000000E+00
  1.50000000E+00  8.00000000E-01  8.00000000E-01  1.50000000E+00  1.50000000E+00
  8.00000000E-01  8.00000000E-01  1.50000000E+00  1.50000000E+00  8.00000000E-01
  8.00000000E-01  1.50000000E+00  1.50000000E+00  8.00000000E-01  8.00000000E-01
  1.50000000E+00  1.50000000E+00  8.00000000E-01  8.00000000E-01  1.50000000E+00
  1.50000000E+00  8.00000000E-01  8.00000000E-01  1.50000000E+00  1.50000000E+00
  8.00000000E-01  8.00000000E-01  1.50000000E+00  1.50000000E+00  8.00000000E-01
  8.00000000E-01  1.50000000E+00  1.50000000E+00  8.00000000E-01  8.00000000E-01
  1.50000000E+00  1.50000000E+00  8.00000000E-01  8.00000000E-01  1.50000000E+00
  1.50000000E+00  8.00000000E-01  8.00000000E-01  1.50000000E+00  1.50000000E+00
  8.00000000E-01  8.00000000E-01  1.50000000E+00  1.50000000E+00  8.00000000E-01
  8.00000000E-01  1.50000000E+00  1.50000000E+00  8.00000000E-01  8.00000000E-01
  1.50000000E+00  1.50000000E+00  8.00000000E-01  8.00000000E-01  1.50000000E+00
  1.50000000E+00  8.00000000E-01  8.00000000E-01  1.50000000E+00  1.50000000E+00
  8.00000000E-01  8.00000000E-01  1.50000000E+00  1.50000000E+00  8.00000000E-01
  8.00000000E-01  1.50000000E+00  1.50000000E+00  8.00000000E-01  8.00000000E-01
  1.50000000E+00  1.50000000E+00  8.00000000E-01  8.00000000E-01  1.50000000E+00
  1.50000000E+00  8.00000000E-01  8.00000000E-01  1.50000000E+00  1.50000000E+00
  8.00000000E-01  8.00000000E-01  1.50000000E+00  1.50000000E+00  8.00000000E-01
  8.00000000E-01  1.50000000E+00  1.50000000E+00  8.00000000E-01  8.00000000E-01
  1.50000000E+00  1.50000000E+00  8.00000000E-01  8.00000000E-01  1.50000000E+00
  1.50000000E+00  8.00000000E-01  8.00000000E-01  1.50000000E+00  1.50000000E+00
  8.00000000E-01  8.00000000E-01  1.50000000E+00  1.50000000E+00  8.00000000E-01
  8.00000000E-01  1.50000000E+00  1.50000000E+00  8.00000000E-01  8.00000000E-01
  1.50000000E+00  1.50000000E+00  8.00000000E-01  8.00000000E-01  1.50000000E+00
  1.50000000E+00  8.00000000E-01  8.00000000E-01  1.50000000E+00  1.50000000E+00
  8.00000000E-01  8.00000000E-01  1.50000000E+00  1.50000000E+00  8.00000000E-01
  8.00000000E-01  1.50000000E+00  1.50000000E+00  8.00000000E-01  8.00000000E-01
  1.50000000E+00  1.50000000E+00  8.00000000E-01  8.00000000E-01  1.50000000E+00
  1.50000000E+00  8.00000000E-01  8.00000000E-01  1.50000000E+00  1.50000000E+00
  8.00000000E-01  8.00000000E-01  1.50000000E+00  1.50000000E+00  8.00000000E-01
  8.00000000E-01  1.50000000E+00  1.50000000E+00  8.00000000E-01  8.00000000E-01
  1.50000000E+00  1.50000000E+00  8.00000000E-01  8.00000000E-01  1.50000000E+00
  1.50000000E+00  8.00000000E-01  8.00000000E-01  1.50000000E+00  1.50000000E+00
  8.00000000E-01  8.00000000E-01  1.50000000E+00  1.50000000E+00  8.00000000E-01
  8.00000000E-01  1.50000000E+00  1.50000000E+00  8.00000000E-01  8.00000000E-01
  1.50000000E+00  1.50000000E+00  8.00000000E-01  8.00000000E-01  1.50000000E+00
  1.50000000E+00  8.00000000E-01  8.00000000E-01  1.50000000E+00  1.50000000E+00
  8.00000000E-01  8.00000000E-01  1.50000000E+00  1.50000000E+00  8.00000000E-01
  8.00000000E-01  1.50000000E+00  1.50000000E+00  8.00000000E-01  8.00000000E-01
  1.50000000E+00  1.50000000E+00  8.00000000E-01  8.00000000E-01  1.50000000E+00
  1.50000000E+00  8.00000000E-01  8.00000000E-01  1.50000000E+00  1.50000000E+00
  8.00000000E-01  8.00000000E-01  1.50000000E+00  1.50000000E+00  8.00000000E-01
  8.00000000E-01  1.50000000E+00  1.50000000E+00  8.00000000E-01  8.00000000E-01
  1.50000000E+00  1.50000000E+00  8.00000000E-01  8.00000000E-01  1.50000000E+00
  1.50000000E+00  8.00000000E-01  8.00000000E-01  1.50000000E+00  1.50000000E+00
  8.00000000E-01  8.00000000E-01  1.50000000E+00  1.50000000E+00  8.00000000E-01
  8.00000000E-01  1.50000000E+00  1.50000000E+00  8.00000000E-01  8.00000000E-01
  1.50000000E+00  1.50000000E+00  8.00000000E-01  8.00000000E-01  1.50000000E+00
  1.50000000E+00  8.00000000E-01  8.00000000E-01  1.50000000E+00  1.50000000E+00
  8.00000000E-01  8.00000000E-01  1.50000000E+00  1.50000000E+00  8.00000000E-01
  8.00000000E-01  1.50000000E+00  1.50000000E+00  8.00000000E-01  8.00000000E-01
  1.50000000E+00  1.50000000E+00  8.00000000E-01  8.00000000E-01  1.50000000E+00
  1.50000000E+00  8.00000000E-01  8.00000000E-01  1.50000000E+00  1.50000000E+00
  8.00000000E-01  8.00000000E-01  1.50000000E+00  1.50000000E+00  8.00000000E-01
  8.00000000E-01  1.50000000E+00  1.50000000E+00  8.00000000E-01  8.00000000E-01
  1.50000000E+00  1.50000000E+00  8.00000000E-01  8.00000000E-01  1.50000000E+00
  1.50000000E+00  8.00000000E-01  8.00000000E-01  1.50000000E+00  1.50000000E+00
  8.00000000E-01  8.00000000E-01  1.50000000E+00  1.50000000E+00  8.00000000E-01
  8.00000000E-01  1.50000000E+00  1.50000000E+00  8.00000000E-01  8.00000000E-01
  1.50000000E+00  1.50000000E+00  8.00000000E-01  8.00000000E-01  1.50000000E+00
  1.50000000E+00  8.00000000E-01  8.00000000E-01  1.50000000E+00  1.50000000E+00
  8.00000000E-01  8.00000000E-01  1.50000000E+00  1.50000000E+00  8.00000000E-01
  8.00000000E-01  1.50000000E+00  1.50000000E+00  8.00000000E-01  8.00000000E-01
  1.50000000E+00  1.50000000E+00  8.00000000E-01  8.00000000E-01  1.50000000E+00
  1.50000000E+00  8.00000000E-01  8.00000000E-01  1.50000000E+00  1.50000000E+00
  8.00000000E-01  8.00000000E-01  1.50000000E+00  1.50000000E+00  8.00000000E-01
  8.00000000E-01  1.50000000E+00  1.50000000E+00  8.00000000E-01  8.00000000E-01
  1.50000000E+00  1.50000000E+00  8.00000000E-01  8.00000000E-01  1.50000000E+00
  1.50000000E+00  8.00000000E-01  8.00000000E-01  1.50000000E+00  1.50000000E+00
  8.00000000E-01  8.00000000E-01  1.50000000E+00  1.50000000E+00  8.00000000E-01
  8.00000000E-01  1.50000000E+00  1.50000000E+00  8.00000000E-01  8.00000000E-01
  1.50000000E+00  1.50000000E+00  8.00000000E-01  8.00000000E-01  1.50000000E+00
  1.50000000E+00  8.00000000E-01  8.00000000E-01  1.50000000E+00  1.50000000E+00
  8.00000000E-01  8.00000000E-01  1.50000000E+00  1.50000000E+00  8.00000000E-01
  8.00000000E-01  1.50000000E+00  1.50000000E+00  8.00000000E-01  8.00000000E-01
  1.50000000E+00  1.50000000E+00  8.00000000E-01  8.00000000E-01  1.50000000E+00
  1.50000000E+00  8.00000000E-01  8.00000000E-01  1.50000000E+00  1.50000000E+00
  8.00000000E-01  8.00000000E-01  1.50000000E+00  1.50000000E+00  8.00000000E-01
  8.00000000E-01  1.50000000E+00  1.50000000E+00  8.00000000E-01  8.00000000E-01
  1.50000000E+00  1.50000000E+00  8.00000000E-01  8.00000000E-01  1.50000000E+00
  1.50000000E+00  8.00000000E-01  8.00000000E-01  1.50000000E+00  1.50000000E+00
  8.00000000E-01  8.00000000E-01  1.50000000E+00  1.50000000E+00  8.00000000E-01
  8.00000000E-01  1.50000000E+00  1.50000000E+00  8.00000000E-01  8.00000000E-01
  1.50000000E+00  1.50000000E+00  8.00000000E-01  8.00000000E-01  1.50000000E+00
  1.50000000E+00  8.00000000E-01  8.00000000E-01  1.50000000E+00  1.50000000E+00
  8.00000000E-01  8.00000000E-01  1.50000000E+00  1.50000000E+00  8.00000000E-01
  8.00000000E-01  1.50000000E+00  1.50000000E+00  8.00000000E-01  8.00000000E-01
  1.50000000E+00  1.50000000E+00  8.00000000E-01  8.00000000E-01  1.50000000E+00
  1.50000000E+00  8.00000000E-01  8.00000000E-01  1.50000000E+00  1.50000000E+00
  8.00000000E-01  8.00000000E-01  1.50000000E+00  1.50000000E+00  8.00000000E-01
  8.00000000E-01  1.50000000E+00  1.50000000E+00  8.00000000E-01  8.00000000E-01
  1.50000000E+00  1.50000000E+00  8.00000000E-01  8.00000000E-01  1.50000000E+00
  1.50000000E+00  8.00000000E-01  8.00000000E-01  1.50000000E+00  1.50000000E+00
  8.00000000E-01  8.00000000E-01  1.50000000E+00  1.50000000E+00  8.00000000E-01
  8.00000000E-01  1.50000000E+00  1.50000000E+00  8.00000000E-01  8.00000000E-01
  1.50000000E+00  1.50000000E+00  8.00000000E-01  8.00000000E-01  1.50000000E+00
  1.50000000E+00  8.00000000E-01  8.00000000E-01  1.50000000E+00  1.50000000E+00
  8.00000000E-01  8.00000000E-01  1.50000000E+00  1.50000000E+00  8.00000000E-01
  8.00000000E-01  1.50000000E+00  1.50000000E+00  8.00000000E-01  8.00000000E-01
  1.50000000E+00  1.50000000E+00  8.00000000E-01  8.00000000E-01  1.50000000E+00
  1.50000000E+00  8.00000000E-01  8.00000000E-01  1.50000000E+00  1.50000000E+00
  8.00000000E-01  8.00000000E-01  1.50000000E+00  1.50000000E+00  8.00000000E-01
  8.00000000E-01  1.50000000E+00  1.50000000E+00  8.00000000E-01  8.00000000E-01
  1.50000000E+00  1.50000000E+00  8.00000000E-01  8.00000000E-01  1.50000000E+00
  1.50000000E+00  8.00000000E-01  8.00000000E-01  1.50000000E+00  1.50000000E+00
  8.00000000E-01  8.00000000E-01  1.50000000E+00  1.50000000E+00  8.00000000E-01
  8.00000000E-01  1.50000000E+00  1.50000000E+00  8.00000000E-01  8.00000000E-01
  1.50000000E+00  1.50000000E+00  8.00000000E-01  8.00000000E-01  1.50000000E+00
  1.50000000E+00  8.00000000E-01  8.00000000E-01  1.50000000E+00  1.50000000E+00
  8.00000000E-01  8.00000000E-01  1.50000000E+00  1.50000000E+00  8.00000000E-01
  8.00000000E-01  1.50000000E+00  1.50000000E+00  8.00000000E-01  8.00000000E-01
  1.50000000E+00  1.50000000E+00  8.00000000E-01  8.00000000E-01  1.50000000E+00
  1.50000000E+00  8.00000000E-01  8.00000000E-01  1.50000000E+00  1.50000000E+00
  8.00000000E-01  8.00000000E-01  1.50000000E+00  1.50000000E+00  8.00000000E-01
  8.00000000E-01  1.50000000E+00  1.50000000E+00  8.00000000E-01  8.00000000E-01
  1.50000000E+00  1.50000000E+00  8.00000000E-01  8.00000000E-01  1.50000000E+00
  1.50000000E+00  8.00000000E-01  8.00000000E-01  1.50000000E+00  1.50000000E+00
  8.00000000E-01  8.00000000E-01  1.50000000E+00  1.50000000E+00  8.00000000E-01
  8.00000000E-01  1.50000000E+00  1.50000000E+00  8.00000000E-01  8.00000000E-01
  1.50000000E+00  1.50000000E+00  8.00000000E-01  8.00000000E-01  1.50000000E+00
  1.50000000E+00  8.00000000E-01  8.00000000E-01  1.50000000E+00  1.50000000E+00
  8.00000000E-01  8.00000000E-01  1.50000000E+00  1.50000000E+00  8.00000000E-01
  8.00000000E-01  1.50000000E+00  1.50000000E+00  8.00000000E-01  8.00000000E-01
  1.50000000E+00  1.50000000E+00  8.00000000E-01  8.00000000E-01  1.50000000E+00
  1.50000000E+00  8.00000000E-01  8.00000000E-01  1.50000000E+00  1.50000000E+00
  8.00000000E-01  8.00000000E-01  1.50000000E+00  1.50000000E+00  8.00000000E-01
  8.00000000E-01  1.50000000E+00  1.50000000E+00  8.00000000E-01  8.00000000E-01
  1.50000000E+00  1.50000000E+00  8.00000000E-01  8.00000000E-01  1.50000000E+00
  1.50000000E+00  8.00000000E-01  8.00000000E-01  1.50000000E+00  1.50000000E+00
  8.00000000E-01  8.00000000E-01  1.50000000E+00  1.50000000E+00  8.00000000E-01
  8.00000000E-01  1.50000000E+00  1.50000000E+00  8.00000000E-01  8.00000000E-01
  1.50000000E+00  1.50000000E+00  8.00000000E-01  8.00000000E-01  1.50000000E+00
  1.50000000E+00  8.00000000E-01  8.00000000E-01  1.50000000E+00  1.50000000E+00
  8.00000000E-01  8.00000000E-01  1.50000000E+00  1.50000000E+00  8.00000000E-01
  8.00000000E-01  1.50000000E+00  1.50000000E+00  8.00000000E-01  8.00000000E-01
  1.50000000E+00  1.50000000E+00  8.00000000E-01  8.00000000E-01  1.50000000E+00
  1.50000000E+00  8.00000000E-01  8.00000000E-01  1.50000000E+00  1.50000000E+00
  8.00000000E-01  8.00000000E-01  1.50000000E+00  1.50000000E+00  8.00000000E-01
  8.00000000E-01  1.50000000E+00  1.50000000E+00  8.00000000E-01  8.00000000E-01
  1.50000000E+00  1.50000000E+00  8.00000000E-01  8.00000000E-01  1.50000000E+00
  1.50000000E+00  8.00000000E-01  8.00000000E-01  1.50000000E+00  1.50000000E+00
  8.00000000E-01  8.00000000E-01  1.50000000E+00  1.50000000E+00  8.00000000E-01
  8.00000000E-01  1.50000000E+00  1.50000000E+00  8.00000000E-01  8.00000000E-01
  1.50000000E+00  1.50000000E+00  8.00000000E-01  8.00000000E-01  1.50000000E+00
  1.50000000E+00  8.00000000E-01  8.00000000E-01  1.50000000E+00  1.50000000E+00
  8.00000000E-01  8.00000000E-01  1.50000000E+00  1.50000000E+00  8.00000000E-01
  8.00000000E-01  1.50000000E+00  1.50000000E+00  8.00000000E-01  8.00000000E-01
  1.50000000E+00  1.50000000E+00  8.00000000E-01  8.00000000E-01  1.50000000E+00
  1.50000000E+00  8.00000000E-01  8.00000000E-01  1.50000000E+00  1.50000000E+00
  8.00000000E-01  8.00000000E-01  1.50000000E+00  1.50000000E+00  8.00000000E-01
  8.00000000E-01  1.50000000E+00  1.50000000E+00  8.00000000E-01  8.00000000E-01
  1.50000000E+00  1.50000000E+00  8.00000000E-01  8.00000000E-01  1.50000000E+00
  1.50000000E+00  8.00000000E-01  8.00000000E-01  1.50000000E+00  1.50000000E+00
  8.00000000E-01  8.00000000E-01  1.50000000E+00  1.50000000E+00  8.00000000E-01
  8.00000000E-01  1.50000000E+00  1.50000000E+00  8.00000000E-01  8.00000000E-01
  1.50000000E+00  1.50000000E+00  8.00000000E-01  8.00000000E-01  1.50000000E+00
  1.50000000E+00  8.00000000E-01  8.00000000E-01  1.50000000E+00  1.50000000E+00
  8.00000000E-01  8.00000000E-01  1.50000000E+00  1.50000000E+00  8.00000000E-01
  8.00000000E-01  1.50000000E+00  1.50000000E+00  8.00000000E-01  8.00000000E-01
  1.50000000E+00  1.50000000E+00  8.00000000E-01  8.00000000E-01  1.50000000E+00
  1.50000000E+00  8.00000000E-01  8.00000000E-01  1.50000000E+00  1.50000000E+00
  8.00000000E-01  8.00000000E-01  1.50000000E+00  1.50000000E+00  8.00000000E-01
  8.00000000E-01  1.50000000E+00  1.50000000E+00  8.00000000E-01  8.00000000E-01
  1.50000000E+00  1.50000000E+00  8.00000000E-01  8.00000000E-01  1.50000000E+00
  1.50000000E+00  8.00000000E-01  8.00000000E-01  1.50000000E+00  1.50000000E+00
  8.00000000E-01  8.00000000E-01  1.50000000E+00  1.50000000E+00  8.00000000E-01
  8.00000000E-01  1.50000000E+00  1.50000000E+00  8.00000000E-01  8.00000000E-01
  1.50000000E+00  1.50000000E+00  8.00000000E-01  8.00000000E-01  1.50000000E+00
  1.50000000E+00  8.00000000E-01  8.00000000E-01  1.50000000E+00  1.50000000E+00
  8.00000000E-01  8.00000000E-01  1.50000000E+00  1.50000000E+00  8.00000000E-01
  8.00000000E-01  1.50000000E+00  1.50000000E+00  8.00000000E-01  8.00000000E-01
  1.50000000E+00  1.50000000E+00  8.00000000E-01  8.00000000E-01  1.50000000E+00
  1.50000000E+00  8.00000000E-01  8.00000000E-01  1.50000000E+00  1.50000000E+00
  8.00000000E-01  8.00000000E-01  1.50000000E+00  1.50000000E+00  8.00000000E-01
  8.00000000E-01  1.50000000E+00  1.50000000E+00  8.00000000E-01  8.00000000E-01
  1.50000000E+00  1.50000000E+00  8.00000000E-01  8.00000000E-01  1.50000000E+00
  1.50000000E+00  8.00000000E-01  8.00000000E-01  1.50000000E+00  1.50000000E+00
  8.00000000E-01  8.00000000E-01  1.50000000E+00  1.50000000E+00  8.00000000E-01
  8.00000000E-01  1.50000000E+00  1.50000000E+00  8.00000000E-01  8.00000000E-01
  1.50000000E+00  1.50000000E+00  8.00000000E-01  8.00000000E-01  1.50000000E+00
  1.50000000E+00  8.00000000E-01  8.00000000E-01  1.50000000E+00  1.50000000E+00
  8.00000000E-01  8.00000000E-01  1.50000000E+00  1.50000000E+00  8.00000000E-01
  8.00000000E-01  1.50000000E+00  1.50000000E+00  8.00000000E-01  8.00000000E-01
  1.50000000E+00  1.50000000E+00  8.00000000E-01  8.00000000E-01  1.50000000E+00
  1.50000000E+00  8.00000000E-01  8.00000000E-01  1.50000000E+00  1.50000000E+00
  8.00000000E-01  8.00000000E-01  1.50000000E+00  1.50000000E+00  8.00000000E-01
  8.00000000E-01  1.50000000E+00  1.50000000E+00  8.00000000E-01  8.00000000E-01
  1.50000000E+00  1.50000000E+00  8.00000000E-01  8.00000000E-01  1.50000000E+00
  1.50000000E+00  8.00000000E-01  8.00000000E-01  1.50000000E+00  1.50000000E+00
  8.00000000E-01  8.00000000E-01  1.50000000E+00  1.50000000E+00  8.00000000E-01
  8.00000000E-01  1.50000000E+00  1.50000000E+00  8.00000000E-01  8.00000000E-01
  1.50000000E+00  1.50000000E+00  8.00000000E-01  8.00000000E-01  1.50000000E+00
  1.50000000E+00  8.00000000E-01  8.00000000E-01  1.50000000E+00  1.50000000E+00
  8.00000000E-01  8.00000000E-01  1.50000000E+00  1.50000000E+00  8.00000000E-01
  8.00000000E-01  1.50000000E+00  1.50000000E+00  8.00000000E-01  8.00000000E-01
  1.50000000E+00  1.50000000E+00  8.00000000E-01  8.00000000E-01  1.50000000E+00
  1.50000000E+00  8.00000000E-01  8.00000000E-01  1.50000000E+00  1.50000000E+00
  8.00000000E-01  8.00000000E-01  1.50000000E+00  1.50000000E+00  8.00000000E-01
  8.00000000E-01  1.50000000E+00  1.50000000E+00  8.00000000E-01  8.00000000E-01
  1.50000000E+00  1.50000000E+00  8.00000000E-01  8.00000000E-01  1.50000000E+00
  1.50000000E+00  8.00000000E-01  8.00000000E-01  1.50000000E+00  1.50000000E+00
  8.00000000E-01  8.00000000E-01  1.50000000E+00  1.50000000E+00  8.00000000E-01
  8.00000000E-01  1.50000000E+00  1.50000000E+00  8.00000000E-01  8.00000000E-01
  1.50000000E+00  1.50000000E+00  8.00000000E-01  8.00000000E-01  1.50000000E+00
  1.50000000E+00  8.00000000E-01  8.00000000E-01  1.50000000E+00  1.50000000E+00
  8.00000000E-01  8.00000000E-01  1.50000000E+00  1.50000000E+00  8.00000000E-01
  8.00000000E-01  1.50000000E+00  1.50000000E+00  8.00000000E-01  8.00000000E-01
  1.50000000E+00  1.50000000E+00  8.00000000E-01  8.00000000E-01  1.50000000E+00
  1.50000000E+00  8.00000000E-01  8.00000000E-01  1.50000000E+00  1.50000000E+00
  8.00000000E-01  8.00000000E-01  1.50000000E+00  1.50000000E+00  8.00000000E-01
  8.00000000E-01  1.50000000E+00  1.50000000E+00  8.00000000E-01  8.00000000E-01
  1.50000000E+00  1.50000000E+00  8.00000000E-01  8.00000000E-01  1.50000000E+00
  1.50000000E+00  8.00000000E-01  8.00000000E-01  1.50000000E+00  1.50000000E+00
  8.00000000E-01  8.00000000E-01  1.50000000E+00  1.50000000E+00  8.00000000E-01
  8.00000000E-01  1.50000000E+00  1.50000000E+00  8.00000000E-01  8.00000000E-01
  1.50000000E+00  1.50000000E+00  8.00000000E-01  8.00000000E-01  1.50000000E+00
  1.50000000E+00  8.00000000E-01  8.00000000E-01  1.50000000E+00  1.50000000E+00
  8.00000000E-01  8.00000000E-01  1.50000000E+00  1.50000000E+00  8.00000000E-01
  8.00000000E-01  1.50000000E+00  1.50000000E+00  8.00000000E-01  8.00000000E-01
  1.50000000E+00  1.50000000E+00  8.00000000E-01  8.00000000E-01  1.50000000E+00
  1.50000000E+00  8.00000000E-01  8.00000000E-01  1.50000000E+00  1.50000000E+00
  8.00000000E-01  8.00000000E-01  1.50000000E+00  1.50000000E+00  8.00000000E-01
  8.00000000E-01  1.50000000E+00  1.50000000E+00  8.00000000E-01  8.00000000E-01
  1.50000000E+00  1.50000000E+00  8.00000000E-01  8.00000000E-01  1.50000000E+00
  1.50000000E+00  8.00000000E-01  8.00000000E-01  1.50000000E+00  1.50000000E+00
  8.00000000E-01  8.00000000E-01  1.50000000E+00  1.50000000E+00  8.00000000E-01
  8.00000000E-01  1.50000000E+00  1.50000000E+00  8.00000000E-01  8.00000000E-01
  1.50000000E+00  1.50000000E+00  8.00000000E-01  8.00000000E-01  1.50000000E+00
  1.50000000E+00  8.00000000E-01  8.00000000E-01  1.50000000E+00  1.50000000E+00
  8.00000000E-01  8.00000000E-01  1.50000000E+00  1.50000000E+00  8.00000000E-01
  8.00000000E-01  1.50000000E+00  1.50000000E+00  8.00000000E-01  8.00000000E-01
  1.50000000E+00  1.50000000E+00  8.00000000E-01  8.00000000E-01  1.50000000E+00
  1.50000000E+00  8.00000000E-01  8.00000000E-01  1.50000000E+00  1.50000000E+00
  8.00000000E-01  8.00000000E-01  1.50000000E+00  1.50000000E+00  8.00000000E-01
  8.00000000E-01  1.50000000E+00  1.50000000E+00  8.00000000E-01  8.00000000E-01
  1.50000000E+00  1.50000000E+00  8.00000000E-01  8.00000000E-01  1.50000000E+00
  1.50000000E+00  8.00000000E-01  8.00000000E-01  1.50000000E+00  1.50000000E+00
  8.00000000E-01  8.00000000E-01  1.50000000E+00  1.50000000E+00  8.00000000E-01
  8.00000000E-01  1.50000000E+00  1.50000000E+00  8.00000000E-01  8.00000000E-01
  1.50000000E+00  1.50000000E+00  8.00000000E-01  8.00000000E-01  1.50000000E+00
  1.50000000E+00  8.00000000E-01  8.00000000E-01  1.50000000E+00  1.50000000E+00
  8.00000000E-01  8.00000000E-01  1.50000000E+00  1.50000000E+00  8.00000000E-01
  8.00000000E-01  1.50000000E+00  1.50000000E+00  8.00000000E-01  8.00000000E-01
  1.50000000E+00  1.50000000E+00  8.00000000E-01  8.00000000E-01  1.50000000E+00
  1.50000000E+00  8.00000000E-01  8.00000000E-01  1.50000000E+00  1.50000000E+00
  8.00000000E-01  8.00000000E-01  1.50000000E+00  1.50000000E+00  8.00000000E-01
  8.00000000E-01  1.50000000E+00  1.50000000E+00  8.00000000E-01  8.00000000E-01
  1.50000000E+00  1.50000000E+00  8.00000000E-01  8.00000000E-01  1.50000000E+00
  1.50000000E+00  8.00000000E-01  8.00000000E-01  1.50000000E+00  1.50000000E+00
  8.00000000E-01  8.00000000E-01  1.50000000E+00  1.50000000E+00  8.00000000E-01
  8.00000000E-01  1.50000000E+00  1.50000000E+00  8.00000000E-01  8.00000000E-01
  1.50000000E+00  1.50000000E+00  8.00000000E-01  8.00000000E-01  1.50000000E+00
  1.50000000E+00  8.00000000E-01  8.00000000E-01  1.50000000E+00  1.50000000E+00
  8.00000000E-01  8.00000000E-01  1.50000000E+00  1.50000000E+00  8.00000000E-01
  8.00000000E-01  1.50000000E+00  1.50000000E+00  8.00000000E-01  8.00000000E-01
  1.50000000E+00  1.50000000E+00  8.00000000E-01  8.00000000E-01  1.50000000E+00
  1.50000000E+00  8.00000000E-01  8.00000000E-01  1.50000000E+00  1.50000000E+00
  8.00000000E-01  8.00000000E-01  1.50000000E+00  1.50000000E+00  8.00000000E-01
  8.00000000E-01  1.50000000E+00  1.50000000E+00  8.00000000E-01  8.00000000E-01
  1.50000000E+00  1.50000000E+00  8.00000000E-01  8.00000000E-01  1.50000000E+00
  1.50000000E+00  8.00000000E-01  8.00000000E-01  1.50000000E+00  1.50000000E+00
  8.00000000E-01  8.00000000E-01  1.50000000E+00  1.50000000E+00  8.00000000E-01
  8.00000000E-01  1.50000000E+00  1.50000000E+00  8.00000000E-01  8.00000000E-01
  1.50000000E+00  1.50000000E+00  8.00000000E-01  8.00000000E-01  1.50000000E+00
  1.50000000E+00  8.00000000E-01  8.00000000E-01  1.50000000E+00  1.50000000E+00
  8.00000000E-01  8.00000000E-01  1.50000000E+00  1.50000000E+00  8.00000000E-01
  8.00000000E-01  1.50000000E+00  1.50000000E+00  8.00000000E-01  8.00000000E-01
  1.50000000E+00  1.50000000E+00  8.00000000E-01  8.00000000E-01  1.50000000E+00
  1.50000000E+00  8.00000000E-01  8.00000000E-01  1.50000000E+00  1.50000000E+00
  8.00000000E-01  8.00000000E-01  1.50000000E+00  1.50000000E+00  8.00000000E-01
  8.00000000E-01  1.50000000E+00  1.50000000E+00  8.00000000E-01  8.00000000E-01
  1.50000000E+00  1.50000000E+00  8.00000000E-01  8.00000000E-01  1.50000000E+00
  1.50000000E+00  8.00000000E-01  8.00000000E-01  1.50000000E+00  1.50000000E+00
  8.00000000E-01  8.00000000E-01  1.50000000E+00  1.50000000E+00  8.00000000E-01
  8.00000000E-01  1.50000000E+00  1.50000000E+00  8.00000000E-01  8.00000000E-01
  1.50000000E+00  1.50000000E+00  8.00000000E-01  8.00000000E-01  1.50000000E+00
  1.50000000E+00  8.00000000E-01  8.00000000E-01  1.50000000E+00  1.50000000E+00
  8.00000000E-01  8.00000000E-01  1.50000000E+00  1.50000000E+00  8.00000000E-01
  8.00000000E-01  1.50000000E+00  1.50000000E+00  8.00000000E-01  8.00000000E-01
  1.50000000E+00  1.50000000E+00  8.00000000E-01  8.00000000E-01  1.50000000E+00
  1.50000000E+00  8.00000000E-01  8.00000000E-01  1.50000000E+00  1.50000000E+00
  8.00000000E-01  8.00000000E-01  1.50000000E+00  1.50000000E+00  8.00000000E-01
  8.00000000E-01  1.50000000E+00  1.50000000E+00  8.00000000E-01  8.00000000E-01
  1.50000000E+00  1.50000000E+00  8.00000000E-01  8.00000000E-01  1.50000000E+00
  1.50000000E+00  8.00000000E-01  8.00000000E-01  1.50000000E+00  1.50000000E+00
  8.00000000E-01  8.00000000E-01  1.50000000E+00  1.50000000E+00  8.00000000E-01
  8.00000000E-01  1.50000000E+00  1.50000000E+00  8.00000000E-01  8.00000000E-01
  1.50000000E+00  1.50000000E+00  8.00000000E-01  8.00000000E-01  1.50000000E+00
  1.50000000E+00  8.00000000E-01  8.00000000E-01  1.50000000E+00  1.50000000E+00
  8.00000000E-01  8.00000000E-01  1.50000000E+00  1.50000000E+00  8.00000000E-01
  8.00000000E-01  1.50000000E+00  1.50000000E+00  8.00000000E-01  8.00000000E-01
  1.50000000E+00  1.50000000E+00  8.00000000E-01  8.00000000E-01  1.50000000E+00
  1.50000000E+00  8.00000000E-01  8.00000000E-01  1.50000000E+00  1.50000000E+00
  8.00000000E-01  8.00000000E-01  1.50000000E+00  1.50000000E+00  8.00000000E-01
  8.00000000E-01  1.50000000E+00  1.50000000E+00  8.00000000E-01  8.00000000E-01
  1.50000000E+00  1.50000000E+00  8.00000000E-01  8.00000000E-01  1.50000000E+00
  1.50000000E+00  8.00000000E-01  8.00000000E-01  1.50000000E+00  1.50000000E+00
  8.00000000E-01  8.00000000E-01  1.50000000E+00  1.50000000E+00  8.00000000E-01
  8.00000000E-01  1.50000000E+00  1.50000000E+00  8.00000000E-01  8.00000000E-01
  1.50000000E+00  1.50000000E+00  8.00000000E-01  8.00000000E-01  1.50000000E+00
  1.50000000E+00  8.00000000E-01  8.00000000E-01  1.50000000E+00  1.50000000E+00
  8.00000000E-01  8.00000000E-01  1.50000000E+00  1.50000000E+00  8.00000000E-01
  8.00000000E-01  1.50000000E+00  1.50000000E+00  8.00000000E-01  8.00000000E-01
  1.50000000E+00  1.50000000E+00  8.00000000E-01  8.00000000E-01  1.50000000E+00
  1.50000000E+00  8.00000000E-01  8.00000000E-01  1.50000000E+00  1.50000000E+00
  8.00000000E-01  8.00000000E-01  1.50000000E+00  1.50000000E+00  8.00000000E-01
  8.00000000E-01  1.50000000E+00  1.50000000E+00  8.00000000E-01  8.00000000E-01
  1.50000000E+00  1.50000000E+00  8.00000000E-01  8.00000000E-01  1.50000000E+00
  1.50000000E+00  8.00000000E-01  8.00000000E-01  1.50000000E+00  1.50000000E+00
  8.00000000E-01  8.00000000E-01  1.50000000E+00  1.50000000E+00  8.00000000E-01
  8.00000000E-01  1.50000000E+00  1.50000000E+00  8.00000000E-01  8.00000000E-01
  1.50000000E+00  1.50000000E+00  8.00000000E-01  8.00000000E-01  1.50000000E+00
  1.50000000E+00  8.00000000E-01  8.00000000E-01  1.50000000E+00  1.50000000E+00
  8.00000000E-01  8.00000000E-01  1.50000000E+00  1.50000000E+00  8.00000000E-01
  8.00000000E-01  1.50000000E+00  1.50000000E+00  8.00000000E-01  8.00000000E-01
  1.50000000E+00  1.50000000E+00  8.00000000E-01  8.00000000E-01  1.50000000E+00
  1.50000000E+00  8.00000000E-01  8.00000000E-01  1.50000000E+00  1.50000000E+00
  8.00000000E-01  8.00000000E-01  1.50000000E+00  1.50000000E+00  8.00000000E-01
  8.00000000E-01  1.50000000E+00  1.50000000E+00  8.00000000E-01  8.00000000E-01
  1.50000000E+00  1.50000000E+00  8.00000000E-01  8.00000000E-01  1.50000000E+00
  1.50000000E+00  8.00000000E-01  8.00000000E-01  1.50000000E+00  1.50000000E+00
  8.00000000E-01  8.00000000E-01  1.50000000E+00  1.50000000E+00  8.00000000E-01
  8.00000000E-01  1.50000000E+00  1.50000000E+00  8.00000000E-01  8.00000000E-01
  1.50000000E+00  1.50000000E+00  8.00000000E-01  8.00000000E-01  1.50000000E+00
  1.50000000E+00  8.00000000E-01  8.00000000E-01  1.50000000E+00  1.50000000E+00
  8.00000000E-01  8.00000000E-01  1.50000000E+00  1.50000000E+00  8.00000000E-01
  8.00000000E-01  1.50000000E+00  1.50000000E+00  8.00000000E-01  8.00000000E-01
  1.50000000E+00  1.50000000E+00  8.00000000E-01  8.00000000E-01  1.50000000E+00
  1.50000000E+00  8.00000000E-01  8.00000000E-01  1.50000000E+00  1.50000000E+00
  8.00000000E-01  8.00000000E-01  1.50000000E+00  1.50000000E+00  8.00000000E-01
  8.00000000E-01  1.50000000E+00  1.50000000E+00  8.00000000E-01  8.00000000E-01
  1.50000000E+00  1.50000000E+00  8.00000000E-01  8.00000000E-01  1.50000000E+00
  1.50000000E+00  8.00000000E-01  8.00000000E-01  1.50000000E+00  1.50000000E+00
  8.00000000E-01  8.00000000E-01  1.50000000E+00  1.50000000E+00  8.00000000E-01
  8.00000000E-01  1.50000000E+00  1.50000000E+00  8.00000000E-01  8.00000000E-01
  1.50000000E+00  1.50000000E+00  8.00000000E-01  8.00000000E-01  1.50000000E+00
  1.50000000E+00  8.00000000E-01  8.00000000E-01  1.50000000E+00  1.50000000E+00
  8.00000000E-01  8.00000000E-01  1.50000000E+00  1.50000000E+00  8.00000000E-01
  8.00000000E-01  1.50000000E+00  1.50000000E+00  8.00000000E-01  8.00000000E-01
  1.50000000E+00  1.50000000E+00  8.00000000E-01  8.00000000E-01  1.50000000E+00
  1.50000000E+00  8.00000000E-01  8.00000000E-01  1.50000000E+00  1.50000000E+00
  8.00000000E-01  8.00000000E-01  1.50000000E+00  1.50000000E+00  8.00000000E-01
  8.00000000E-01  1.50000000E+00  1.50000000E+00  8.00000000E-01  8.00000000E-01
  1.50000000E+00  1.50000000E+00  8.00000000E-01  8.00000000E-01  1.50000000E+00
  1.50000000E+00  8.00000000E-01  8.00000000E-01  1.50000000E+00  1.50000000E+00
  8.00000000E-01  8.00000000E-01  1.50000000E+00  1.50000000E+00  8.00000000E-01
  8.00000000E-01  1.50000000E+00  1.50000000E+00  8.00000000E-01  8.00000000E-01
  1.50000000E+00  1.50000000E+00  8.00000000E-01  8.00000000E-01  1.50000000E+00
  1.50000000E+00  8.00000000E-01  8.00000000E-01  1.50000000E+00  1.50000000E+00
  8.00000000E-01  8.00000000E-01  1.50000000E+00  1.50000000E+00  8.00000000E-01
  8.00000000E-01  1.50000000E+00  1.50000000E+00  8.00000000E-01  8.00000000E-01
  1.50000000E+00  1.50000000E+00  8.00000000E-01  8.00000000E-01  1.50000000E+00
  1.50000000E+00  8.00000000E-01  8.00000000E-01  1.50000000E+00  1.50000000E+00
  8.00000000E-01  8.00000000E-01  1.50000000E+00  1.50000000E+00  8.00000000E-01
  8.00000000E-01  1.50000000E+00  1.50000000E+00  8.00000000E-01  8.00000000E-01
  1.50000000E+00  1.50000000E+00  8.00000000E-01  8.00000000E-01  1.50000000E+00
  1.50000000E+00  8.00000000E-01  8.00000000E-01  1.50000000E+00  1.50000000E+00
  8.00000000E-01  8.00000000E-01  1.50000000E+00  1.50000000E+00  8.00000000E-01
  8.00000000E-01  1.50000000E+00  1.50000000E+00  8.00000000E-01  8.00000000E-01
  1.50000000E+00  1.50000000E+00  8.00000000E-01  8.00000000E-01  1.50000000E+00
  1.50000000E+00  8.00000000E-01  8.00000000E-01  1.50000000E+00  1.50000000E+00
  8.00000000E-01  8.00000000E-01  1.50000000E+00  1.50000000E+00  8.00000000E-01
  8.00000000E-01  1.50000000E+00  1.50000000E+00  8.00000000E-01  8.00000000E-01
  1.50000000E+00  1.50000000E+00  8.00000000E-01  8.00000000E-01  1.50000000E+00
  1.50000000E+00  8.00000000E-01  8.00000000E-01  1.50000000E+00  1.50000000E+00
  8.00000000E-01  8.00000000E-01  1.50000000E+00  1.50000000E+00  8.00000000E-01
  8.00000000E-01  1.50000000E+00  1.50000000E+00  8.00000000E-01  8.00000000E-01
  1.50000000E+00  1.50000000E+00  8.00000000E-01  8.00000000E-01  1.50000000E+00
  1.50000000E+00  8.00000000E-01  8.00000000E-01  1.50000000E+00  1.50000000E+00
  8.00000000E-01  8.00000000E-01  1.50000000E+00  1.50000000E+00  8.00000000E-01
  8.00000000E-01  1.50000000E+00  1.50000000E+00  8.00000000E-01  8.00000000E-01
  1.50000000E+00  1.50000000E+00  8.00000000E-01  8.00000000E-01  1.50000000E+00
  1.50000000E+00  8.00000000E-01  8.00000000E-01  1.50000000E+00  1.50000000E+00
  8.00000000E-01  8.00000000E-01  1.50000000E+00  1.50000000E+00  8.00000000E-01
  8.00000000E-01  1.50000000E+00  1.50000000E+00  8.00000000E-01  8.00000000E-01
  1.50000000E+00  1.50000000E+00  8.00000000E-01  8.00000000E-01  1.50000000E+00
  1.50000000E+00  8.00000000E-01  8.00000000E-01  1.50000000E+00  1.50000000E+00
  8.00000000E-01  8.00000000E-01  1.50000000E+00  1.50000000E+00  8.00000000E-01
  8.00000000E-01  1.50000000E+00  1.50000000E+00  8.00000000E-01  8.00000000E-01
  1.50000000E+00  1.50000000E+00  8.00000000E-01  8.00000000E-01  1.50000000E+00
  1.50000000E+00  8.00000000E-01  8.00000000E-01  1.50000000E+00  1.50000000E+00
  8.00000000E-01  8.00000000E-01  1.50000000E+00  1.50000000E+00  8.00000000E-01
  8.00000000E-01  1.50000000E+00  1.50000000E+00  8.00000000E-01  8.00000000E-01
  1.50000000E+00  1.50000000E+00  8.00000000E-01  8.00000000E-01  1.50000000E+00
  1.50000000E+00  8.00000000E-01  8.00000000E-01  1.50000000E+00  1.50000000E+00
  8.00000000E-01  8.00000000E-01  1.50000000E+00  1.50000000E+00  8.00000000E-01
  8.00000000E-01  1.50000000E+00  1.50000000E+00  8.00000000E-01  8.00000000E-01
  1.50000000E+00  1.50000000E+00  8.00000000E-01  8.00000000E-01  1.50000000E+00
  1.50000000E+00  8.00000000E-01  8.00000000E-01  1.50000000E+00  1.50000000E+00
  8.00000000E-01  8.00000000E-01  1.50000000E+00  1.50000000E+00  8.00000000E-01
  8.00000000E-01  1.50000000E+00  1.50000000E+00  8.00000000E-01  8.00000000E-01
  1.50000000E+00  1.50000000E+00  8.00000000E-01  8.00000000E-01  1.50000000E+00
  1.50000000E+00  8.00000000E-01  8.00000000E-01  1.50000000E+00  1.50000000E+00
  8.00000000E-01  8.00000000E-01  1.50000000E+00  1.50000000E+00  8.00000000E-01
  8.00000000E-01  1.50000000E+00  1.50000000E+00  8.00000000E-01  8.00000000E-01
  1.50000000E+00  1.50000000E+00  8.00000000E-01  8.00000000E-01  1.50000000E+00
  1.50000000E+00  8.00000000E-01  8.00000000E-01  1.50000000E+00  1.50000000E+00
  8.00000000E-01  8.00000000E-01  1.50000000E+00  1.50000000E+00  8.00000000E-01
  8.00000000E-01  1.50000000E+00  1.50000000E+00  8.00000000E-01  8.00000000E-01
  1.50000000E+00  1.50000000E+00  8.00000000E-01  8.00000000E-01  1.50000000E+00
  1.50000000E+00  8.00000000E-01  8.00000000E-01  1.50000000E+00  1.50000000E+00
  8.00000000E-01  8.00000000E-01  1.50000000E+00  1.50000000E+00  8.00000000E-01
  8.00000000E-01  1.50000000E+00  1.50000000E+00  8.00000000E-01  8.00000000E-01
  1.50000000E+00  1.50000000E+00  8.00000000E-01  8.00000000E-01  1.50000000E+00
  1.50000000E+00  8.00000000E-01  8.00000000E-01  1.50000000E+00  1.50000000E+00
  8.00000000E-01  8.00000000E-01  1.50000000E+00  1.50000000E+00  8.00000000E-01
  8.00000000E-01  1.50000000E+00  1.50000000E+00  8.00000000E-01  8.00000000E-01
  1.50000000E+00  1.50000000E+00  8.00000000E-01  8.00000000E-01  1.50000000E+00
  1.50000000E+00  8.00000000E-01  8.00000000E-01  1.50000000E+00  1.50000000E+00
  8.00000000E-01  8.00000000E-01  1.50000000E+00  1.50000000E+00  8.00000000E-01
  8.00000000E-01  1.50000000E+00  1.50000000E+00  8.00000000E-01  8.00000000E-01
  1.50000000E+00  1.50000000E+00  8.00000000E-01  8.00000000E-01  1.50000000E+00
  1.50000000E+00  8.00000000E-01  8.00000000E-01  1.50000000E+00  1.50000000E+00
  8.00000000E-01  8.00000000E-01  1.50000000E+00  1.50000000E+00  8.00000000E-01
  8.00000000E-01  1.50000000E+00  1.50000000E+00  8.00000000E-01  8.00000000E-01
  1.50000000E+00  1.50000000E+00  8.00000000E-01  8.00000000E-01  1.50000000E+00
  1.50000000E+00  8.00000000E-01  8.00000000E-01  1.50000000E+00  1.50000000E+00
  8.00000000E-01  8.00000000E-01  1.50000000E+00  1.50000000E+00  8.00000000E-01
  8.00000000E-01  1.50000000E+00  1.50000000E+00  8.00000000E-01  8.00000000E-01
  1.50000000E+00  1.50000000E+00  8.00000000E-01  8.00000000E-01  1.50000000E+00
  1.50000000E+00  8.00000000E-01  8.00000000E-01  1.50000000E+00  1.50000000E+00
  8.00000000E-01  8.00000000E-01  1.50000000E+00  1.50000000E+00  8.00000000E-01
  8.00000000E-01  1.50000000E+00  1.50000000E+00  8.00000000E-01  8.00000000E-01
  1.50000000E+00  1.50000000E+00  8.00000000E-01  8.00000000E-01  1.50000000E+00
  1.50000000E+00  8.00000000E-01  8.00000000E-01  1.50000000E+00  1.50000000E+00
  8.00000000E-01  8.00000000E-01  1.50000000E+00  1.50000000E+00  8.00000000E-01
  8.00000000E-01  1.50000000E+00  1.50000000E+00  8.00000000E-01  8.00000000E-01
  1.50000000E+00  1.50000000E+00  8.00000000E-01  8.00000000E-01  1.50000000E+00
  1.50000000E+00  8.00000000E-01  8.00000000E-01  1.50000000E+00  1.50000000E+00
  8.00000000E-01  8.00000000E-01  1.50000000E+00  1.50000000E+00  8.00000000E-01
  8.00000000E-01  1.50000000E+00  1.50000000E+00  8.00000000E-01  8.00000000E-01
  1.50000000E+00  1.50000000E+00  8.00000000E-01  8.00000000E-01  1.50000000E+00
  1.50000000E+00  8.00000000E-01  8.00000000E-01  1.50000000E+00  1.50000000E+00
  8.00000000E-01  8.00000000E-01  1.50000000E+00  1.50000000E+00  8.00000000E-01
  8.00000000E-01  1.50000000E+00  1.50000000E+00  8.00000000E-01  8.00000000E-01
  1.50000000E+00  1.50000000E+00  8.00000000E-01  8.00000000E-01  1.50000000E+00
  1.50000000E+00  8.00000000E-01  8.00000000E-01  1.50000000E+00  1.50000000E+00
  8.00000000E-01  8.00000000E-01  1.50000000E+00  1.50000000E+00  8.00000000E-01
  8.00000000E-01  1.50000000E+00  1.50000000E+00  8.00000000E-01  8.00000000E-01
  1.50000000E+00  1.50000000E+00  8.00000000E-01  8.00000000E-01  1.50000000E+00
  1.50000000E+00  8.00000000E-01  8.00000000E-01  1.50000000E+00  1.50000000E+00
  8.00000000E-01  8.00000000E-01  1.50000000E+00  1.50000000E+00  8.00000000E-01
  8.00000000E-01  1.50000000E+00  1.50000000E+00  8.00000000E-01  8.00000000E-01
  1.50000000E+00  1.50000000E+00  8.00000000E-01  8.00000000E-01  1.50000000E+00
  1.50000000E+00  8.00000000E-01  8.00000000E-01  1.50000000E+00  1.50000000E+00
  8.00000000E-01  8.00000000E-01  1.50000000E+00  1.50000000E+00  8.00000000E-01
  8.00000000E-01  1.50000000E+00  1.50000000E+00  8.00000000E-01  8.00000000E-01
  1.50000000E+00  1.50000000E+00  8.00000000E-01  8.00000000E-01  1.50000000E+00
  1.50000000E+00  8.00000000E-01  8.00000000E-01  1.50000000E+00  1.50000000E+00
  8.00000000E-01  8.00000000E-01  1.50000000E+00  1.50000000E+00  8.00000000E-01
  8.00000000E-01  1.50000000E+00  1.50000000E+00  8.00000000E-01  8.00000000E-01
  1.50000000E+00  1.50000000E+00  8.00000000E-01  8.00000000E-01  1.50000000E+00
  1.50000000E+00  8.00000000E-01  8.00000000E-01  1.50000000E+00  1.50000000E+00
  8.00000000E-01  8.00000000E-01  1.50000000E+00  1.50000000E+00  8.00000000E-01
  8.00000000E-01  1.50000000E+00  1.50000000E+00  8.00000000E-01  8.00000000E-01
  1.50000000E+00  1.50000000E+00  8.00000000E-01  8.00000000E-01  1.50000000E+00
  1.50000000E+00  8.00000000E-01  8.00000000E-01  1.50000000E+00  1.50000000E+00
  8.00000000E-01  8.00000000E-01  1.50000000E+00  1.50000000E+00  8.00000000E-01
  8.00000000E-01  1.50000000E+00  1.50000000E+00  8.00000000E-01  8.00000000E-01
  1.50000000E+00  1.50000000E+00  8.00000000E-01  8.00000000E-01  1.50000000E+00
  1.50000000E+00  8.00000000E-01  8.00000000E-01  1.50000000E+00  1.50000000E+00
  8.00000000E-01  8.00000000E-01  1.50000000E+00  1.50000000E+00  8.00000000E-01
  8.00000000E-01  1.50000000E+00  1.50000000E+00  8.00000000E-01  8.00000000E-01
  1.50000000E+00  1.50000000E+00  8.00000000E-01  8.00000000E-01  1.50000000E+00
  1.50000000E+00  8.00000000E-01  8.00000000E-01  1.50000000E+00  1.50000000E+00
  8.00000000E-01  8.00000000E-01  1.50000000E+00  1.50000000E+00  8.00000000E-01
  8.00000000E-01  1.50000000E+00  1.50000000E+00  8.00000000E-01  8.00000000E-01
  1.50000000E+00  1.50000000E+00  8.00000000E-01  8.00000000E-01  1.50000000E+00
  1.50000000E+00  8.00000000E-01  8.00000000E-01  1.50000000E+00  1.50000000E+00
  8.00000000E-01  8.00000000E-01  1.50000000E+00  1.50000000E+00  8.00000000E-01
  8.00000000E-01  1.50000000E+00  1.50000000E+00  8.00000000E-01  8.00000000E-01
  1.50000000E+00  1.50000000E+00  8.00000000E-01  8.00000000E-01  1.50000000E+00
  1.50000000E+00  8.00000000E-01  8.00000000E-01  1.50000000E+00  1.50000000E+00
  8.00000000E-01  8.00000000E-01  1.50000000E+00  1.50000000E+00  8.00000000E-01
  8.00000000E-01  1.50000000E+00  1.50000000E+00  8.00000000E-01  8.00000000E-01
  1.50000000E+00  1.50000000E+00  8.00000000E-01  8.00000000E-01  1.50000000E+00
  1.50000000E+00  8.00000000E-01  8.00000000E-01  1.50000000E+00  1.50000000E+00
  8.00000000E-01  8.00000000E-01  1.50000000E+00  1.50000000E+00  8.00000000E-01
  8.00000000E-01  1.50000000E+00  1.50000000E+00  8.00000000E-01  8.00000000E-01
  1.50000000E+00  1.50000000E+00  8.00000000E-01  8.00000000E-01  1.50000000E+00
  1.50000000E+00  8.00000000E-01  8.00000000E-01  1.50000000E+00  1.50000000E+00
  8.00000000E-01  8.00000000E-01  1.50000000E+00  1.50000000E+00  8.00000000E-01
  8.00000000E-01  1.50000000E+00  1.50000000E+00  8.00000000E-01  8.00000000E-01
  1.50000000E+00  1.50000000E+00  8.00000000E-01  8.00000000E-01  1.50000000E+00
  1.50000000E+00  8.00000000E-01  8.00000000E-01  1.50000000E+00  1.50000000E+00
  8.00000000E-01  8.00000000E-01  1.50000000E+00  1.50000000E+00  8.00000000E-01
  8.00000000E-01  1.50000000E+00  1.50000000E+00  8.00000000E-01  8.00000000E-01
  1.50000000E+00  1.50000000E+00  8.00000000E-01  8.00000000E-01  1.50000000E+00
  1.50000000E+00  8.00000000E-01  8.00000000E-01  1.50000000E+00  1.50000000E+00
  8.00000000E-01  8.00000000E-01  1.50000000E+00  1.50000000E+00  8.00000000E-01
  8.00000000E-01  1.50000000E+00  1.50000000E+00  8.00000000E-01  8.00000000E-01
  1.50000000E+00  1.50000000E+00  8.00000000E-01  8.00000000E-01  1.50000000E+00
  1.50000000E+00  8.00000000E-01  8.00000000E-01  1.50000000E+00  1.50000000E+00
  8.00000000E-01  8.00000000E-01  1.50000000E+00  1.50000000E+00  8.00000000E-01
  8.00000000E-01  1.50000000E+00  1.50000000E+00  8.00000000E-01  8.00000000E-01
  1.50000000E+00  1.50000000E+00  8.00000000E-01  8.00000000E-01  1.50000000E+00
  1.50000000E+00  8.00000000E-01  8.00000000E-01  1.50000000E+00  1.50000000E+00
  8.00000000E-01  8.00000000E-01  1.50000000E+00  1.50000000E+00  8.00000000E-01
  8.00000000E-01  1.50000000E+00  1.50000000E+00  8.00000000E-01  8.00000000E-01
  1.50000000E+00  1.50000000E+00  8.00000000E-01  8.00000000E-01  1.50000000E+00
  1.50000000E+00  8.00000000E-01  8.00000000E-01  1.50000000E+00  1.50000000E+00
  8.00000000E-01  8.00000000E-01  1.50000000E+00  1.50000000E+00  8.00000000E-01
  8.00000000E-01  1.50000000E+00  1.50000000E+00  8.00000000E-01  8.00000000E-01
  1.50000000E+00  1.50000000E+00  8.00000000E-01  8.00000000E-01  1.50000000E+00
  1.50000000E+00  8.00000000E-01  8.00000000E-01  1.50000000E+00  1.50000000E+00
  8.00000000E-01  8.00000000E-01  1.50000000E+00  1.50000000E+00  8.00000000E-01
  8.00000000E-01  1.50000000E+00  1.50000000E+00  8.00000000E-01  8.00000000E-01
  1.50000000E+00  1.50000000E+00  8.00000000E-01  8.00000000E-01  1.50000000E+00
  1.50000000E+00  8.00000000E-01  8.00000000E-01  1.50000000E+00  1.50000000E+00
  8.00000000E-01  8.00000000E-01  1.50000000E+00  1.50000000E+00  8.00000000E-01
  8.00000000E-01  1.50000000E+00  1.50000000E+00  8.00000000E-01  8.00000000E-01
  1.50000000E+00  1.50000000E+00  8.00000000E-01  8.00000000E-01  1.50000000E+00
  1.50000000E+00  8.00000000E-01  8.00000000E-01  1.50000000E+00  1.50000000E+00
  8.00000000E-01  8.00000000E-01  1.50000000E+00  1.50000000E+00  8.00000000E-01
  8.00000000E-01  1.50000000E+00  1.50000000E+00  8.00000000E-01  8.00000000E-01
  1.50000000E+00  1.50000000E+00  8.00000000E-01  8.00000000E-01  1.50000000E+00
  1.50000000E+00  8.00000000E-01  8.00000000E-01  1.50000000E+00  1.50000000E+00
  8.00000000E-01  8.00000000E-01  1.50000000E+00  1.50000000E+00  8.00000000E-01
  8.00000000E-01  1.50000000E+00  1.50000000E+00  8.00000000E-01  8.00000000E-01
  1.50000000E+00  1.50000000E+00  8.00000000E-01  8.00000000E-01  1.50000000E+00
  1.50000000E+00  8.00000000E-01  8.00000000E-01  1.50000000E+00  1.50000000E+00
  8.00000000E-01  8.00000000E-01  1.50000000E+00  1.50000000E+00  8.00000000E-01
  8.00000000E-01  1.50000000E+00  1.50000000E+00  8.00000000E-01  8.00000000E-01
  1.50000000E+00  1.50000000E+00  8.00000000E-01  8.00000000E-01  1.50000000E+00
  1.50000000E+00  8.00000000E-01  8.00000000E-01  1.50000000E+00  1.50000000E+00
  8.00000000E-01  8.00000000E-01  1.50000000E+00  1.50000000E+00  8.00000000E-01
  8.00000000E-01  1.50000000E+00  1.50000000E+00  8.00000000E-01  8.00000000E-01
  1.50000000E+00  1.50000000E+00  8.00000000E-01  8.00000000E-01  1.50000000E+00
  1.50000000E+00  8.00000000E-01  8.00000000E-01  1.50000000E+00  1.50000000E+00
  8.00000000E-01  8.00000000E-01  1.50000000E+00  1.50000000E+00  8.00000000E-01
  8.00000000E-01  1.50000000E+00  1.50000000E+00  8.00000000E-01  8.00000000E-01
  1.50000000E+00  1.50000000E+00  8.00000000E-01  8.00000000E-01  1.50000000E+00
  1.50000000E+00  8.00000000E-01  8.00000000E-01  1.50000000E+00  1.50000000E+00
  8.00000000E-01  8.00000000E-01  1.50000000E+00  1.50000000E+00  8.00000000E-01
  8.00000000E-01  1.50000000E+00  1.50000000E+00  8.00000000E-01  8.00000000E-01
  1.50000000E+00  1.50000000E+00  8.00000000E-01  8.00000000E-01  1.50000000E+00
  1.50000000E+00  8.00000000E-01  8.00000000E-01  1.50000000E+00  1.50000000E+00
  8.00000000E-01  8.00000000E-01  1.50000000E+00  1.50000000E+00  8.00000000E-01
  8.00000000E-01  1.50000000E+00  1.50000000E+00  8.00000000E-01  8.00000000E-01
  1.50000000E+00  1.50000000E+00  8.00000000E-01  8.00000000E-01  1.50000000E+00
  1.50000000E+00  8.00000000E-01  8.00000000E-01  1.50000000E+00  1.50000000E+00
  8.00000000E-01  8.00000000E-01  1.50000000E+00  1.50000000E+00  8.00000000E-01
  8.00000000E-01  1.50000000E+00  1.50000000E+00  8.00000000E-01  8.00000000E-01
  1.50000000E+00  1.50000000E+00  8.00000000E-01  8.00000000E-01  1.50000000E+00
  1.50000000E+00  8.00000000E-01  8.00000000E-01  1.50000000E+00  1.50000000E+00
  8.00000000E-01  8.00000000E-01  1.50000000E+00  1.50000000E+00  8.00000000E-01
  8.00000000E-01  1.50000000E+00  1.50000000E+00  8.00000000E-01  8.00000000E-01
  1.50000000E+00  1.50000000E+00  8.00000000E-01  8.00000000E-01  1.50000000E+00
  1.50000000E+00  8.00000000E-01  8.00000000E-01  1.50000000E+00  1.50000000E+00
  8.00000000E-01  8.00000000E-01  1.50000000E+00  1.50000000E+00  8.00000000E-01
  8.00000000E-01  1.50000000E+00  1.50000000E+00  8.00000000E-01  8.00000000E-01
  1.50000000E+00  1.50000000E+00  8.00000000E-01  8.00000000E-01  1.50000000E+00
  1.50000000E+00  8.00000000E-01  8.00000000E-01  1.50000000E+00  1.50000000E+00
  8.00000000E-01  8.00000000E-01  1.50000000E+00  1.50000000E+00  8.00000000E-01
  8.00000000E-01  1.50000000E+00  1.50000000E+00  8.00000000E-01  8.00000000E-01
  1.50000000E+00  1.50000000E+00  8.00000000E-01  8.00000000E-01  1.50000000E+00
  1.50000000E+00  8.00000000E-01  8.00000000E-01  1.50000000E+00  1.50000000E+00
  8.00000000E-01  8.00000000E-01  1.50000000E+00  1.50000000E+00  8.00000000E-01
  8.00000000E-01  1.50000000E+00  1.50000000E+00  8.00000000E-01  8.00000000E-01
  1.50000000E+00  1.50000000E+00  8.00000000E-01  8.00000000E-01  1.50000000E+00
  1.50000000E+00  8.00000000E-01  8.00000000E-01  1.50000000E+00  1.50000000E+00
  8.00000000E-01  8.00000000E-01  1.50000000E+00  1.50000000E+00  8.00000000E-01
  8.00000000E-01  1.50000000E+00  1.50000000E+00  8.00000000E-01  8.00000000E-01
  1.50000000E+00  1.50000000E+00  8.00000000E-01  8.00000000E-01  1.50000000E+00
  1.50000000E+00  8.00000000E-01  8.00000000E-01  1.50000000E+00  1.50000000E+00
  8.00000000E-01  8.00000000E-01  1.50000000E+00  1.50000000E+00  8.00000000E-01
  8.00000000E-01  1.50000000E+00  1.50000000E+00  8.00000000E-01  8.00000000E-01
  1.50000000E+00  1.50000000E+00  8.00000000E-01  8.00000000E-01  1.50000000E+00
  1.50000000E+00  8.00000000E-01  8.00000000E-01  1.50000000E+00  1.50000000E+00
  8.00000000E-01  8.00000000E-01  1.50000000E+00  1.50000000E+00  8.00000000E-01
  8.00000000E-01  1.50000000E+00  1.50000000E+00  8.00000000E-01  8.00000000E-01
  1.50000000E+00  1.50000000E+00  8.00000000E-01  8.00000000E-01  1.50000000E+00
  1.50000000E+00  8.00000000E-01  8.00000000E-01  1.50000000E+00  1.50000000E+00
  8.00000000E-01  8.00000000E-01  1.50000000E+00  1.50000000E+00  8.00000000E-01
  8.00000000E-01  1.50000000E+00  1.50000000E+00  8.00000000E-01  8.00000000E-01
  1.50000000E+00  1.50000000E+00  8.00000000E-01  8.00000000E-01  1.50000000E+00
  1.50000000E+00  8.00000000E-01  8.00000000E-01  1.50000000E+00  1.50000000E+00
  8.00000000E-01  8.00000000E-01  1.50000000E+00  1.50000000E+00  8.00000000E-01
  8.00000000E-01  1.50000000E+00  1.50000000E+00  8.00000000E-01  8.00000000E-01
  1.50000000E+00  1.50000000E+00  8.00000000E-01  8.00000000E-01  1.50000000E+00
  1.50000000E+00  8.00000000E-01  8.00000000E-01  1.50000000E+00  1.50000000E+00
  8.00000000E-01  8.00000000E-01  1.50000000E+00  1.50000000E+00  8.00000000E-01
  8.00000000E-01  1.50000000E+00  1.50000000E+00  8.00000000E-01  8.00000000E-01
  1.50000000E+00  1.50000000E+00  8.00000000E-01  8.00000000E-01  1.50000000E+00
  1.50000000E+00  8.00000000E-01  8.00000000E-01  1.50000000E+00  1.50000000E+00
  8.00000000E-01  8.00000000E-01  1.50000000E+00  1.50000000E+00  8.00000000E-01
  8.00000000E-01  1.50000000E+00  1.50000000E+00  8.00000000E-01  8.00000000E-01
  1.50000000E+00  1.50000000E+00  8.00000000E-01  8.00000000E-01  1.50000000E+00
  1.50000000E+00  8.00000000E-01  8.00000000E-01  1.50000000E+00  1.50000000E+00
  8.00000000E-01  8.00000000E-01  1.50000000E+00  1.50000000E+00  8.00000000E-01
  8.00000000E-01  1.50000000E+00  1.50000000E+00  8.00000000E-01  8.00000000E-01
  1.50000000E+00  1.50000000E+00  8.00000000E-01  8.00000000E-01  1.50000000E+00
  1.50000000E+00  8.00000000E-01  8.00000000E-01  1.50000000E+00  1.50000000E+00
  8.00000000E-01  8.00000000E-01  1.50000000E+00  1.50000000E+00  8.00000000E-01
  8.00000000E-01  1.50000000E+00  1.50000000E+00  8.00000000E-01  8.00000000E-01
  1.50000000E+00  1.50000000E+00  8.00000000E-01  8.00000000E-01  1.50000000E+00
  1.50000000E+00  8.00000000E-01  8.00000000E-01  1.50000000E+00  1.50000000E+00
  8.00000000E-01  8.00000000E-01  1.50000000E+00  1.50000000E+00  8.00000000E-01
  8.00000000E-01  1.50000000E+00  1.50000000E+00  8.00000000E-01  8.00000000E-01
  1.50000000E+00  1.50000000E+00  8.00000000E-01  8.00000000E-01  1.50000000E+00
  1.50000000E+00  8.00000000E-01  8.00000000E-01  1.50000000E+00  1.50000000E+00
  8.00000000E-01  8.00000000E-01  1.50000000E+00  1.50000000E+00  8.00000000E-01
  8.00000000E-01  1.50000000E+00  1.50000000E+00  8.00000000E-01  8.00000000E-01
  1.50000000E+00  1.50000000E+00  8.00000000E-01  8.00000000E-01  1.50000000E+00
  1.50000000E+00  8.00000000E-01  8.00000000E-01  1.50000000E+00  1.50000000E+00
  8.00000000E-01  8.00000000E-01  1.50000000E+00  1.50000000E+00  8.00000000E-01
  8.00000000E-01  1.50000000E+00  1.50000000E+00  8.00000000E-01  8.00000000E-01
  1.50000000E+00  1.50000000E+00  8.00000000E-01  8.00000000E-01  1.50000000E+00
  1.50000000E+00  8.00000000E-01  8.00000000E-01  1.50000000E+00  1.50000000E+00
  8.00000000E-01  8.00000000E-01  1.50000000E+00  1.50000000E+00  8.00000000E-01
  8.00000000E-01  1.50000000E+00  1.50000000E+00  8.00000000E-01  8.00000000E-01
  1.50000000E+00  1.50000000E+00  8.00000000E-01  8.00000000E-01  1.50000000E+00
  1.50000000E+00  8.00000000E-01  8.00000000E-01  1.50000000E+00  1.50000000E+00
  8.00000000E-01  8.00000000E-01  1.50000000E+00  1.50000000E+00  8.00000000E-01
  8.00000000E-01  1.50000000E+00  1.50000000E+00  8.00000000E-01  8.00000000E-01
  1.50000000E+00  1.50000000E+00  8.00000000E-01  8.00000000E-01  1.50000000E+00
  1.50000000E+00  8.00000000E-01  8.00000000E-01  1.50000000E+00  1.50000000E+00
  8.00000000E-01  8.00000000E-01  1.50000000E+00  1.50000000E+00  8.00000000E-01
  8.00000000E-01  1.50000000E+00  1.50000000E+00  8.00000000E-01  8.00000000E-01
  1.50000000E+00  1.50000000E+00  8.00000000E-01  8.00000000E-01  1.50000000E+00
  1.50000000E+00  8.00000000E-01  8.00000000E-01  1.50000000E+00  1.50000000E+00
  8.00000000E-01  8.00000000E-01  1.50000000E+00  1.50000000E+00  8.00000000E-01
  8.00000000E-01  1.50000000E+00  1.50000000E+00  8.00000000E-01  8.00000000E-01
  1.50000000E+00  1.50000000E+00  8.00000000E-01  8.00000000E-01  1.50000000E+00
  1.50000000E+00  8.00000000E-01  8.00000000E-01  1.50000000E+00  1.50000000E+00
  8.00000000E-01  8.00000000E-01  1.50000000E+00  1.50000000E+00  8.00000000E-01
  8.00000000E-01  1.50000000E+00  1.50000000E+00  8.00000000E-01  8.00000000E-01
  1.50000000E+00  1.50000000E+00  8.00000000E-01  8.00000000E-01  1.50000000E+00
  1.50000000E+00  8.00000000E-01  8.00000000E-01  1.50000000E+00  1.50000000E+00
  8.00000000E-01  8.00000000E-01  1.50000000E+00  1.50000000E+00  8.00000000E-01
  8.00000000E-01  1.50000000E+00  1.50000000E+00  8.00000000E-01  8.00000000E-01
  1.50000000E+00  1.50000000E+00  8.00000000E-01  8.00000000E-01  1.50000000E+00
  1.50000000E+00  8.00000000E-01  8.00000000E-01  1.50000000E+00  1.50000000E+00
  8.00000000E-01  8.00000000E-01  1.50000000E+00  1.50000000E+00  8.00000000E-01
  8.00000000E-01  1.50000000E+00  1.50000000E+00  8.00000000E-01  8.00000000E-01
  1.50000000E+00  1.50000000E+00  8.00000000E-01  8.00000000E-01  1.50000000E+00
  1.50000000E+00  8.00000000E-01  8.00000000E-01  1.50000000E+00  1.50000000E+00
  8.00000000E-01  8.00000000E-01  1.50000000E+00  1.50000000E+00  8.00000000E-01
  8.00000000E-01  1.50000000E+00  1.50000000E+00  8.00000000E-01  8.00000000E-01
  1.50000000E+00  1.50000000E+00  8.00000000E-01  8.00000000E-01  1.50000000E+00
  1.50000000E+00  8.00000000E-01  8.00000000E-01  1.50000000E+00  1.50000000E+00
  8.00000000E-01  8.00000000E-01  1.50000000E+00  1.50000000E+00  8.00000000E-01
  8.00000000E-01  1.50000000E+00  1.50000000E+00  8.00000000E-01  8.00000000E-01
  1.50000000E+00  1.50000000E+00  8.00000000E-01  8.00000000E-01  1.50000000E+00
  1.50000000E+00  8.00000000E-01  8.00000000E-01  1.50000000E+00  1.50000000E+00
  8.00000000E-01  8.00000000E-01  1.50000000E+00  1.50000000E+00  8.00000000E-01
  8.00000000E-01  1.50000000E+00  1.50000000E+00  8.00000000E-01  8.00000000E-01
  1.50000000E+00  1.50000000E+00  8.00000000E-01  8.00000000E-01  1.50000000E+00
  1.50000000E+00  8.00000000E-01  8.00000000E-01  1.50000000E+00  1.50000000E+00
  8.00000000E-01  8.00000000E-01  1.50000000E+00  1.50000000E+00  8.00000000E-01
  8.00000000E-01  1.50000000E+00  1.50000000E+00  8.00000000E-01  8.00000000E-01
  1.50000000E+00  1.50000000E+00  8.00000000E-01  8.00000000E-01  1.50000000E+00
  1.50000000E+00  8.00000000E-01  8.00000000E-01  1.50000000E+00  1.50000000E+00
  8.00000000E-01  8.00000000E-01  1.50000000E+00  1.50000000E+00  8.00000000E-01
  8.00000000E-01  1.50000000E+00  1.50000000E+00  8.00000000E-01  8.00000000E-01
  1.50000000E+00  1.50000000E+00  8.00000000E-01  8.00000000E-01  1.50000000E+00
  1.50000000E+00  8.00000000E-01  8.00000000E-01  1.50000000E+00  1.50000000E+00
  8.00000000E-01  8.00000000E-01  1.50000000E+00  1.50000000E+00  8.00000000E-01
  8.00000000E-01  1.50000000E+00  1.50000000E+00  8.00000000E-01  8.00000000E-01
  1.50000000E+00  1.50000000E+00  8.00000000E-01  8.00000000E-01  1.50000000E+00
  1.50000000E+00  8.00000000E-01  8.00000000E-01  1.50000000E+00  1.50000000E+00
  8.00000000E-01  8.00000000E-01  1.50000000E+00  1.50000000E+00  8.00000000E-01
  8.00000000E-01  1.50000000E+00  1.50000000E+00  8.00000000E-01  8.00000000E-01
  1.50000000E+00  1.50000000E+00  8.00000000E-01  8.00000000E-01  1.50000000E+00
  1.50000000E+00  8.00000000E-01  8.00000000E-01  1.50000000E+00  1.50000000E+00
  8.00000000E-01  8.00000000E-01  1.50000000E+00  1.50000000E+00  8.00000000E-01
  8.00000000E-01  1.50000000E+00  1.50000000E+00  8.00000000E-01  8.00000000E-01
  1.50000000E+00  1.50000000E+00  8.00000000E-01  8.00000000E-01  1.50000000E+00
  1.50000000E+00  8.00000000E-01  8.00000000E-01  1.50000000E+00  1.50000000E+00
  8.00000000E-01  8.00000000E-01  1.50000000E+00  1.50000000E+00  8.00000000E-01
  8.00000000E-01  1.50000000E+00  1.50000000E+00  8.00000000E-01  8.00000000E-01
  1.50000000E+00  1.50000000E+00  8.00000000E-01  8.00000000E-01  1.50000000E+00
  1.50000000E+00  8.00000000E-01  8.00000000E-01  1.50000000E+00  1.50000000E+00
  8.00000000E-01  8.00000000E-01  1.50000000E+00  1.50000000E+00  8.00000000E-01
  8.00000000E-01  1.50000000E+00  1.50000000E+00  8.00000000E-01  8.00000000E-01
  1.50000000E+00  1.50000000E+00  8.00000000E-01  8.00000000E-01  1.50000000E+00
  1.50000000E+00  8.00000000E-01  8.00000000E-01  1.50000000E+00  1.50000000E+00
  8.00000000E-01  8.00000000E-01  1.50000000E+00  1.50000000E+00  8.00000000E-01
  8.00000000E-01  1.50000000E+00  1.50000000E+00  8.00000000E-01  8.00000000E-01
  1.50000000E+00  1.50000000E+00  8.00000000E-01  8.00000000E-01  1.50000000E+00
  1.50000000E+00  8.00000000E-01  8.00000000E-01  1.50000000E+00  1.50000000E+00
  8.00000000E-01  8.00000000E-01  1.50000000E+00  1.50000000E+00  8.00000000E-01
  8.00000000E-01  1.50000000E+00  1.50000000E+00  8.00000000E-01  8.00000000E-01
  1.50000000E+00  1.50000000E+00  8.00000000E-01  8.00000000E-01  1.50000000E+00
  1.50000000E+00  8.00000000E-01  8.00000000E-01  1.50000000E+00  1.50000000E+00
  8.00000000E-01  8.00000000E-01  1.50000000E+00  1.50000000E+00  8.00000000E-01
  8.00000000E-01  1.50000000E+00  1.50000000E+00  8.00000000E-01  8.00000000E-01
  1.50000000E+00  1.50000000E+00  8.00000000E-01  8.00000000E-01  1.50000000E+00
  1.50000000E+00  8.00000000E-01  8.00000000E-01  1.50000000E+00  1.50000000E+00
  8.00000000E-01  8.00000000E-01  1.50000000E+00  1.50000000E+00  8.00000000E-01
  8.00000000E-01  1.50000000E+00  1.50000000E+00  8.00000000E-01  8.00000000E-01
  1.50000000E+00  1.50000000E+00  8.00000000E-01  8.00000000E-01  1.50000000E+00
  1.50000000E+00  8.00000000E-01  8.00000000E-01  1.50000000E+00  1.50000000E+00
  8.00000000E-01  8.00000000E-01  1.50000000E+00  1.50000000E+00  8.00000000E-01
  8.00000000E-01  1.50000000E+00  1.50000000E+00  8.00000000E-01  8.00000000E-01
  1.50000000E+00  1.50000000E+00  8.00000000E-01  8.00000000E-01  1.50000000E+00
  1.50000000E+00  8.00000000E-01  8.00000000E-01  1.50000000E+00  1.50000000E+00
  8.00000000E-01  8.00000000E-01  1.50000000E+00  1.50000000E+00  8.00000000E-01
  8.00000000E-01  1.50000000E+00  1.50000000E+00  8.00000000E-01  8.00000000E-01
  1.50000000E+00  1.50000000E+00  8.00000000E-01  8.00000000E-01  1.50000000E+00
  1.50000000E+00  8.00000000E-01  8.00000000E-01  1.50000000E+00  1.50000000E+00
  8.00000000E-01  8.00000000E-01  1.50000000E+00  1.50000000E+00  8.00000000E-01
  8.00000000E-01  1.50000000E+00  1.50000000E+00  8.00000000E-01  8.00000000E-01
  1.50000000E+00  1.50000000E+00  8.00000000E-01  8.00000000E-01  1.50000000E+00
  1.50000000E+00  8.00000000E-01  8.00000000E-01  1.50000000E+00  1.50000000E+00
  8.00000000E-01  8.00000000E-01  1.50000000E+00  1.50000000E+00  8.00000000E-01
  8.00000000E-01  1.50000000E+00  1.50000000E+00  8.00000000E-01  8.00000000E-01
  1.50000000E+00  1.50000000E+00  8.00000000E-01  8.00000000E-01  1.50000000E+00
  1.50000000E+00  8.00000000E-01  8.00000000E-01  1.50000000E+00  1.50000000E+00
  8.00000000E-01  8.00000000E-01  1.50000000E+00  1.50000000E+00  8.00000000E-01
  8.00000000E-01  1.50000000E+00  1.50000000E+00  8.00000000E-01  8.00000000E-01
  1.50000000E+00  1.50000000E+00  8.00000000E-01  8.00000000E-01  1.50000000E+00
  1.50000000E+00  8.00000000E-01  8.00000000E-01  1.50000000E+00  1.50000000E+00
  8.00000000E-01  8.00000000E-01  1.50000000E+00  1.50000000E+00  8.00000000E-01
  8.00000000E-01  1.50000000E+00  1.50000000E+00  8.00000000E-01  8.00000000E-01
  1.50000000E+00  1.50000000E+00  8.00000000E-01  8.00000000E-01  1.50000000E+00
  1.50000000E+00  8.00000000E-01  8.00000000E-01  1.50000000E+00  1.50000000E+00
  8.00000000E-01  8.00000000E-01  1.50000000E+00  1.50000000E+00  8.00000000E-01
  8.00000000E-01  1.50000000E+00  1.50000000E+00  8.00000000E-01  8.00000000E-01
  1.50000000E+00  1.50000000E+00  8.00000000E-01  8.00000000E-01  1.50000000E+00
  1.50000000E+00  8.00000000E-01  8.00000000E-01  1.50000000E+00  1.50000000E+00
  8.00000000E-01  8.00000000E-01  1.50000000E+00  1.50000000E+00  8.00000000E-01
  8.00000000E-01  1.50000000E+00  1.50000000E+00  8.00000000E-01  8.00000000E-01
  1.50000000E+00  1.50000000E+00  8.00000000E-01  8.00000000E-01  1.50000000E+00
  1.50000000E+00  8.00000000E-01  8.00000000E-01  1.50000000E+00  1.50000000E+00
  8.00000000E-01  8.00000000E-01  1.50000000E+00  1.50000000E+00  8.00000000E-01
  8.00000000E-01  1.50000000E+00  1.50000000E+00  8.00000000E-01  8.00000000E-01
  1.50000000E+00  1.50000000E+00  8.00000000E-01  8.00000000E-01  1.50000000E+00
  1.50000000E+00  8.00000000E-01  8.00000000E-01  1.50000000E+00  1.50000000E+00
  8.00000000E-01  8.00000000E-01  1.50000000E+00  1.50000000E+00  8.00000000E-01
  8.00000000E-01  1.50000000E+00  1.50000000E+00  8.00000000E-01  8.00000000E-01
  1.50000000E+00  1.50000000E+00  8.00000000E-01  8.00000000E-01  1.50000000E+00
  1.50000000E+00  8.00000000E-01  8.00000000E-01  1.50000000E+00  1.50000000E+00
  8.00000000E-01  8.00000000E-01  1.50000000E+00  1.50000000E+00  8.00000000E-01
  8.00000000E-01  1.50000000E+00  1.50000000E+00  8.00000000E-01  8.00000000E-01
  1.50000000E+00  1.50000000E+00  8.00000000E-01  8.00000000E-01  1.50000000E+00
  1.50000000E+00  8.00000000E-01  8.00000000E-01  1.50000000E+00  1.50000000E+00
  8.00000000E-01  8.00000000E-01  1.50000000E+00  1.50000000E+00  8.00000000E-01
  8.00000000E-01  1.50000000E+00  1.50000000E+00  8.00000000E-01  8.00000000E-01
  1.50000000E+00  1.50000000E+00  8.00000000E-01  8.00000000E-01  1.50000000E+00
  1.50000000E+00  8.00000000E-01  8.00000000E-01  1.50000000E+00  1.50000000E+00
  8.00000000E-01  8.00000000E-01  1.50000000E+00  1.50000000E+00  8.00000000E-01
  8.00000000E-01  1.50000000E+00  1.50000000E+00  8.00000000E-01  8.00000000E-01
  1.50000000E+00  1.50000000E+00  8.00000000E-01  8.00000000E-01  1.50000000E+00
  1.50000000E+00  8.00000000E-01  8.00000000E-01  1.50000000E+00  1.50000000E+00
  8.00000000E-01  8.00000000E-01  1.50000000E+00  1.50000000E+00  8.00000000E-01
  8.00000000E-01  1.50000000E+00  1.50000000E+00  8.00000000E-01  8.00000000E-01
  1.50000000E+00  1.50000000E+00  8.00000000E-01  8.00000000E-01  1.50000000E+00
  1.50000000E+00  8.00000000E-01  8.00000000E-01  1.50000000E+00  1.50000000E+00
  8.00000000E-01  8.00000000E-01  1.50000000E+00  1.50000000E+00  8.00000000E-01
  8.00000000E-01  1.50000000E+00  1.50000000E+00  8.00000000E-01  8.00000000E-01
  1.50000000E+00  1.50000000E+00  8.00000000E-01  8.00000000E-01  1.50000000E+00
  1.50000000E+00  8.00000000E-01  8.00000000E-01  1.50000000E+00  1.50000000E+00
  8.00000000E-01  8.00000000E-01  1.50000000E+00  1.50000000E+00  8.00000000E-01
  8.00000000E-01  1.50000000E+00  1.50000000E+00  8.00000000E-01  8.00000000E-01
  1.50000000E+00  1.50000000E+00  8.00000000E-01  8.00000000E-01  1.50000000E+00
  1.50000000E+00  8.00000000E-01  8.00000000E-01  1.50000000E+00  1.50000000E+00
  8.00000000E-01  8.00000000E-01  1.50000000E+00  1.50000000E+00  8.00000000E-01
  8.00000000E-01  1.50000000E+00  1.50000000E+00  8.00000000E-01  8.00000000E-01
  1.50000000E+00  1.50000000E+00  8.00000000E-01  8.00000000E-01  1.50000000E+00
  1.50000000E+00  8.00000000E-01  8.00000000E-01  1.50000000E+00  1.50000000E+00
  8.00000000E-01  8.00000000E-01  1.50000000E+00  1.50000000E+00  8.00000000E-01
  8.00000000E-01  1.50000000E+00  1.50000000E+00  8.00000000E-01  8.00000000E-01
  1.50000000E+00  1.50000000E+00  8.00000000E-01  8.00000000E-01  1.50000000E+00
  1.50000000E+00  8.00000000E-01  8.00000000E-01  1.50000000E+00  1.50000000E+00
  8.00000000E-01  8.00000000E-01  1.50000000E+00  1.50000000E+00  8.00000000E-01
  8.00000000E-01  1.50000000E+00  1.50000000E+00  8.00000000E-01  8.00000000E-01
  1.50000000E+00  1.50000000E+00  8.00000000E-01  8.00000000E-01  1.50000000E+00
  1.50000000E+00  8.00000000E-01  8.00000000E-01  1.50000000E+00  1.50000000E+00
  8.00000000E-01  8.00000000E-01  1.50000000E+00  1.50000000E+00  8.00000000E-01
  8.00000000E-01  1.50000000E+00  1.50000000E+00  8.00000000E-01  8.00000000E-01
  1.50000000E+00  1.50000000E+00  8.00000000E-01  8.00000000E-01  1.50000000E+00
  1.50000000E+00  8.00000000E-01  8.00000000E-01  1.50000000E+00  1.50000000E+00
  8.00000000E-01  8.00000000E-01  1.50000000E+00  1.50000000E+00  8.00000000E-01
  8.00000000E-01  1.50000000E+00  1.50000000E+00  8.00000000E-01  8.00000000E-01
  1.50000000E+00  1.50000000E+00  8.00000000E-01  8.00000000E-01  1.50000000E+00
  1.50000000E+00  8.00000000E-01  8.00000000E-01  1.50000000E+00  1.50000000E+00
  8.00000000E-01  8.00000000E-01  1.50000000E+00  1.50000000E+00  8.00000000E-01
  8.00000000E-01  1.50000000E+00  1.50000000E+00  8.00000000E-01  8.00000000E-01
  1.50000000E+00  1.50000000E+00  8.00000000E-01  8.00000000E-01  1.50000000E+00
  1.50000000E+00  8.00000000E-01  8.00000000E-01  1.50000000E+00  1.50000000E+00
  8.00000000E-01  8.00000000E-01  1.50000000E+00  1.50000000E+00  8.00000000E-01
  8.00000000E-01  1.50000000E+00  1.50000000E+00  8.00000000E-01  8.00000000E-01
  1.50000000E+00  1.50000000E+00  8.00000000E-01  8.00000000E-01  1.50000000E+00
  1.50000000E+00  8.00000000E-01  8.00000000E-01  1.50000000E+00  1.50000000E+00
  8.00000000E-01  8.00000000E-01  1.50000000E+00  1.50000000E+00  8.00000000E-01
  8.00000000E-01  1.50000000E+00  1.50000000E+00  8.00000000E-01  8.00000000E-01
  1.50000000E+00  1.50000000E+00  8.00000000E-01  8.00000000E-01  1.50000000E+00
  1.50000000E+00  8.00000000E-01  8.00000000E-01  1.50000000E+00  1.50000000E+00
  8.00000000E-01  8.00000000E-01  1.50000000E+00  1.50000000E+00  8.00000000E-01
  8.00000000E-01  1.50000000E+00  1.50000000E+00  8.00000000E-01  8.00000000E-01
  1.50000000E+00  1.50000000E+00  8.00000000E-01  8.00000000E-01  1.50000000E+00
  1.50000000E+00  8.00000000E-01  8.00000000E-01  1.50000000E+00  1.50000000E+00
  8.00000000E-01  8.00000000E-01  1.50000000E+00  1.50000000E+00  8.00000000E-01
  8.00000000E-01  1.50000000E+00  1.50000000E+00  8.00000000E-01  8.00000000E-01
  1.50000000E+00  1.50000000E+00  8.00000000E-01  8.00000000E-01  1.50000000E+00
  1.50000000E+00  8.00000000E-01  8.00000000E-01  1.50000000E+00  1.50000000E+00
  8.00000000E-01  8.00000000E-01  1.50000000E+00  1.50000000E+00  8.00000000E-01
  8.00000000E-01  1.50000000E+00  1.50000000E+00  8.00000000E-01  8.00000000E-01
  1.50000000E+00  1.50000000E+00  8.00000000E-01  8.00000000E-01  1.50000000E+00
  1.50000000E+00  8.00000000E-01  8.00000000E-01  1.50000000E+00  1.50000000E+00
  8.00000000E-01  8.00000000E-01  1.50000000E+00  1.50000000E+00  8.00000000E-01
  8.00000000E-01  1.50000000E+00  1.50000000E+00  8.00000000E-01  8.00000000E-01
  1.50000000E+00  1.50000000E+00  8.00000000E-01  8.00000000E-01  1.50000000E+00
  1.50000000E+00  8.00000000E-01  8.00000000E-01  1.50000000E+00  1.50000000E+00
  8.00000000E-01  8.00000000E-01  1.50000000E+00  1.50000000E+00  8.00000000E-01
  8.00000000E-01  1.50000000E+00  1.50000000E+00  8.00000000E-01  8.00000000E-01
  1.50000000E+00  1.50000000E+00  8.00000000E-01  8.00000000E-01  1.50000000E+00
  1.50000000E+00  8.00000000E-01  8.00000000E-01  1.50000000E+00  1.50000000E+00
  8.00000000E-01  8.00000000E-01  1.50000000E+00  1.50000000E+00  8.00000000E-01
  8.00000000E-01  1.50000000E+00  1.50000000E+00  8.00000000E-01  8.00000000E-01
  1.50000000E+00  1.50000000E+00  8.00000000E-01  8.00000000E-01  1.50000000E+00
  1.50000000E+00  8.00000000E-01  8.00000000E-01  1.50000000E+00  1.50000000E+00
  8.00000000E-01  8.00000000E-01  1.50000000E+00  1.50000000E+00  8.00000000E-01
  8.00000000E-01  1.50000000E+00  1.50000000E+00  8.00000000E-01  8.00000000E-01
  1.50000000E+00  1.50000000E+00  8.00000000E-01  8.00000000E-01  1.50000000E+00
  1.50000000E+00  8.00000000E-01  8.00000000E-01  1.50000000E+00  1.50000000E+00
  8.00000000E-01  8.00000000E-01  1.50000000E+00  1.50000000E+00  8.00000000E-01
  8.00000000E-01  1.50000000E+00  1.50000000E+00  8.00000000E-01  8.00000000E-01
  1.50000000E+00  1.50000000E+00  8.00000000E-01  8.00000000E-01  1.50000000E+00
  1.50000000E+00  8.00000000E-01  8.00000000E-01  1.50000000E+00  1.50000000E+00
  8.00000000E-01  8.00000000E-01  1.50000000E+00  1.50000000E+00  8.00000000E-01
  8.00000000E-01  1.50000000E+00  1.50000000E+00  8.00000000E-01  8.00000000E-01
  1.50000000E+00  1.50000000E+00  8.00000000E-01  8.00000000E-01  1.50000000E+00
  1.50000000E+00  8.00000000E-01  8.00000000E-01  1.50000000E+00  1.50000000E+00
  8.00000000E-01  8.00000000E-01  1.50000000E+00  1.50000000E+00  8.00000000E-01
  8.00000000E-01  1.50000000E+00  1.50000000E+00  8.00000000E-01  8.00000000E-01
  1.50000000E+00  1.50000000E+00  8.00000000E-01  8.00000000E-01  1.50000000E+00
  1.50000000E+00  8.00000000E-01  8.00000000E-01  1.50000000E+00  1.50000000E+00
  8.00000000E-01  8.00000000E-01  1.50000000E+00  1.50000000E+00  8.00000000E-01
  8.00000000E-01  1.50000000E+00  1.50000000E+00  8.00000000E-01  8.00000000E-01
  1.50000000E+00  1.50000000E+00  8.00000000E-01  8.00000000E-01  1.50000000E+00
  1.50000000E+00  8.00000000E-01  8.00000000E-01  1.50000000E+00  1.50000000E+00
  8.00000000E-01  8.00000000E-01  1.50000000E+00  1.50000000E+00  8.00000000E-01
  8.00000000E-01  1.50000000E+00  1.50000000E+00  8.00000000E-01  8.00000000E-01
  1.50000000E+00  1.50000000E+00  8.00000000E-01  8.00000000E-01  1.50000000E+00
  1.50000000E+00  8.00000000E-01  8.00000000E-01  1.50000000E+00  1.50000000E+00
  8.00000000E-01  8.00000000E-01  1.50000000E+00  1.50000000E+00  8.00000000E-01
  8.00000000E-01  1.50000000E+00  1.50000000E+00  8.00000000E-01  8.00000000E-01
  1.50000000E+00  1.50000000E+00  8.00000000E-01  8.00000000E-01  1.50000000E+00
  1.50000000E+00  8.00000000E-01  8.00000000E-01  1.50000000E+00  1.50000000E+00
  8.00000000E-01  8.00000000E-01  1.50000000E+00  1.50000000E+00  8.00000000E-01
  8.00000000E-01  1.50000000E+00  1.50000000E+00  8.00000000E-01  8.00000000E-01
  1.50000000E+00  1.50000000E+00  8.00000000E-01  8.00000000E-01  1.50000000E+00
  1.50000000E+00  8.00000000E-01  8.00000000E-01  1.50000000E+00  1.50000000E+00
  8.00000000E-01  8.00000000E-01  1.50000000E+00  1.50000000E+00  8.00000000E-01
  8.00000000E-01  1.50000000E+00  1.50000000E+00  8.00000000E-01  8.00000000E-01
  1.50000000E+00  1.50000000E+00  8.00000000E-01  8.00000000E-01  1.50000000E+00
  1.50000000E+00  8.00000000E-01  8.00000000E-01  1.50000000E+00  1.50000000E+00
  8.00000000E-01  8.00000000E-01  1.50000000E+00  1.50000000E+00  8.00000000E-01
  8.00000000E-01  1.50000000E+00  1.50000000E+00  8.00000000E-01  8.00000000E-01
  1.50000000E+00  1.50000000E+00  8.00000000E-01  8.00000000E-01  1.50000000E+00
  1.50000000E+00  8.00000000E-01  8.00000000E-01  1.50000000E+00  1.50000000E+00
  8.00000000E-01  8.00000000E-01  1.50000000E+00  1.50000000E+00  8.00000000E-01
  8.00000000E-01  1.50000000E+00  1.50000000E+00  8.00000000E-01  8.00000000E-01
  1.50000000E+00  1.50000000E+00  8.00000000E-01  8.00000000E-01  1.50000000E+00
  1.50000000E+00  8.00000000E-01  8.00000000E-01  1.50000000E+00  1.50000000E+00
  8.00000000E-01  8.00000000E-01  1.50000000E+00  1.50000000E+00  8.00000000E-01
  8.00000000E-01  1.50000000E+00  1.50000000E+00  8.00000000E-01  8.00000000E-01
  1.50000000E+00  1.50000000E+00  8.00000000E-01  8.00000000E-01  1.50000000E+00
  1.50000000E+00  8.00000000E-01  8.00000000E-01  1.50000000E+00  1.50000000E+00
  8.00000000E-01  8.00000000E-01  1.50000000E+00  1.50000000E+00  8.00000000E-01
  8.00000000E-01  1.50000000E+00  1.50000000E+00  8.00000000E-01  8.00000000E-01
  1.50000000E+00  1.50000000E+00  8.00000000E-01  8.00000000E-01  1.50000000E+00
  1.50000000E+00  8.00000000E-01  8.00000000E-01  1.50000000E+00  1.50000000E+00
  8.00000000E-01  8.00000000E-01  1.50000000E+00  1.50000000E+00  8.00000000E-01
  8.00000000E-01  1.50000000E+00  1.50000000E+00  8.00000000E-01  8.00000000E-01
  1.50000000E+00  1.50000000E+00  8.00000000E-01  8.00000000E-01  1.50000000E+00
  1.50000000E+00  8.00000000E-01  8.00000000E-01  1.50000000E+00  1.50000000E+00
  8.00000000E-01  8.00000000E-01  1.50000000E+00  1.50000000E+00  8.00000000E-01
  8.00000000E-01  1.50000000E+00  1.50000000E+00  8.00000000E-01  8.00000000E-01
  1.50000000E+00  1.50000000E+00  8.00000000E-01  8.00000000E-01  1.50000000E+00
  1.50000000E+00  8.00000000E-01  8.00000000E-01  1.50000000E+00  1.50000000E+00
  8.00000000E-01  8.00000000E-01  1.50000000E+00  1.50000000E+00  8.00000000E-01
  8.00000000E-01  1.50000000E+00  1.50000000E+00  8.00000000E-01  8.00000000E-01
  1.50000000E+00  1.50000000E+00  8.00000000E-01  8.00000000E-01  1.50000000E+00
  1.50000000E+00  8.00000000E-01  8.00000000E-01  1.50000000E+00  1.50000000E+00
  8.00000000E-01  8.00000000E-01  1.50000000E+00  1.50000000E+00  8.00000000E-01
  8.00000000E-01  1.50000000E+00  1.50000000E+00  8.00000000E-01  8.00000000E-01
  1.50000000E+00  1.50000000E+00  8.00000000E-01  8.00000000E-01  1.50000000E+00
  1.50000000E+00  8.00000000E-01  8.00000000E-01  1.50000000E+00  1.50000000E+00
  8.00000000E-01  8.00000000E-01  1.50000000E+00  1.50000000E+00  8.00000000E-01
  8.00000000E-01  1.50000000E+00  1.50000000E+00  8.00000000E-01  8.00000000E-01
  1.50000000E+00  1.50000000E+00  8.00000000E-01  8.00000000E-01  1.50000000E+00
  1.50000000E+00  8.00000000E-01  8.00000000E-01  1.50000000E+00  1.50000000E+00
  8.00000000E-01  8.00000000E-01  1.50000000E+00  1.50000000E+00  8.00000000E-01
  8.00000000E-01  1.50000000E+00  1.50000000E+00  8.00000000E-01  8.00000000E-01
  1.50000000E+00  1.50000000E+00  8.00000000E-01  8.00000000E-01  1.50000000E+00
  1.50000000E+00  8.00000000E-01  8.00000000E-01  1.50000000E+00  1.50000000E+00
  8.00000000E-01  8.00000000E-01  1.50000000E+00  1.50000000E+00  8.00000000E-01
  8.00000000E-01  1.50000000E+00  1.50000000E+00  8.00000000E-01  8.00000000E-01
  1.50000000E+00  1.50000000E+00  8.00000000E-01  8.00000000E-01  1.50000000E+00
  1.50000000E+00  8.00000000E-01  8.00000000E-01  1.50000000E+00  1.50000000E+00
  8.00000000E-01  8.00000000E-01  1.50000000E+00  1.50000000E+00  8.00000000E-01
  8.00000000E-01  1.50000000E+00  1.50000000E+00  8.00000000E-01  8.00000000E-01
  1.50000000E+00  1.50000000E+00  8.00000000E-01  8.00000000E-01  1.50000000E+00
  1.50000000E+00  8.00000000E-01  8.00000000E-01  1.50000000E+00  1.50000000E+00
  8.00000000E-01  8.00000000E-01  1.50000000E+00  1.50000000E+00  8.00000000E-01
  8.00000000E-01  1.50000000E+00  1.50000000E+00  8.00000000E-01  8.00000000E-01
  1.50000000E+00  1.50000000E+00  8.00000000E-01  8.00000000E-01  1.50000000E+00
  1.50000000E+00  8.00000000E-01  8.00000000E-01  1.50000000E+00  1.50000000E+00
  8.00000000E-01  8.00000000E-01  1.50000000E+00  1.50000000E+00  8.00000000E-01
  8.00000000E-01  1.50000000E+00  1.50000000E+00  8.00000000E-01  8.00000000E-01
  1.50000000E+00  1.50000000E+00  8.00000000E-01  8.00000000E-01  1.50000000E+00
  1.50000000E+00  8.00000000E-01  8.00000000E-01  1.50000000E+00  1.50000000E+00
  8.00000000E-01  8.00000000E-01  1.50000000E+00  1.50000000E+00  8.00000000E-01
  8.00000000E-01  1.50000000E+00  1.50000000E+00  8.00000000E-01  8.00000000E-01
  1.50000000E+00  1.50000000E+00  8.00000000E-01  8.00000000E-01  1.50000000E+00
  1.50000000E+00  8.00000000E-01  8.00000000E-01  1.50000000E+00  1.50000000E+00
  8.00000000E-01  8.00000000E-01  1.50000000E+00  1.50000000E+00  8.00000000E-01
  8.00000000E-01  1.50000000E+00  1.50000000E+00  8.00000000E-01  8.00000000E-01
  1.50000000E+00  1.50000000E+00  8.00000000E-01  8.00000000E-01  1.50000000E+00
  1.50000000E+00  8.00000000E-01  8.00000000E-01  1.50000000E+00  1.50000000E+00
  8.00000000E-01  8.00000000E-01  1.50000000E+00  1.50000000E+00  8.00000000E-01
  8.00000000E-01  1.50000000E+00  1.50000000E+00  8.00000000E-01  8.00000000E-01
  1.50000000E+00  1.50000000E+00  8.00000000E-01  8.00000000E-01  1.50000000E+00
  1.50000000E+00  8.00000000E-01  8.00000000E-01  1.50000000E+00  1.50000000E+00
  8.00000000E-01  8.00000000E-01  1.50000000E+00  1.50000000E+00  8.00000000E-01
  8.00000000E-01  1.50000000E+00  1.50000000E+00  8.00000000E-01  8.00000000E-01
  1.50000000E+00  1.50000000E+00  8.00000000E-01  8.00000000E-01  1.50000000E+00
  1.50000000E+00  8.00000000E-01  8.00000000E-01  1.50000000E+00  1.50000000E+00
  8.00000000E-01  8.00000000E-01  1.50000000E+00  1.50000000E+00  8.00000000E-01
  8.00000000E-01  1.50000000E+00  1.50000000E+00  8.00000000E-01  8.00000000E-01
  1.50000000E+00  1.50000000E+00  8.00000000E-01  8.00000000E-01  1.50000000E+00
  1.50000000E+00  8.00000000E-01  8.00000000E-01  1.50000000E+00  1.50000000E+00
  8.00000000E-01  8.00000000E-01  1.50000000E+00  1.50000000E+00  8.00000000E-01
  8.00000000E-01  1.50000000E+00  1.50000000E+00  8.00000000E-01  8.00000000E-01
  1.50000000E+00  1.50000000E+00  8.00000000E-01  8.00000000E-01  1.50000000E+00
  1.50000000E+00  8.00000000E-01  8.00000000E-01  1.50000000E+00  1.50000000E+00
  8.00000000E-01  8.00000000E-01  1.50000000E+00  1.50000000E+00  8.00000000E-01
  8.00000000E-01  1.50000000E+00  1.50000000E+00  8.00000000E-01  8.00000000E-01
  1.50000000E+00  1.50000000E+00  8.00000000E-01  8.00000000E-01  1.50000000E+00
  1.50000000E+00  8.00000000E-01  8.00000000E-01  1.50000000E+00  1.50000000E+00
  8.00000000E-01  8.00000000E-01  1.50000000E+00  1.50000000E+00  8.00000000E-01
  8.00000000E-01  1.50000000E+00  1.50000000E+00  8.00000000E-01  8.00000000E-01
  1.50000000E+00  1.50000000E+00  8.00000000E-01  8.00000000E-01  1.50000000E+00
  1.50000000E+00  8.00000000E-01  8.00000000E-01  1.50000000E+00  1.50000000E+00
  8.00000000E-01  8.00000000E-01  1.50000000E+00  1.50000000E+00  8.00000000E-01
  8.00000000E-01  1.50000000E+00  1.50000000E+00  8.00000000E-01  8.00000000E-01
  1.50000000E+00  1.50000000E+00  8.00000000E-01  8.00000000E-01  1.50000000E+00
  1.50000000E+00  8.00000000E-01  8.00000000E-01  1.50000000E+00  1.50000000E+00
  8.00000000E-01  8.00000000E-01  1.50000000E+00  1.50000000E+00  8.00000000E-01
  8.00000000E-01  1.50000000E+00  1.50000000E+00  8.00000000E-01  8.00000000E-01
  1.50000000E+00  1.50000000E+00  8.00000000E-01  8.00000000E-01  1.50000000E+00
  1.50000000E+00  8.00000000E-01  8.00000000E-01  1.50000000E+00  1.50000000E+00
  8.00000000E-01  8.00000000E-01  1.50000000E+00  1.50000000E+00  8.00000000E-01
  8.00000000E-01  1.50000000E+00  1.50000000E+00  8.00000000E-01  8.00000000E-01
  1.50000000E+00  1.50000000E+00  8.00000000E-01  8.00000000E-01  1.50000000E+00
  1.50000000E+00  8.00000000E-01  8.00000000E-01  1.50000000E+00  1.50000000E+00
  8.00000000E-01  8.00000000E-01  1.50000000E+00  1.50000000E+00  8.00000000E-01
  8.00000000E-01  1.50000000E+00  1.50000000E+00  8.00000000E-01  8.00000000E-01
  1.50000000E+00  1.50000000E+00  8.00000000E-01  8.00000000E-01  1.50000000E+00
  1.50000000E+00  8.00000000E-01  8.00000000E-01  1.50000000E+00  1.50000000E+00
  8.00000000E-01  8.00000000E-01  1.50000000E+00  1.50000000E+00  8.00000000E-01
  8.00000000E-01  1.50000000E+00  1.50000000E+00  8.00000000E-01  8.00000000E-01
  1.50000000E+00  1.50000000E+00  8.00000000E-01  8.00000000E-01  1.50000000E+00
  1.50000000E+00  8.00000000E-01  8.00000000E-01  1.50000000E+00  1.50000000E+00
  8.00000000E-01  8.00000000E-01  1.50000000E+00  1.50000000E+00  8.00000000E-01
  8.00000000E-01  1.50000000E+00  1.50000000E+00  8.00000000E-01  8.00000000E-01
  1.50000000E+00  1.50000000E+00  8.00000000E-01  8.00000000E-01  1.50000000E+00
  1.50000000E+00  8.00000000E-01  8.00000000E-01  1.50000000E+00  1.50000000E+00
  8.00000000E-01  8.00000000E-01  1.50000000E+00  1.50000000E+00  8.00000000E-01
  8.00000000E-01  1.50000000E+00  1.50000000E+00  8.00000000E-01  8.00000000E-01
  1.50000000E+00  1.50000000E+00  8.00000000E-01  8.00000000E-01  1.50000000E+00
  1.50000000E+00  8.00000000E-01  8.00000000E-01  1.50000000E+00  1.50000000E+00
  8.00000000E-01  8.00000000E-01  1.50000000E+00  1.50000000E+00  8.00000000E-01
  8.00000000E-01  1.50000000E+00  1.50000000E+00  8.00000000E-01  8.00000000E-01
  1.50000000E+00  1.50000000E+00  8.00000000E-01  8.00000000E-01  1.50000000E+00
  1.50000000E+00  8.00000000E-01  8.00000000E-01  1.50000000E+00  1.50000000E+00
  8.00000000E-01  8.00000000E-01  1.50000000E+00  1.50000000E+00  8.00000000E-01
  8.00000000E-01  1.50000000E+00  1.50000000E+00  8.00000000E-01  8.00000000E-01
  1.50000000E+00  1.50000000E+00  8.00000000E-01  8.00000000E-01  1.50000000E+00
  1.50000000E+00  8.00000000E-01  8.00000000E-01  1.50000000E+00  1.50000000E+00
  8.00000000E-01  8.00000000E-01  1.50000000E+00  1.50000000E+00  8.00000000E-01
  8.00000000E-01  1.50000000E+00  1.50000000E+00  8.00000000E-01  8.00000000E-01
  1.50000000E+00  1.50000000E+00  8.00000000E-01  8.00000000E-01  1.50000000E+00
  1.50000000E+00  8.00000000E-01  8.00000000E-01  1.50000000E+00  1.50000000E+00
  8.00000000E-01  8.00000000E-01  1.50000000E+00  1.50000000E+00  8.00000000E-01
  8.00000000E-01  1.50000000E+00  1.50000000E+00  8.00000000E-01  8.00000000E-01
  1.50000000E+00  1.50000000E+00  8.00000000E-01  8.00000000E-01  1.50000000E+00
  1.50000000E+00  8.00000000E-01  8.00000000E-01  1.50000000E+00  1.50000000E+00
  8.00000000E-01  8.00000000E-01  1.50000000E+00  1.50000000E+00  8.00000000E-01
  8.00000000E-01  1.50000000E+00  1.50000000E+00  8.00000000E-01  8.00000000E-01
  1.50000000E+00  1.50000000E+00  8.00000000E-01  8.00000000E-01  1.50000000E+00
  1.50000000E+00  8.00000000E-01  8.00000000E-01  1.50000000E+00  1.50000000E+00
  8.00000000E-01  8.00000000E-01  1.50000000E+00  1.50000000E+00  8.00000000E-01
  8.00000000E-01  1.50000000E+00  1.50000000E+00  8.00000000E-01  8.00000000E-01
  1.50000000E+00  1.50000000E+00  8.00000000E-01  8.00000000E-01  1.50000000E+00
  1.50000000E+00  8.00000000E-01  8.00000000E-01  1.50000000E+00  1.50000000E+00
  8.00000000E-01  8.00000000E-01  1.50000000E+00  1.50000000E+00  8.00000000E-01
  8.00000000E-01  1.50000000E+00  1.50000000E+00  8.00000000E-01  8.00000000E-01
  1.50000000E+00  1.50000000E+00  8.00000000E-01  8.00000000E-01  1.50000000E+00
  1.50000000E+00  8.00000000E-01  8.00000000E-01  1.50000000E+00  1.50000000E+00
  8.00000000E-01  8.00000000E-01  1.50000000E+00  1.50000000E+00  8.00000000E-01
  8.00000000E-01  1.50000000E+00  1.50000000E+00  8.00000000E-01  8.00000000E-01
  1.50000000E+00  1.50000000E+00  8.00000000E-01  8.00000000E-01  1.50000000E+00
  1.50000000E+00  8.00000000E-01  8.00000000E-01  1.50000000E+00  1.50000000E+00
  8.00000000E-01  8.00000000E-01  1.50000000E+00  1.50000000E+00  8.00000000E-01
  8.00000000E-01  1.50000000E+00  1.50000000E+00  8.00000000E-01  8.00000000E-01
  1.50000000E+00  1.50000000E+00  8.00000000E-01  8.00000000E-01  1.50000000E+00
  1.50000000E+00  8.00000000E-01  8.00000000E-01  1.50000000E+00  1.50000000E+00
  8.00000000E-01  8.00000000E-01  1.50000000E+00  1.50000000E+00  8.00000000E-01
  8.00000000E-01  1.50000000E+00  1.50000000E+00  8.00000000E-01  8.00000000E-01
  1.50000000E+00  1.50000000E+00  8.00000000E-01  8.00000000E-01  1.50000000E+00
  1.50000000E+00  8.00000000E-01  8.00000000E-01  1.50000000E+00  1.50000000E+00
  8.00000000E-01  8.00000000E-01  1.50000000E+00  1.50000000E+00  8.00000000E-01
  8.00000000E-01  1.50000000E+00  1.50000000E+00  8.00000000E-01  8.00000000E-01
  1.50000000E+00  1.50000000E+00  8.00000000E-01  8.00000000E-01  1.50000000E+00
  1.50000000E+00  8.00000000E-01  8.00000000E-01  1.50000000E+00  1.50000000E+00
  8.00000000E-01  8.00000000E-01  1.50000000E+00  1.50000000E+00  8.00000000E-01
  8.00000000E-01  1.50000000E+00  1.50000000E+00  8.00000000E-01  8.00000000E-01
  1.50000000E+00  1.50000000E+00  8.00000000E-01  8.00000000E-01  1.50000000E+00
  1.50000000E+00  8.00000000E-01  8.00000000E-01  1.50000000E+00  1.50000000E+00
  8.00000000E-01  8.00000000E-01  1.50000000E+00  1.50000000E+00  8.00000000E-01
  8.00000000E-01  1.50000000E+00  1.50000000E+00  8.00000000E-01  8.00000000E-01
  1.50000000E+00  1.50000000E+00  8.00000000E-01  8.00000000E-01  1.50000000E+00
  1.50000000E+00  8.00000000E-01  8.00000000E-01  1.50000000E+00  1.50000000E+00
  8.00000000E-01  8.00000000E-01  1.50000000E+00  1.50000000E+00  8.00000000E-01
  8.00000000E-01  1.50000000E+00  1.50000000E+00  8.00000000E-01  8.00000000E-01
  1.50000000E+00  1.50000000E+00  8.00000000E-01  8.00000000E-01  1.50000000E+00
  1.50000000E+00  8.00000000E-01  8.00000000E-01  1.50000000E+00  1.50000000E+00
  8.00000000E-01  8.00000000E-01  1.50000000E+00  1.50000000E+00  8.00000000E-01
  8.00000000E-01  1.50000000E+00  1.50000000E+00  8.00000000E-01  8.00000000E-01
  1.50000000E+00  1.50000000E+00  8.00000000E-01  8.00000000E-01  1.50000000E+00
  1.50000000E+00  8.00000000E-01  8.00000000E-01  1.50000000E+00  1.50000000E+00
  8.00000000E-01  8.00000000E-01  1.50000000E+00  1.50000000E+00  8.00000000E-01
  8.00000000E-01  1.50000000E+00  1.50000000E+00  8.00000000E-01  8.00000000E-01
  1.50000000E+00  1.50000000E+00  8.00000000E-01  8.00000000E-01  1.50000000E+00
  1.50000000E+00  8.00000000E-01  8.00000000E-01  1.50000000E+00  1.50000000E+00
  8.00000000E-01  8.00000000E-01  1.50000000E+00  1.50000000E+00  8.00000000E-01
  8.00000000E-01  1.50000000E+00  1.50000000E+00  8.00000000E-01  8.00000000E-01
  1.50000000E+00  1.50000000E+00  8.00000000E-01  8.00000000E-01  1.50000000E+00
  1.50000000E+00  8.00000000E-01  8.00000000E-01  1.50000000E+00  1.50000000E+00
  8.00000000E-01  8.00000000E-01  1.50000000E+00  1.50000000E+00  8.00000000E-01
  8.00000000E-01  1.50000000E+00  1.50000000E+00  8.00000000E-01  8.00000000E-01
  1.50000000E+00  1.50000000E+00  8.00000000E-01  8.00000000E-01  1.50000000E+00
  1.50000000E+00  8.00000000E-01  8.00000000E-01  1.50000000E+00  1.50000000E+00
  8.00000000E-01  8.00000000E-01  1.50000000E+00  1.50000000E+00  8.00000000E-01
  8.00000000E-01  1.50000000E+00  1.50000000E+00  8.00000000E-01  8.00000000E-01
  1.50000000E+00  1.50000000E+00  8.00000000E-01  8.00000000E-01  1.50000000E+00
  1.50000000E+00  8.00000000E-01  8.00000000E-01  1.50000000E+00  1.50000000E+00
  8.00000000E-01  8.00000000E-01  1.50000000E+00  1.50000000E+00  8.00000000E-01
  8.00000000E-01  1.50000000E+00  1.50000000E+00  8.00000000E-01  8.00000000E-01
  1.50000000E+00  1.50000000E+00  8.00000000E-01  8.00000000E-01  1.50000000E+00
  1.50000000E+00  8.00000000E-01  8.00000000E-01  1.50000000E+00  1.50000000E+00
  8.00000000E-01  8.00000000E-01  1.50000000E+00  1.50000000E+00  8.00000000E-01
  8.00000000E-01  1.50000000E+00  1.50000000E+00  8.00000000E-01  8.00000000E-01
  1.50000000E+00  1.50000000E+00  8.00000000E-01  8.00000000E-01  1.50000000E+00
  1.50000000E+00  8.00000000E-01  8.00000000E-01  1.50000000E+00  1.50000000E+00
  8.00000000E-01  8.00000000E-01  1.50000000E+00  1.50000000E+00  8.00000000E-01
  8.00000000E-01  1.50000000E+00  1.50000000E+00  8.00000000E-01  8.00000000E-01
  1.50000000E+00  1.50000000E+00  8.00000000E-01  8.00000000E-01  1.50000000E+00
  1.50000000E+00  8.00000000E-01  8.00000000E-01  1.50000000E+00  1.50000000E+00
  8.00000000E-01  8.00000000E-01  1.50000000E+00  1.50000000E+00  8.00000000E-01
  8.00000000E-01  1.50000000E+00  1.50000000E+00  8.00000000E-01  8.00000000E-01
  1.50000000E+00  1.50000000E+00  8.00000000E-01  8.00000000E-01  1.50000000E+00
  1.50000000E+00  8.00000000E-01  8.00000000E-01  1.50000000E+00  1.50000000E+00
  8.00000000E-01  8.00000000E-01  1.50000000E+00  1.50000000E+00  8.00000000E-01
  8.00000000E-01  1.50000000E+00  1.50000000E+00  8.00000000E-01  8.00000000E-01
  1.50000000E+00  1.50000000E+00  8.00000000E-01  8.00000000E-01  1.50000000E+00
  1.50000000E+00  8.00000000E-01  8.00000000E-01  1.50000000E+00  1.50000000E+00
  8.00000000E-01  8.00000000E-01  1.50000000E+00  1.50000000E+00  8.00000000E-01
  8.00000000E-01  1.50000000E+00  1.50000000E+00  8.00000000E-01  8.00000000E-01
  1.50000000E+00  1.50000000E+00  8.00000000E-01  8.00000000E-01  1.50000000E+00
  1.50000000E+00  8.00000000E-01  8.00000000E-01  1.50000000E+00  1.50000000E+00
  8.00000000E-01  8.00000000E-01  1.50000000E+00  1.50000000E+00  8.00000000E-01
  8.00000000E-01  1.50000000E+00  1.50000000E+00  8.00000000E-01  8.00000000E-01
  1.50000000E+00  1.50000000E+00  8.00000000E-01  8.00000000E-01  1.50000000E+00
  1.50000000E+00  8.00000000E-01  8.00000000E-01  1.50000000E+00  1.50000000E+00
  8.00000000E-01  8.00000000E-01  1.50000000E+00  1.50000000E+00  8.00000000E-01
  8.00000000E-01  1.50000000E+00  1.50000000E+00  8.00000000E-01  8.00000000E-01
  1.50000000E+00  1.50000000E+00  8.00000000E-01  8.00000000E-01  1.50000000E+00
  1.50000000E+00  8.00000000E-01  8.00000000E-01  1.50000000E+00  1.50000000E+00
  8.00000000E-01  8.00000000E-01  1.50000000E+00  1.50000000E+00  8.00000000E-01
  8.00000000E-01  1.50000000E+00  1.50000000E+00  8.00000000E-01  8.00000000E-01
  1.50000000E+00  1.50000000E+00  8.00000000E-01  8.00000000E-01  1.50000000E+00
  1.50000000E+00  8.00000000E-01  8.00000000E-01  1.50000000E+00  1.50000000E+00
  8.00000000E-01  8.00000000E-01  1.50000000E+00  1.50000000E+00  8.00000000E-01
  8.00000000E-01  1.50000000E+00  1.50000000E+00  8.00000000E-01  8.00000000E-01
  1.50000000E+00  1.50000000E+00  8.00000000E-01  8.00000000E-01  1.50000000E+00
  1.50000000E+00  8.00000000E-01  8.00000000E-01  1.50000000E+00  1.50000000E+00
  8.00000000E-01  8.00000000E-01  1.50000000E+00  1.50000000E+00  8.00000000E-01
  8.00000000E-01  1.50000000E+00  1.50000000E+00  8.00000000E-01  8.00000000E-01
  1.50000000E+00  1.50000000E+00  8.00000000E-01  8.00000000E-01  1.50000000E+00
  1.50000000E+00  8.00000000E-01  8.00000000E-01  1.50000000E+00  1.50000000E+00
  8.00000000E-01  8.00000000E-01  1.50000000E+00  1.50000000E+00  8.00000000E-01
  8.00000000E-01  1.50000000E+00  1.50000000E+00  8.00000000E-01  8.00000000E-01
  1.50000000E+00  1.50000000E+00  8.00000000E-01  8.00000000E-01  1.50000000E+00
  1.50000000E+00  8.00000000E-01  8.00000000E-01  1.50000000E+00  1.50000000E+00
  8.00000000E-01  8.00000000E-01  1.50000000E+00  1.50000000E+00  8.00000000E-01
  8.00000000E-01  1.50000000E+00  1.50000000E+00  8.00000000E-01  8.00000000E-01
  1.50000000E+00  1.50000000E+00  8.00000000E-01  8.00000000E-01  1.50000000E+00
  1.50000000E+00  8.00000000E-01  8.00000000E-01  1.50000000E+00  1.50000000E+00
  8.00000000E-01  8.00000000E-01  1.50000000E+00  1.50000000E+00  8.00000000E-01
  8.00000000E-01  1.50000000E+00  1.50000000E+00  8.00000000E-01  8.00000000E-01
  1.50000000E+00  1.50000000E+00  8.00000000E-01  8.00000000E-01  1.50000000E+00
  1.50000000E+00  8.00000000E-01  8.00000000E-01  1.50000000E+00  1.50000000E+00
  8.00000000E-01  8.00000000E-01  1.50000000E+00  1.50000000E+00  8.00000000E-01
  8.00000000E-01  1.50000000E+00  1.50000000E+00  8.00000000E-01  8.00000000E-01
  1.50000000E+00  1.50000000E+00  8.00000000E-01  8.00000000E-01  1.50000000E+00
  1.50000000E+00  8.00000000E-01  8.00000000E-01  1.50000000E+00  1.50000000E+00
  8.00000000E-01  8.00000000E-01  1.50000000E+00  1.50000000E+00  8.00000000E-01
  8.00000000E-01  1.50000000E+00  1.50000000E+00  8.00000000E-01  8.00000000E-01
  1.50000000E+00  1.50000000E+00  8.00000000E-01  8.00000000E-01  1.50000000E+00
  1.50000000E+00  8.00000000E-01  8.00000000E-01  1.50000000E+00  1.50000000E+00
  8.00000000E-01  8.00000000E-01  1.50000000E+00  1.50000000E+00  8.00000000E-01
  8.00000000E-01  1.50000000E+00  1.50000000E+00  8.00000000E-01  8.00000000E-01
  1.50000000E+00  1.50000000E+00  8.00000000E-01  8.00000000E-01  1.50000000E+00
  1.50000000E+00  8.00000000E-01  8.00000000E-01  1.50000000E+00  1.50000000E+00
  8.00000000E-01  8.00000000E-01  1.50000000E+00  1.50000000E+00  8.00000000E-01
  8.00000000E-01  1.50000000E+00  1.50000000E+00  8.00000000E-01  8.00000000E-01
  1.50000000E+00  1.50000000E+00  8.00000000E-01  8.00000000E-01  1.50000000E+00
  1.50000000E+00  8.00000000E-01  8.00000000E-01  1.50000000E+00  1.50000000E+00
  8.00000000E-01  8.00000000E-01  1.50000000E+00  1.50000000E+00  8.00000000E-01
  8.00000000E-01  1.50000000E+00  1.50000000E+00  8.00000000E-01  8.00000000E-01
  1.50000000E+00  1.50000000E+00  8.00000000E-01  8.00000000E-01  1.50000000E+00
  1.50000000E+00  8.00000000E-01  8.00000000E-01  1.50000000E+00  1.50000000E+00
  8.00000000E-01  8.00000000E-01  1.50000000E+00  1.50000000E+00  8.00000000E-01
  8.00000000E-01  1.50000000E+00  1.50000000E+00  8.00000000E-01  8.00000000E-01
  1.50000000E+00  1.50000000E+00  8.00000000E-01  8.00000000E-01  1.50000000E+00
  1.50000000E+00  8.00000000E-01  8.00000000E-01  1.50000000E+00  1.50000000E+00
  8.00000000E-01  8.00000000E-01  1.50000000E+00  1.50000000E+00  8.00000000E-01
  8.00000000E-01  1.50000000E+00  1.50000000E+00  8.00000000E-01  8.00000000E-01
  1.50000000E+00  1.50000000E+00  8.00000000E-01  8.00000000E-01  1.50000000E+00
  1.50000000E+00  8.00000000E-01  8.00000000E-01  1.50000000E+00  1.50000000E+00
  8.00000000E-01  8.00000000E-01  1.50000000E+00  1.50000000E+00  8.00000000E-01
  8.00000000E-01  1.50000000E+00  1.50000000E+00  8.00000000E-01  8.00000000E-01
  1.50000000E+00  1.50000000E+00  8.00000000E-01  8.00000000E-01  1.50000000E+00
  1.50000000E+00  8.00000000E-01  8.00000000E-01  1.50000000E+00  1.50000000E+00
  8.00000000E-01  8.00000000E-01  1.50000000E+00  1.50000000E+00  8.00000000E-01
  8.00000000E-01  1.50000000E+00  1.50000000E+00  8.00000000E-01  8.00000000E-01
  1.50000000E+00  1.50000000E+00  8.00000000E-01  8.00000000E-01  1.50000000E+00
  1.50000000E+00  8.00000000E-01  8.00000000E-01  1.50000000E+00  1.50000000E+00
  8.00000000E-01  8.00000000E-01  1.50000000E+00  1.50000000E+00  8.00000000E-01
  8.00000000E-01  1.50000000E+00  1.50000000E+00  8.00000000E-01  8.00000000E-01
  1.50000000E+00  1.50000000E+00  8.00000000E-01  8.00000000E-01  1.50000000E+00
  1.50000000E+00  8.00000000E-01  8.00000000E-01  1.50000000E+00  1.50000000E+00
  8.00000000E-01  8.00000000E-01  1.50000000E+00  1.50000000E+00  8.00000000E-01
  8.00000000E-01  1.50000000E+00  1.50000000E+00  8.00000000E-01  8.00000000E-01
  1.50000000E+00  1.50000000E+00  8.00000000E-01  8.00000000E-01  1.50000000E+00
  1.50000000E+00  8.00000000E-01  8.00000000E-01  1.50000000E+00  1.50000000E+00
  8.00000000E-01  8.00000000E-01  1.50000000E+00  1.50000000E+00  8.00000000E-01
  8.00000000E-01  1.50000000E+00  1.50000000E+00  8.00000000E-01  8.00000000E-01
  1.50000000E+00  1.50000000E+00  8.00000000E-01  8.00000000E-01  1.50000000E+00
  1.50000000E+00  8.00000000E-01  8.00000000E-01  1.50000000E+00  1.50000000E+00
  8.00000000E-01  8.00000000E-01  1.50000000E+00  1.50000000E+00  8.00000000E-01
  8.00000000E-01  1.50000000E+00  1.50000000E+00  8.00000000E-01  8.00000000E-01
  1.50000000E+00  1.50000000E+00  8.00000000E-01  8.00000000E-01  1.50000000E+00
  1.50000000E+00  8.00000000E-01  8.00000000E-01  1.50000000E+00  1.50000000E+00
  8.00000000E-01  8.00000000E-01  1.50000000E+00  1.50000000E+00  8.00000000E-01
  8.00000000E-01  1.50000000E+00  1.50000000E+00  8.00000000E-01  8.00000000E-01
  1.50000000E+00  1.50000000E+00  8.00000000E-01  8.00000000E-01  1.50000000E+00
  1.50000000E+00  8.00000000E-01  8.00000000E-01  1.50000000E+00  1.50000000E+00
  8.00000000E-01  8.00000000E-01  1.50000000E+00  1.50000000E+00  8.00000000E-01
  8.00000000E-01  1.50000000E+00  1.50000000E+00  8.00000000E-01  8.00000000E-01
  1.50000000E+00  1.50000000E+00  8.00000000E-01  8.00000000E-01  1.50000000E+00
  1.50000000E+00  8.00000000E-01  8.00000000E-01  1.50000000E+00  1.50000000E+00
  8.00000000E-01  8.00000000E-01  1.50000000E+00  1.50000000E+00  8.00000000E-01
  8.00000000E-01  1.50000000E+00  1.50000000E+00  8.00000000E-01  8.00000000E-01
  1.50000000E+00  1.50000000E+00  8.00000000E-01  8.00000000E-01  1.50000000E+00
  1.50000000E+00  8.00000000E-01  8.00000000E-01  1.50000000E+00  1.50000000E+00
  8.00000000E-01  8.00000000E-01  1.50000000E+00  1.50000000E+00  8.00000000E-01
  8.00000000E-01  1.50000000E+00  1.50000000E+00  8.00000000E-01  8.00000000E-01
  1.50000000E+00  1.50000000E+00  8.00000000E-01  8.00000000E-01  1.50000000E+00
  1.50000000E+00  8.00000000E-01  8.00000000E-01  1.50000000E+00  1.50000000E+00
  8.00000000E-01  8.00000000E-01  1.50000000E+00  1.50000000E+00  8.00000000E-01
  8.00000000E-01  1.50000000E+00  1.50000000E+00  8.00000000E-01  8.00000000E-01
  1.50000000E+00  1.50000000E+00  8.00000000E-01  8.00000000E-01  1.50000000E+00
  1.50000000E+00  8.00000000E-01  8.00000000E-01  1.50000000E+00  1.50000000E+00
  8.00000000E-01  8.00000000E-01  1.50000000E+00  1.50000000E+00  8.00000000E-01
  8.00000000E-01  1.50000000E+00  1.50000000E+00  8.00000000E-01  8.00000000E-01
  1.50000000E+00  1.50000000E+00  8.00000000E-01  8.00000000E-01  1.50000000E+00
  1.50000000E+00  8.00000000E-01  8.00000000E-01  1.50000000E+00  1.50000000E+00
  8.00000000E-01  8.00000000E-01  1.50000000E+00  1.50000000E+00  8.00000000E-01
  8.00000000E-01  1.50000000E+00  1.50000000E+00  8.00000000E-01  8.00000000E-01
  1.50000000E+00  1.50000000E+00  8.00000000E-01  8.00000000E-01  1.50000000E+00
  1.50000000E+00  8.00000000E-01  8.00000000E-01  1.50000000E+00  1.50000000E+00
  8.00000000E-01  8.00000000E-01  1.50000000E+00  1.50000000E+00  8.00000000E-01
  8.00000000E-01  1.50000000E+00  1.50000000E+00  8.00000000E-01  8.00000000E-01
  1.50000000E+00  1.50000000E+00  8.00000000E-01  8.00000000E-01  1.50000000E+00
  1.50000000E+00  8.00000000E-01  8.00000000E-01  1.50000000E+00  1.50000000E+00
  8.00000000E-01  8.00000000E-01  1.50000000E+00  1.50000000E+00  8.00000000E-01
  8.00000000E-01  1.50000000E+00  1.50000000E+00  8.00000000E-01  8.00000000E-01
  1.50000000E+00  1.50000000E+00  8.00000000E-01  8.00000000E-01  1.50000000E+00
  1.50000000E+00  8.00000000E-01  8.00000000E-01  1.50000000E+00  1.50000000E+00
  8.00000000E-01  8.00000000E-01  1.50000000E+00  1.50000000E+00  8.00000000E-01
  8.00000000E-01  1.50000000E+00  1.50000000E+00  8.00000000E-01  8.00000000E-01
  1.50000000E+00  1.50000000E+00  8.00000000E-01  8.00000000E-01  1.50000000E+00
  1.50000000E+00  8.00000000E-01  8.00000000E-01  1.50000000E+00  1.50000000E+00
  8.00000000E-01  8.00000000E-01  1.50000000E+00  1.50000000E+00  8.00000000E-01
  8.00000000E-01  1.50000000E+00  1.50000000E+00  8.00000000E-01  8.00000000E-01
  1.50000000E+00  1.50000000E+00  8.00000000E-01  8.00000000E-01  1.50000000E+00
  1.50000000E+00  8.00000000E-01  8.00000000E-01  1.50000000E+00  1.50000000E+00
  8.00000000E-01  8.00000000E-01  1.50000000E+00  1.50000000E+00  8.00000000E-01
  8.00000000E-01  1.50000000E+00  1.50000000E+00  8.00000000E-01  8.00000000E-01
  1.50000000E+00  1.50000000E+00  8.00000000E-01  8.00000000E-01  1.50000000E+00
  1.50000000E+00  8.00000000E-01  8.00000000E-01  1.50000000E+00  1.50000000E+00
  8.00000000E-01  8.00000000E-01  1.50000000E+00  1.50000000E+00  8.00000000E-01
  8.00000000E-01  1.50000000E+00  1.50000000E+00  8.00000000E-01  8.00000000E-01
  1.50000000E+00  1.50000000E+00  8.00000000E-01  8.00000000E-01  1.50000000E+00
  1.50000000E+00  8.00000000E-01  8.00000000E-01  1.50000000E+00  1.50000000E+00
  8.00000000E-01  8.00000000E-01  1.50000000E+00  1.50000000E+00  8.00000000E-01
  8.00000000E-01  1.50000000E+00  1.50000000E+00  8.00000000E-01  8.00000000E-01
  1.50000000E+00  1.50000000E+00  8.00000000E-01  8.00000000E-01  1.50000000E+00
  1.50000000E+00  8.00000000E-01  8.00000000E-01  1.50000000E+00  1.50000000E+00
  8.00000000E-01  8.00000000E-01  1.50000000E+00  1.50000000E+00  8.00000000E-01
  8.00000000E-01  1.50000000E+00  1.50000000E+00  8.00000000E-01  8.00000000E-01
  1.50000000E+00  1.50000000E+00  8.00000000E-01  8.00000000E-01  1.50000000E+00
  1.50000000E+00  8.00000000E-01  8.00000000E-01  1.50000000E+00  1.50000000E+00
  8.00000000E-01  8.00000000E-01  1.50000000E+00  1.50000000E+00  8.00000000E-01
  8.00000000E-01  1.50000000E+00  1.50000000E+00  8.00000000E-01  8.00000000E-01
  1.50000000E+00  1.50000000E+00  8.00000000E-01  8.00000000E-01  1.50000000E+00
  1.50000000E+00  8.00000000E-01  8.00000000E-01  1.50000000E+00  1.50000000E+00
  8.00000000E-01  8.00000000E-01  1.50000000E+00  1.50000000E+00  8.00000000E-01
  8.00000000E-01  1.50000000E+00  1.50000000E+00  8.00000000E-01  8.00000000E-01
  1.50000000E+00  1.50000000E+00  8.00000000E-01  8.00000000E-01  1.50000000E+00
  1.50000000E+00  8.00000000E-01  8.00000000E-01  1.50000000E+00  1.50000000E+00
  8.00000000E-01  8.00000000E-01  1.50000000E+00  1.50000000E+00  8.00000000E-01
  8.00000000E-01  1.50000000E+00  1.50000000E+00  8.00000000E-01  8.00000000E-01
  1.50000000E+00  1.50000000E+00  8.00000000E-01  8.00000000E-01  1.50000000E+00
  1.50000000E+00  8.00000000E-01  8.00000000E-01  1.50000000E+00  1.50000000E+00
  8.00000000E-01  8.00000000E-01  1.50000000E+00  1.50000000E+00  8.00000000E-01
  8.00000000E-01  1.50000000E+00  1.50000000E+00  8.00000000E-01  8.00000000E-01
  1.50000000E+00  1.50000000E+00  8.00000000E-01  8.00000000E-01  1.50000000E+00
  1.50000000E+00  8.00000000E-01  8.00000000E-01  1.50000000E+00  1.50000000E+00
  8.00000000E-01  8.00000000E-01  1.50000000E+00  1.50000000E+00  8.00000000E-01
  8.00000000E-01  1.50000000E+00  1.50000000E+00  8.00000000E-01  8.00000000E-01
  1.50000000E+00  1.50000000E+00  8.00000000E-01  8.00000000E-01  1.50000000E+00
  1.50000000E+00  8.00000000E-01  8.00000000E-01  1.50000000E+00  1.50000000E+00
  8.00000000E-01  8.00000000E-01  1.50000000E+00  1.50000000E+00  8.00000000E-01
  8.00000000E-01  1.50000000E+00  1.50000000E+00  8.00000000E-01  8.00000000E-01
  1.50000000E+00  1.50000000E+00  8.00000000E-01  8.00000000E-01  1.50000000E+00
  1.50000000E+00  8.00000000E-01  8.00000000E-01  1.50000000E+00  1.50000000E+00
  8.00000000E-01  8.00000000E-01  1.50000000E+00  1.50000000E+00  8.00000000E-01
  8.00000000E-01  1.50000000E+00  1.50000000E+00  8.00000000E-01  8.00000000E-01
  1.50000000E+00  1.50000000E+00  8.00000000E-01  8.00000000E-01  1.50000000E+00
  1.50000000E+00  8.00000000E-01  8.00000000E-01  1.50000000E+00  1.50000000E+00
  8.00000000E-01  8.00000000E-01  1.50000000E+00  1.50000000E+00  8.00000000E-01
  8.00000000E-01  1.50000000E+00  1.50000000E+00  8.00000000E-01  8.00000000E-01
  1.50000000E+00  1.50000000E+00  8.00000000E-01  8.00000000E-01  1.50000000E+00
  1.50000000E+00  8.00000000E-01  8.00000000E-01  1.50000000E+00  1.50000000E+00
  8.00000000E-01  8.00000000E-01  1.50000000E+00  1.50000000E+00  8.00000000E-01
  8.00000000E-01  1.50000000E+00  1.50000000E+00  8.00000000E-01  8.00000000E-01
  1.50000000E+00  1.50000000E+00  8.00000000E-01  8.00000000E-01  1.50000000E+00
  1.50000000E+00  8.00000000E-01  8.00000000E-01  1.50000000E+00  1.50000000E+00
  8.00000000E-01  8.00000000E-01  1.50000000E+00  1.50000000E+00  8.00000000E-01
  8.00000000E-01  1.50000000E+00  1.50000000E+00  8.00000000E-01  8.00000000E-01
  1.50000000E+00  1.50000000E+00  8.00000000E-01  8.00000000E-01  1.50000000E+00
  1.50000000E+00  8.00000000E-01  8.00000000E-01  1.50000000E+00  1.50000000E+00
  8.00000000E-01  8.00000000E-01  1.50000000E+00  1.50000000E+00  8.00000000E-01
  8.00000000E-01  1.50000000E+00  1.50000000E+00  8.00000000E-01  8.00000000E-01
  1.50000000E+00  1.50000000E+00  8.00000000E-01  8.00000000E-01  1.50000000E+00
  1.50000000E+00  8.00000000E-01  8.00000000E-01  1.50000000E+00  1.50000000E+00
  8.00000000E-01  8.00000000E-01  1.50000000E+00  1.50000000E+00  8.00000000E-01
  8.00000000E-01  1.50000000E+00  1.50000000E+00  8.00000000E-01  8.00000000E-01
  1.50000000E+00  1.50000000E+00  8.00000000E-01  8.00000000E-01  1.50000000E+00
  1.50000000E+00  8.00000000E-01  8.00000000E-01  1.50000000E+00  1.50000000E+00
  8.00000000E-01  8.00000000E-01  1.50000000E+00  1.50000000E+00  8.00000000E-01
  8.00000000E-01  1.50000000E+00  1.50000000E+00  8.00000000E-01  8.00000000E-01
  1.50000000E+00  1.50000000E+00  8.00000000E-01  8.00000000E-01  1.50000000E+00
  1.50000000E+00  8.00000000E-01  8.00000000E-01  1.50000000E+00  1.50000000E+00
  8.00000000E-01  8.00000000E-01  1.50000000E+00  1.50000000E+00  8.00000000E-01
  8.00000000E-01  1.50000000E+00  1.50000000E+00  8.00000000E-01  8.00000000E-01
  1.50000000E+00  1.50000000E+00  8.00000000E-01  8.00000000E-01  1.50000000E+00
  1.50000000E+00  8.00000000E-01  8.00000000E-01  1.50000000E+00  1.50000000E+00
  8.00000000E-01  8.00000000E-01  1.50000000E+00  1.50000000E+00  8.00000000E-01
  8.00000000E-01  1.50000000E+00  1.50000000E+00  8.00000000E-01  8.00000000E-01
  1.50000000E+00  1.50000000E+00  8.00000000E-01  8.00000000E-01  1.50000000E+00
  1.50000000E+00  8.00000000E-01  8.00000000E-01  1.50000000E+00  1.50000000E+00
  8.00000000E-01  8.00000000E-01  1.50000000E+00  1.50000000E+00  8.00000000E-01
  8.00000000E-01  1.50000000E+00  1.50000000E+00  8.00000000E-01  8.00000000E-01
  1.50000000E+00  1.50000000E+00  8.00000000E-01  8.00000000E-01  1.50000000E+00
  1.50000000E+00  8.00000000E-01  8.00000000E-01  1.50000000E+00  1.50000000E+00
  8.00000000E-01  8.00000000E-01  1.50000000E+00  1.50000000E+00  8.00000000E-01
  8.00000000E-01  1.50000000E+00  1.50000000E+00  8.00000000E-01  8.00000000E-01
  1.50000000E+00  1.50000000E+00  8.00000000E-01  8.00000000E-01  1.50000000E+00
  1.50000000E+00  8.00000000E-01  8.00000000E-01  1.50000000E+00  1.50000000E+00
  8.00000000E-01  8.00000000E-01  1.50000000E+00  1.50000000E+00  8.00000000E-01
  8.00000000E-01  1.50000000E+00  1.50000000E+00  8.00000000E-01  8.00000000E-01
  1.50000000E+00  1.50000000E+00  8.00000000E-01  8.00000000E-01  1.50000000E+00
  1.50000000E+00  8.00000000E-01  8.00000000E-01  1.50000000E+00  1.50000000E+00
  8.00000000E-01  8.00000000E-01  1.50000000E+00  1.50000000E+00  8.00000000E-01
  8.00000000E-01  1.50000000E+00  1.50000000E+00  8.00000000E-01  8.00000000E-01
  1.50000000E+00  1.50000000E+00  8.00000000E-01  8.00000000E-01  1.50000000E+00
  1.50000000E+00  8.00000000E-01  8.00000000E-01  1.50000000E+00  1.50000000E+00
  8.00000000E-01  8.00000000E-01  1.50000000E+00  1.50000000E+00  8.00000000E-01
  8.00000000E-01  1.50000000E+00  1.50000000E+00  8.00000000E-01  8.00000000E-01
  1.50000000E+00  1.50000000E+00  8.00000000E-01  8.00000000E-01  1.50000000E+00
  1.50000000E+00  8.00000000E-01  8.00000000E-01  1.50000000E+00  1.50000000E+00
  8.00000000E-01  8.00000000E-01  1.50000000E+00  1.50000000E+00  8.00000000E-01
  8.00000000E-01  1.50000000E+00  1.50000000E+00  8.00000000E-01  8.00000000E-01
  1.50000000E+00  1.50000000E+00  8.00000000E-01  8.00000000E-01  1.50000000E+00
  1.50000000E+00  8.00000000E-01  8.00000000E-01  1.50000000E+00  1.50000000E+00
  8.00000000E-01  8.00000000E-01  1.50000000E+00  1.50000000E+00  8.00000000E-01
  8.00000000E-01  1.50000000E+00  1.50000000E+00  8.00000000E-01  8.00000000E-01
  1.50000000E+00  1.50000000E+00  8.00000000E-01  8.00000000E-01  1.50000000E+00
  1.50000000E+00  8.00000000E-01  8.00000000E-01  1.50000000E+00  1.50000000E+00
  8.00000000E-01  8.00000000E-01  1.50000000E+00  1.50000000E+00  8.00000000E-01
  8.00000000E-01  1.50000000E+00  1.50000000E+00  8.00000000E-01  8.00000000E-01
  1.50000000E+00  1.50000000E+00  8.00000000E-01  8.00000000E-01  1.50000000E+00
  1.50000000E+00  8.00000000E-01  8.00000000E-01  1.50000000E+00  1.50000000E+00
  8.00000000E-01  8.00000000E-01  1.50000000E+00  1.50000000E+00  8.00000000E-01
  8.00000000E-01  1.50000000E+00  1.50000000E+00  8.00000000E-01  8.00000000E-01
  1.50000000E+00  1.50000000E+00  8.00000000E-01  8.00000000E-01  1.50000000E+00
  1.50000000E+00  8.00000000E-01  8.00000000E-01  1.50000000E+00  1.50000000E+00
  8.00000000E-01  8.00000000E-01  1.50000000E+00  1.50000000E+00  8.00000000E-01
  8.00000000E-01  1.50000000E+00  1.50000000E+00  8.00000000E-01  8.00000000E-01
  1.50000000E+00  1.50000000E+00  8.00000000E-01  8.00000000E-01  1.50000000E+00
  1.50000000E+00  8.00000000E-01  8.00000000E-01  1.50000000E+00  1.50000000E+00
  8.00000000E-01  8.00000000E-01  1.50000000E+00  1.50000000E+00  8.00000000E-01
  8.00000000E-01  1.50000000E+00  1.50000000E+00  8.00000000E-01  8.00000000E-01
  1.50000000E+00  1.50000000E+00  8.00000000E-01  8.00000000E-01  1.50000000E+00
  1.50000000E+00  8.00000000E-01  8.00000000E-01  1.50000000E+00  1.50000000E+00
  8.00000000E-01  8.00000000E-01  1.50000000E+00  1.50000000E+00  8.00000000E-01
  8.00000000E-01  1.50000000E+00  1.50000000E+00  8.00000000E-01  8.00000000E-01
  1.50000000E+00  1.50000000E+00  8.00000000E-01  8.00000000E-01  1.50000000E+00
  1.50000000E+00  8.00000000E-01  8.00000000E-01  1.50000000E+00  1.50000000E+00
  8.00000000E-01  8.00000000E-01  1.50000000E+00  1.50000000E+00  8.00000000E-01
  8.00000000E-01  1.50000000E+00  1.50000000E+00  8.00000000E-01  8.00000000E-01
  1.50000000E+00  1.50000000E+00  8.00000000E-01  8.00000000E-01  1.50000000E+00
  1.50000000E+00  8.00000000E-01  8.00000000E-01  1.50000000E+00  1.50000000E+00
  8.00000000E-01  8.00000000E-01  1.50000000E+00  1.50000000E+00  8.00000000E-01
  8.00000000E-01  1.50000000E+00  1.50000000E+00  8.00000000E-01  8.00000000E-01
  1.50000000E+00  1.50000000E+00  8.00000000E-01  8.00000000E-01  1.50000000E+00
  1.50000000E+00  8.00000000E-01  8.00000000E-01  1.50000000E+00  1.50000000E+00
  8.00000000E-01  8.00000000E-01  1.50000000E+00  1.50000000E+00  8.00000000E-01
  8.00000000E-01  1.50000000E+00  1.50000000E+00  8.00000000E-01  8.00000000E-01
  1.50000000E+00  1.50000000E+00  8.00000000E-01  8.00000000E-01  1.50000000E+00
  1.50000000E+00  8.00000000E-01  8.00000000E-01  1.50000000E+00  1.50000000E+00
  8.00000000E-01  8.00000000E-01  1.50000000E+00  1.50000000E+00  8.00000000E-01
  8.00000000E-01  1.50000000E+00  1.50000000E+00  8.00000000E-01  8.00000000E-01
  1.50000000E+00  1.50000000E+00  8.00000000E-01  8.00000000E-01  1.50000000E+00
  1.50000000E+00  8.00000000E-01  8.00000000E-01  1.50000000E+00  1.50000000E+00
  8.00000000E-01  8.00000000E-01  1.50000000E+00  1.50000000E+00  8.00000000E-01
  8.00000000E-01  1.50000000E+00  1.50000000E+00  8.00000000E-01  8.00000000E-01
  1.50000000E+00  1.50000000E+00  8.00000000E-01  8.00000000E-01  1.50000000E+00
  1.50000000E+00  8.00000000E-01  8.00000000E-01  1.50000000E+00  1.50000000E+00
  8.00000000E-01  8.00000000E-01  1.50000000E+00  1.50000000E+00  8.00000000E-01
  8.00000000E-01  1.50000000E+00  1.50000000E+00  8.00000000E-01  8.00000000E-01
  1.50000000E+00  1.50000000E+00  8.00000000E-01  8.00000000E-01  1.50000000E+00
  1.50000000E+00  8.00000000E-01  8.00000000E-01  1.50000000E+00  1.50000000E+00
  8.00000000E-01  8.00000000E-01  1.50000000E+00  1.50000000E+00  8.00000000E-01
  8.00000000E-01  1.50000000E+00  1.50000000E+00  8.00000000E-01  8.00000000E-01
  1.50000000E+00  1.50000000E+00  8.00000000E-01  8.00000000E-01  1.50000000E+00
  1.50000000E+00  8.00000000E-01  8.00000000E-01  1.50000000E+00  1.50000000E+00
  8.00000000E-01  8.00000000E-01  1.50000000E+00  1.50000000E+00  8.00000000E-01
  8.00000000E-01  1.50000000E+00  1.50000000E+00  8.00000000E-01  8.00000000E-01
  1.50000000E+00  1.50000000E+00  8.00000000E-01  8.00000000E-01  1.50000000E+00
  1.50000000E+00  8.00000000E-01  8.00000000E-01  1.50000000E+00  1.50000000E+00
  8.00000000E-01  8.00000000E-01  1.50000000E+00  1.50000000E+00  8.00000000E-01
  8.00000000E-01  1.50000000E+00  1.50000000E+00  8.00000000E-01  8.00000000E-01
  1.50000000E+00  1.50000000E+00  8.00000000E-01  8.00000000E-01  1.50000000E+00
  1.50000000E+00  8.00000000E-01  8.00000000E-01  1.50000000E+00  1.50000000E+00
  8.00000000E-01  8.00000000E-01  1.50000000E+00  1.50000000E+00  8.00000000E-01
  8.00000000E-01  1.50000000E+00  1.50000000E+00  8.00000000E-01  8.00000000E-01
  1.50000000E+00  1.50000000E+00  8.00000000E-01  8.00000000E-01  1.50000000E+00
  1.50000000E+00  8.00000000E-01  8.00000000E-01  1.50000000E+00  1.50000000E+00
  8.00000000E-01  8.00000000E-01  1.50000000E+00  1.50000000E+00  8.00000000E-01
  8.00000000E-01  1.50000000E+00  1.50000000E+00  8.00000000E-01  8.00000000E-01
  1.50000000E+00  1.50000000E+00  8.00000000E-01  8.00000000E-01  1.50000000E+00
  1.50000000E+00  8.00000000E-01  8.00000000E-01  1.50000000E+00  1.50000000E+00
  8.00000000E-01  8.00000000E-01  1.50000000E+00  1.50000000E+00  8.00000000E-01
  8.00000000E-01  1.50000000E+00  1.50000000E+00  8.00000000E-01  8.00000000E-01
  1.50000000E+00  1.50000000E+00  8.00000000E-01  8.00000000E-01  1.50000000E+00
  1.50000000E+00  8.00000000E-01  8.00000000E-01  1.50000000E+00  1.50000000E+00
  8.00000000E-01  8.00000000E-01  1.50000000E+00  1.50000000E+00  8.00000000E-01
  8.00000000E-01  1.50000000E+00  1.50000000E+00  8.00000000E-01  8.00000000E-01
  1.50000000E+00  1.50000000E+00  8.00000000E-01  8.00000000E-01  1.50000000E+00
  1.50000000E+00  8.00000000E-01  8.00000000E-01  1.50000000E+00  1.50000000E+00
  8.00000000E-01  8.00000000E-01  1.50000000E+00  1.50000000E+00  8.00000000E-01
  8.00000000E-01  1.50000000E+00  1.50000000E+00  8.00000000E-01  8.00000000E-01
  1.50000000E+00  1.50000000E+00  8.00000000E-01  8.00000000E-01  1.50000000E+00
  1.50000000E+00  8.00000000E-01  8.00000000E-01  1.50000000E+00  1.50000000E+00
  8.00000000E-01  8.00000000E-01  1.50000000E+00  1.50000000E+00  8.00000000E-01
  8.00000000E-01  1.50000000E+00  1.50000000E+00  8.00000000E-01  8.00000000E-01
  1.50000000E+00  1.50000000E+00  8.00000000E-01  8.00000000E-01  1.50000000E+00
  1.50000000E+00  8.00000000E-01  8.00000000E-01  1.50000000E+00  1.50000000E+00
  8.00000000E-01  8.00000000E-01  1.50000000E+00  1.50000000E+00  8.00000000E-01
  8.00000000E-01  1.50000000E+00  1.50000000E+00  8.00000000E-01  8.00000000E-01
  1.50000000E+00  1.50000000E+00  8.00000000E-01  8.00000000E-01  1.50000000E+00
  1.50000000E+00  8.00000000E-01  8.00000000E-01  1.50000000E+00  1.50000000E+00
  8.00000000E-01  8.00000000E-01  1.50000000E+00  1.50000000E+00  8.00000000E-01
  8.00000000E-01  1.50000000E+00  1.50000000E+00  8.00000000E-01  8.00000000E-01
  1.50000000E+00  1.50000000E+00  8.00000000E-01  8.00000000E-01  1.50000000E+00
  1.50000000E+00  8.00000000E-01  8.00000000E-01  1.50000000E+00  1.50000000E+00
  8.00000000E-01  8.00000000E-01  1.50000000E+00  1.50000000E+00  8.00000000E-01
  8.00000000E-01  1.50000000E+00  1.50000000E+00  8.00000000E-01  8.00000000E-01
  1.50000000E+00  1.50000000E+00  8.00000000E-01  8.00000000E-01  1.50000000E+00
  1.50000000E+00  8.00000000E-01  8.00000000E-01  1.50000000E+00  1.50000000E+00
  8.00000000E-01  8.00000000E-01  1.50000000E+00  1.50000000E+00  8.00000000E-01
  8.00000000E-01  1.50000000E+00  1.50000000E+00  8.00000000E-01  8.00000000E-01
  1.50000000E+00  1.50000000E+00  8.00000000E-01  8.00000000E-01  1.50000000E+00
  1.50000000E+00  8.00000000E-01  8.00000000E-01  1.50000000E+00  1.50000000E+00
  8.00000000E-01  8.00000000E-01  1.50000000E+00  1.50000000E+00  8.00000000E-01
  8.00000000E-01  1.50000000E+00  1.50000000E+00  8.00000000E-01  8.00000000E-01
  1.50000000E+00  1.50000000E+00  8.00000000E-01  8.00000000E-01  1.50000000E+00
  1.50000000E+00  8.00000000E-01  8.00000000E-01  1.50000000E+00  1.50000000E+00
  8.00000000E-01  8.00000000E-01  1.50000000E+00  1.50000000E+00  8.00000000E-01
  8.00000000E-01  1.50000000E+00  1.50000000E+00  8.00000000E-01  8.00000000E-01
  1.50000000E+00  1.50000000E+00  8.00000000E-01  8.00000000E-01  1.50000000E+00
  1.50000000E+00  8.00000000E-01  8.00000000E-01  1.50000000E+00  1.50000000E+00
  8.00000000E-01  8.00000000E-01  1.50000000E+00  1.50000000E+00  8.00000000E-01
  8.00000000E-01  1.50000000E+00  1.50000000E+00  8.00000000E-01  8.00000000E-01
  1.50000000E+00  1.50000000E+00  8.00000000E-01  8.00000000E-01  1.50000000E+00
  1.50000000E+00  8.00000000E-01  8.00000000E-01  1.50000000E+00  1.50000000E+00
  8.00000000E-01  8.00000000E-01  1.50000000E+00  1.50000000E+00  8.00000000E-01
  8.00000000E-01  1.50000000E+00  1.50000000E+00  8.00000000E-01  8.00000000E-01
  1.50000000E+00  1.50000000E+00  8.00000000E-01  8.00000000E-01  1.50000000E+00
  1.50000000E+00  8.00000000E-01  8.00000000E-01  1.50000000E+00  1.50000000E+00
  8.00000000E-01  8.00000000E-01  1.50000000E+00  1.50000000E+00  8.00000000E-01
  8.00000000E-01  1.50000000E+00  1.50000000E+00  8.00000000E-01  8.00000000E-01
  1.50000000E+00  1.50000000E+00  8.00000000E-01  8.00000000E-01  1.50000000E+00
  1.50000000E+00  8.00000000E-01  8.00000000E-01  1.50000000E+00  1.50000000E+00
  8.00000000E-01  8.00000000E-01  1.50000000E+00  1.50000000E+00  8.00000000E-01
  8.00000000E-01  1.50000000E+00  1.50000000E+00  8.00000000E-01  8.00000000E-01
  1.50000000E+00  1.50000000E+00  8.00000000E-01  8.00000000E-01  1.50000000E+00
  1.50000000E+00  8.00000000E-01  8.00000000E-01  1.50000000E+00  1.50000000E+00
  8.00000000E-01  8.00000000E-01  1.50000000E+00  1.50000000E+00  8.00000000E-01
  8.00000000E-01  1.50000000E+00  1.50000000E+00  8.00000000E-01  8.00000000E-01
  1.50000000E+00  1.50000000E+00  8.00000000E-01  8.00000000E-01  1.50000000E+00
  1.50000000E+00  8.00000000E-01  8.00000000E-01  1.50000000E+00  1.50000000E+00
  8.00000000E-01  8.00000000E-01  1.50000000E+00  1.50000000E+00  8.00000000E-01
  8.00000000E-01  1.50000000E+00  1.50000000E+00  8.00000000E-01  8.00000000E-01
  1.50000000E+00  1.50000000E+00  8.00000000E-01  8.00000000E-01  1.50000000E+00
  1.50000000E+00  8.00000000E-01  8.00000000E-01  1.50000000E+00  1.50000000E+00
  8.00000000E-01  8.00000000E-01  1.50000000E+00  1.50000000E+00  8.00000000E-01
  8.00000000E-01  1.50000000E+00  1.50000000E+00  8.00000000E-01  8.00000000E-01
  1.50000000E+00  1.50000000E+00  8.00000000E-01  8.00000000E-01  1.50000000E+00
  1.50000000E+00  8.00000000E-01  8.00000000E-01  1.50000000E+00  1.50000000E+00
  8.00000000E-01  8.00000000E-01  1.50000000E+00  1.50000000E+00  8.00000000E-01
  8.00000000E-01  1.50000000E+00  1.50000000E+00  8.00000000E-01  8.00000000E-01
  1.50000000E+00  1.50000000E+00  8.00000000E-01  8.00000000E-01  1.50000000E+00
  1.50000000E+00  8.00000000E-01  8.00000000E-01  1.50000000E+00  1.50000000E+00
  8.00000000E-01  8.00000000E-01  1.50000000E+00  1.50000000E+00  8.00000000E-01
  8.00000000E-01  1.50000000E+00  1.50000000E+00  8.00000000E-01  8.00000000E-01
  1.50000000E+00  1.50000000E+00  8.00000000E-01  8.00000000E-01  1.50000000E+00
  1.50000000E+00  8.00000000E-01  8.00000000E-01  1.50000000E+00  1.50000000E+00
  8.00000000E-01  8.00000000E-01  1.50000000E+00  1.50000000E+00  8.00000000E-01
  8.00000000E-01  1.50000000E+00  1.50000000E+00  8.00000000E-01  8.00000000E-01
  1.50000000E+00  1.50000000E+00  8.00000000E-01  8.00000000E-01  1.50000000E+00
  1.50000000E+00  8.00000000E-01  8.00000000E-01  1.50000000E+00  1.50000000E+00
  8.00000000E-01  8.00000000E-01  1.50000000E+00  1.50000000E+00  8.00000000E-01
  8.00000000E-01  1.50000000E+00  1.50000000E+00  8.00000000E-01  8.00000000E-01
  1.50000000E+00  1.50000000E+00  8.00000000E-01  8.00000000E-01  1.50000000E+00
  1.50000000E+00  8.00000000E-01  8.00000000E-01  1.50000000E+00  1.50000000E+00
  8.00000000E-01  8.00000000E-01  1.50000000E+00  1.50000000E+00  8.00000000E-01
  8.00000000E-01  1.50000000E+00  1.50000000E+00  8.00000000E-01  8.00000000E-01
  1.50000000E+00  1.50000000E+00  8.00000000E-01  8.00000000E-01  1.50000000E+00
  1.50000000E+00  8.00000000E-01  8.00000000E-01  1.50000000E+00  1.50000000E+00
  8.00000000E-01  8.00000000E-01  1.50000000E+00  1.50000000E+00  8.00000000E-01
  8.00000000E-01  1.50000000E+00  1.50000000E+00  8.00000000E-01  8.00000000E-01
  1.50000000E+00  1.50000000E+00  8.00000000E-01  8.00000000E-01  1.50000000E+00
  1.50000000E+00  8.00000000E-01  8.00000000E-01  1.50000000E+00  1.50000000E+00
  8.00000000E-01  8.00000000E-01  1.50000000E+00  1.50000000E+00  8.00000000E-01
  8.00000000E-01  1.50000000E+00  1.50000000E+00  8.00000000E-01  8.00000000E-01
  1.50000000E+00  1.50000000E+00  8.00000000E-01  8.00000000E-01  1.50000000E+00
  1.50000000E+00  8.00000000E-01  8.00000000E-01  1.50000000E+00  1.50000000E+00
  8.00000000E-01  8.00000000E-01  1.50000000E+00  1.50000000E+00  8.00000000E-01
  8.00000000E-01  1.50000000E+00  1.50000000E+00  8.00000000E-01  8.00000000E-01
  1.50000000E+00  1.50000000E+00  8.00000000E-01  8.00000000E-01  1.50000000E+00
  1.50000000E+00  8.00000000E-01  8.00000000E-01  1.50000000E+00  1.50000000E+00
  8.00000000E-01  8.00000000E-01  1.50000000E+00  1.50000000E+00  8.00000000E-01
  8.00000000E-01  1.50000000E+00  1.50000000E+00  8.00000000E-01  8.00000000E-01
  1.50000000E+00  1.50000000E+00  8.00000000E-01  8.00000000E-01  1.50000000E+00
  1.50000000E+00  8.00000000E-01  8.00000000E-01  1.50000000E+00  1.50000000E+00
  8.00000000E-01  8.00000000E-01  1.50000000E+00  1.50000000E+00  8.00000000E-01
  8.00000000E-01  1.50000000E+00  1.50000000E+00  8.00000000E-01  8.00000000E-01
  1.50000000E+00  1.50000000E+00  8.00000000E-01  8.00000000E-01  1.50000000E+00
  1.50000000E+00  8.00000000E-01  8.00000000E-01  1.50000000E+00  1.50000000E+00
  8.00000000E-01  8.00000000E-01  1.50000000E+00  1.50000000E+00  8.00000000E-01
  8.00000000E-01  1.50000000E+00  1.50000000E+00  8.00000000E-01  8.00000000E-01
  1.50000000E+00  1.50000000E+00  8.00000000E-01  8.00000000E-01  1.50000000E+00
  1.50000000E+00  8.00000000E-01  8.00000000E-01  1.50000000E+00  1.50000000E+00
  8.00000000E-01  8.00000000E-01  1.50000000E+00  1.50000000E+00  8.00000000E-01
  8.00000000E-01  1.50000000E+00  1.50000000E+00  8.00000000E-01  8.00000000E-01
  1.50000000E+00  1.50000000E+00  8.00000000E-01  8.00000000E-01  1.50000000E+00
  1.50000000E+00  8.00000000E-01  8.00000000E-01  1.50000000E+00  1.50000000E+00
  8.00000000E-01  8.00000000E-01  1.50000000E+00  1.50000000E+00  8.00000000E-01
  8.00000000E-01  1.50000000E+00  1.50000000E+00  8.00000000E-01  8.00000000E-01
  1.50000000E+00  1.50000000E+00  8.00000000E-01  8.00000000E-01  1.50000000E+00
  1.50000000E+00  8.00000000E-01  8.00000000E-01  1.50000000E+00  1.50000000E+00
  8.00000000E-01  8.00000000E-01  1.50000000E+00  1.50000000E+00  8.00000000E-01
  8.00000000E-01  1.50000000E+00  1.50000000E+00  8.00000000E-01  8.00000000E-01
  1.50000000E+00  1.50000000E+00  8.00000000E-01  8.00000000E-01  1.50000000E+00
  1.50000000E+00  8.00000000E-01  8.00000000E-01  1.50000000E+00  1.50000000E+00
  8.00000000E-01  8.00000000E-01  1.50000000E+00  1.50000000E+00  8.00000000E-01
  8.00000000E-01  1.50000000E+00  1.50000000E+00  8.00000000E-01  8.00000000E-01
  1.50000000E+00  1.50000000E+00  8.00000000E-01  8.00000000E-01  1.50000000E+00
  1.50000000E+00  8.00000000E-01  8.00000000E-01  1.50000000E+00  1.50000000E+00
  8.00000000E-01  8.00000000E-01  1.50000000E+00  1.50000000E+00  8.00000000E-01
  8.00000000E-01  1.50000000E+00  1.50000000E+00  8.00000000E-01  8.00000000E-01
  1.50000000E+00  1.50000000E+00  8.00000000E-01  8.00000000E-01  1.50000000E+00
  1.50000000E+00  8.00000000E-01  8.00000000E-01  1.50000000E+00  1.50000000E+00
  8.00000000E-01  8.00000000E-01  1.50000000E+00  1.50000000E+00  8.00000000E-01
  8.00000000E-01  1.50000000E+00  1.50000000E+00  8.00000000E-01  8.00000000E-01
  1.50000000E+00  1.50000000E+00  8.00000000E-01  8.00000000E-01  1.50000000E+00
  1.50000000E+00  8.00000000E-01  8.00000000E-01  1.50000000E+00  1.50000000E+00
  8.00000000E-01  8.00000000E-01  1.50000000E+00  1.50000000E+00  8.00000000E-01
  8.00000000E-01  1.50000000E+00  1.50000000E+00  8.00000000E-01  8.00000000E-01
  1.50000000E+00  1.50000000E+00  8.00000000E-01  8.00000000E-01  1.50000000E+00
  1.50000000E+00  8.00000000E-01  8.00000000E-01  1.50000000E+00  1.50000000E+00
  8.00000000E-01  8.00000000E-01  1.50000000E+00  1.50000000E+00  8.00000000E-01
  8.00000000E-01  1.50000000E+00  1.50000000E+00  8.00000000E-01  8.00000000E-01
  1.50000000E+00  1.50000000E+00  8.00000000E-01  8.00000000E-01  1.50000000E+00
  1.50000000E+00  8.00000000E-01  8.00000000E-01  1.50000000E+00  1.50000000E+00
  8.00000000E-01  8.00000000E-01  1.50000000E+00  1.50000000E+00  8.00000000E-01
  8.00000000E-01  1.50000000E+00  1.50000000E+00  8.00000000E-01  8.00000000E-01
  1.50000000E+00  1.50000000E+00  8.00000000E-01  8.00000000E-01  1.50000000E+00
  1.50000000E+00  8.00000000E-01  8.00000000E-01  1.50000000E+00  1.50000000E+00
  8.00000000E-01  8.00000000E-01  1.50000000E+00  1.50000000E+00  8.00000000E-01
  8.00000000E-01  1.50000000E+00  1.50000000E+00  8.00000000E-01  8.00000000E-01
  1.50000000E+00  1.50000000E+00  8.00000000E-01  8.00000000E-01  1.50000000E+00
  1.50000000E+00  8.00000000E-01  8.00000000E-01  1.50000000E+00  1.50000000E+00
  8.00000000E-01  8.00000000E-01  1.50000000E+00  1.50000000E+00  8.00000000E-01
  8.00000000E-01  1.50000000E+00  1.50000000E+00  8.00000000E-01  8.00000000E-01
  1.50000000E+00  1.50000000E+00  8.00000000E-01  8.00000000E-01  1.50000000E+00
  1.50000000E+00  8.00000000E-01  8.00000000E-01  1.50000000E+00  1.50000000E+00
  8.00000000E-01  8.00000000E-01  1.50000000E+00  1.50000000E+00  8.00000000E-01
  8.00000000E-01  1.50000000E+00  1.50000000E+00  8.00000000E-01  8.00000000E-01
  1.50000000E+00  1.50000000E+00  8.00000000E-01  8.00000000E-01  1.50000000E+00
  1.50000000E+00  8.00000000E-01  8.00000000E-01  1.50000000E+00  1.50000000E+00
  8.00000000E-01  8.00000000E-01  1.50000000E+00  1.50000000E+00  8.00000000E-01
  8.00000000E-01  1.50000000E+00  1.50000000E+00  8.00000000E-01  8.00000000E-01
  1.50000000E+00  1.50000000E+00  8.00000000E-01  8.00000000E-01  1.50000000E+00
  1.50000000E+00  8.00000000E-01  8.00000000E-01  1.50000000E+00  1.50000000E+00
  8.00000000E-01  8.00000000E-01  1.50000000E+00  1.50000000E+00  8.00000000E-01
  8.00000000E-01  1.50000000E+00  1.50000000E+00  8.00000000E-01  8.00000000E-01
  1.50000000E+00  1.50000000E+00  8.00000000E-01  8.00000000E-01  1.50000000E+00
  1.50000000E+00  8.00000000E-01  8.00000000E-01  1.50000000E+00  1.50000000E+00
  8.00000000E-01  8.00000000E-01  1.50000000E+00  1.50000000E+00  8.00000000E-01
  8.00000000E-01  1.50000000E+00  1.50000000E+00  8.00000000E-01  8.00000000E-01
  1.50000000E+00  1.50000000E+00  8.00000000E-01  8.00000000E-01  1.50000000E+00
  1.50000000E+00  8.00000000E-01  8.00000000E-01  1.50000000E+00  1.50000000E+00
  8.00000000E-01  8.00000000E-01  1.50000000E+00  1.50000000E+00  8.00000000E-01
  8.00000000E-01  1.50000000E+00  1.50000000E+00  8.00000000E-01  8.00000000E-01
  1.50000000E+00  1.50000000E+00  8.00000000E-01  8.00000000E-01  1.50000000E+00
  1.50000000E+00  8.00000000E-01  8.00000000E-01  1.50000000E+00  1.50000000E+00
  8.00000000E-01  8.00000000E-01  1.50000000E+00  1.50000000E+00  8.00000000E-01
  8.00000000E-01  1.50000000E+00  1.50000000E+00  8.00000000E-01  8.00000000E-01
  1.50000000E+00  1.50000000E+00  8.00000000E-01  8.00000000E-01  1.50000000E+00
  1.50000000E+00  8.00000000E-01  8.00000000E-01  1.50000000E+00  1.50000000E+00
  8.00000000E-01  8.00000000E-01  1.50000000E+00  1.50000000E+00  8.00000000E-01
  8.00000000E-01  1.50000000E+00  1.50000000E+00  8.00000000E-01  8.00000000E-01
  1.50000000E+00  1.50000000E+00  8.00000000E-01  8.00000000E-01  1.50000000E+00
  1.50000000E+00  8.00000000E-01  8.00000000E-01  1.50000000E+00  1.50000000E+00
  8.00000000E-01  8.00000000E-01  1.50000000E+00  1.50000000E+00  8.00000000E-01
  8.00000000E-01  1.50000000E+00  1.50000000E+00  8.00000000E-01  8.00000000E-01
  1.50000000E+00  1.50000000E+00  8.00000000E-01  8.00000000E-01  1.50000000E+00
  1.50000000E+00  8.00000000E-01  8.00000000E-01  1.50000000E+00  1.50000000E+00
  8.00000000E-01  8.00000000E-01  1.50000000E+00  1.50000000E+00  8.00000000E-01
  8.00000000E-01  1.50000000E+00  1.50000000E+00  8.00000000E-01  8.00000000E-01
  1.50000000E+00  1.50000000E+00  8.00000000E-01  8.00000000E-01  1.50000000E+00
  1.50000000E+00  8.00000000E-01  8.00000000E-01  1.50000000E+00  1.50000000E+00
  8.00000000E-01  8.00000000E-01  1.50000000E+00  1.50000000E+00  8.00000000E-01
  8.00000000E-01  1.50000000E+00  1.50000000E+00  8.00000000E-01  8.00000000E-01
  1.50000000E+00  1.50000000E+00  8.00000000E-01  8.00000000E-01  1.50000000E+00
  1.50000000E+00  8.00000000E-01  8.00000000E-01  1.50000000E+00  1.50000000E+00
  8.00000000E-01  8.00000000E-01  1.50000000E+00  1.50000000E+00  8.00000000E-01
  8.00000000E-01  1.50000000E+00  1.50000000E+00  8.00000000E-01  8.00000000E-01
  1.50000000E+00  1.50000000E+00  8.00000000E-01  8.00000000E-01  1.50000000E+00
  1.50000000E+00  8.00000000E-01  8.00000000E-01  1.50000000E+00  1.50000000E+00
  8.00000000E-01  8.00000000E-01  1.50000000E+00  1.50000000E+00  8.00000000E-01
  8.00000000E-01  1.50000000E+00  1.50000000E+00  8.00000000E-01  8.00000000E-01
  1.50000000E+00  1.50000000E+00  8.00000000E-01  8.00000000E-01  1.50000000E+00
  1.50000000E+00  8.00000000E-01  8.00000000E-01  1.50000000E+00  1.50000000E+00
  8.00000000E-01  8.00000000E-01  1.50000000E+00  1.50000000E+00  8.00000000E-01
  8.00000000E-01  1.50000000E+00  1.50000000E+00  8.00000000E-01  8.00000000E-01
  1.50000000E+00  1.50000000E+00  8.00000000E-01  8.00000000E-01  1.50000000E+00
  1.50000000E+00  8.00000000E-01  8.00000000E-01  1.50000000E+00  1.50000000E+00
  8.00000000E-01  8.00000000E-01  1.50000000E+00  1.50000000E+00  8.00000000E-01
  8.00000000E-01  1.50000000E+00  1.50000000E+00  8.00000000E-01  8.00000000E-01
  1.50000000E+00  1.50000000E+00  8.00000000E-01  8.00000000E-01  1.50000000E+00
  1.50000000E+00  8.00000000E-01  8.00000000E-01  1.50000000E+00  1.50000000E+00
  8.00000000E-01  8.00000000E-01  1.50000000E+00  1.50000000E+00  8.00000000E-01
  8.00000000E-01  1.50000000E+00  1.50000000E+00  8.00000000E-01  8.00000000E-01
  1.50000000E+00  1.50000000E+00  8.00000000E-01  8.00000000E-01  1.50000000E+00
  1.50000000E+00  8.00000000E-01  8.00000000E-01  1.50000000E+00  1.50000000E+00
  8.00000000E-01  8.00000000E-01  1.50000000E+00  1.50000000E+00  8.00000000E-01
  8.00000000E-01  1.50000000E+00  1.50000000E+00  8.00000000E-01  8.00000000E-01
  1.50000000E+00  1.50000000E+00  8.00000000E-01  8.00000000E-01  1.50000000E+00
  1.50000000E+00  8.00000000E-01  8.00000000E-01  1.50000000E+00  1.50000000E+00
  8.00000000E-01  8.00000000E-01  1.50000000E+00  1.50000000E+00  8.00000000E-01
  8.00000000E-01  1.50000000E+00  1.50000000E+00  8.00000000E-01  8.00000000E-01
  1.50000000E+00  1.50000000E+00  8.00000000E-01  8.00000000E-01  1.50000000E+00
  1.50000000E+00  8.00000000E-01  8.00000000E-01  1.50000000E+00  1.50000000E+00
  8.00000000E-01  8.00000000E-01  1.50000000E+00  1.50000000E+00  8.00000000E-01
  8.00000000E-01  1.50000000E+00  1.50000000E+00  8.00000000E-01  8.00000000E-01
  1.50000000E+00  1.50000000E+00  8.00000000E-01  8.00000000E-01  1.50000000E+00
  1.50000000E+00  8.00000000E-01  8.00000000E-01  1.50000000E+00  1.50000000E+00
  8.00000000E-01  8.00000000E-01  1.50000000E+00  1.50000000E+00  8.00000000E-01
  8.00000000E-01  1.50000000E+00  1.50000000E+00  8.00000000E-01  8.00000000E-01
  1.50000000E+00  1.50000000E+00  8.00000000E-01  8.00000000E-01  1.50000000E+00
  1.50000000E+00  8.00000000E-01  8.00000000E-01  1.50000000E+00  1.50000000E+00
  8.00000000E-01  8.00000000E-01  1.50000000E+00  1.50000000E+00  8.00000000E-01
  8.00000000E-01  1.50000000E+00  1.50000000E+00  8.00000000E-01  8.00000000E-01
  1.50000000E+00  1.50000000E+00  8.00000000E-01  8.00000000E-01  1.50000000E+00
  1.50000000E+00  8.00000000E-01  8.00000000E-01  1.50000000E+00  1.50000000E+00
  8.00000000E-01  8.00000000E-01  1.50000000E+00  1.50000000E+00  8.00000000E-01
  8.00000000E-01  1.50000000E+00  1.50000000E+00  8.00000000E-01  8.00000000E-01
  1.50000000E+00  1.50000000E+00  8.00000000E-01  8.00000000E-01  1.50000000E+00
  1.50000000E+00  8.00000000E-01  8.00000000E-01  1.50000000E+00  1.50000000E+00
  8.00000000E-01  8.00000000E-01  1.50000000E+00  1.50000000E+00  8.00000000E-01
  8.00000000E-01  1.50000000E+00  1.50000000E+00  8.00000000E-01  8.00000000E-01
  1.50000000E+00  1.50000000E+00  8.00000000E-01  8.00000000E-01  1.50000000E+00
  1.50000000E+00  8.00000000E-01  8.00000000E-01  1.50000000E+00  1.50000000E+00
  8.00000000E-01  8.00000000E-01  1.50000000E+00  1.50000000E+00  8.00000000E-01
  8.00000000E-01  1.50000000E+00  1.50000000E+00  8.00000000E-01  8.00000000E-01
  1.50000000E+00  1.50000000E+00  8.00000000E-01  8.00000000E-01  1.50000000E+00
  1.50000000E+00  8.00000000E-01  8.00000000E-01  1.50000000E+00  1.50000000E+00
  8.00000000E-01  8.00000000E-01  1.50000000E+00  1.50000000E+00  8.00000000E-01
  8.00000000E-01  1.50000000E+00  1.50000000E+00  8.00000000E-01  8.00000000E-01
  1.50000000E+00  1.50000000E+00  8.00000000E-01  8.00000000E-01  1.50000000E+00
  1.50000000E+00  8.00000000E-01  8.00000000E-01  1.50000000E+00  1.50000000E+00
  8.00000000E-01  8.00000000E-01  1.50000000E+00  1.50000000E+00  8.00000000E-01
  8.00000000E-01  1.50000000E+00  1.50000000E+00  8.00000000E-01  8.00000000E-01
  1.50000000E+00  1.50000000E+00  8.00000000E-01  8.00000000E-01  1.50000000E+00
  1.50000000E+00  8.00000000E-01  8.00000000E-01  1.50000000E+00  1.50000000E+00
  8.00000000E-01  8.00000000E-01  1.50000000E+00  1.50000000E+00  8.00000000E-01
  8.00000000E-01  1.50000000E+00  1.50000000E+00  8.00000000E-01  8.00000000E-01
  1.50000000E+00  1.50000000E+00  8.00000000E-01  8.00000000E-01  1.50000000E+00
  1.50000000E+00  8.00000000E-01  8.00000000E-01  1.50000000E+00  1.50000000E+00
  8.00000000E-01  8.00000000E-01  1.50000000E+00  1.50000000E+00  8.00000000E-01
  8.00000000E-01  1.50000000E+00  1.50000000E+00  8.00000000E-01  8.00000000E-01
  1.50000000E+00  1.50000000E+00  8.00000000E-01  8.00000000E-01  1.50000000E+00
  1.50000000E+00  8.00000000E-01  8.00000000E-01  1.50000000E+00  1.50000000E+00
  8.00000000E-01  8.00000000E-01  1.50000000E+00  1.50000000E+00  8.00000000E-01
  8.00000000E-01  1.50000000E+00  1.50000000E+00  8.00000000E-01  8.00000000E-01
  1.50000000E+00  1.50000000E+00  8.00000000E-01  8.00000000E-01  1.50000000E+00
  1.50000000E+00  8.00000000E-01  8.00000000E-01  1.50000000E+00  1.50000000E+00
  8.00000000E-01  8.00000000E-01  1.50000000E+00  1.50000000E+00  8.00000000E-01
  8.00000000E-01  1.50000000E+00  1.50000000E+00  8.00000000E-01  8.00000000E-01
  1.50000000E+00  1.50000000E+00  8.00000000E-01  8.00000000E-01  1.50000000E+00
  1.50000000E+00  8.00000000E-01  8.00000000E-01  1.50000000E+00  1.50000000E+00
  8.00000000E-01  8.00000000E-01  1.50000000E+00  1.50000000E+00  8.00000000E-01
  8.00000000E-01  1.50000000E+00  1.50000000E+00  8.00000000E-01  8.00000000E-01
  1.50000000E+00  1.50000000E+00  8.00000000E-01  8.00000000E-01  1.50000000E+00
  1.50000000E+00  8.00000000E-01  8.00000000E-01  1.50000000E+00  1.50000000E+00
  8.00000000E-01  8.00000000E-01  1.50000000E+00  1.50000000E+00  8.00000000E-01
  8.00000000E-01  1.50000000E+00  1.50000000E+00  8.00000000E-01  8.00000000E-01
  1.50000000E+00  1.50000000E+00  8.00000000E-01  8.00000000E-01  1.50000000E+00
  1.50000000E+00  8.00000000E-01  8.00000000E-01  1.50000000E+00  1.50000000E+00
  8.00000000E-01  8.00000000E-01  1.50000000E+00  1.50000000E+00  8.00000000E-01
  8.00000000E-01  1.50000000E+00  1.50000000E+00  8.00000000E-01  8.00000000E-01
  1.50000000E+00  1.50000000E+00  8.00000000E-01  8.00000000E-01  1.50000000E+00
  1.50000000E+00  8.00000000E-01  8.00000000E-01  1.50000000E+00  1.50000000E+00
  8.00000000E-01  8.00000000E-01  1.50000000E+00  1.50000000E+00  8.00000000E-01
  8.00000000E-01  1.50000000E+00  1.50000000E+00  8.00000000E-01  8.00000000E-01
  1.50000000E+00  1.50000000E+00  8.00000000E-01  8.00000000E-01  1.50000000E+00
  1.50000000E+00  8.00000000E-01  8.00000000E-01  1.50000000E+00  1.50000000E+00
  8.00000000E-01  8.00000000E-01  1.50000000E+00  1.50000000E+00  8.00000000E-01
  8.00000000E-01  1.50000000E+00  1.50000000E+00  8.00000000E-01  8.00000000E-01
  1.50000000E+00  1.50000000E+00  8.00000000E-01  8.00000000E-01  1.50000000E+00
  1.50000000E+00  8.00000000E-01  8.00000000E-01  1.50000000E+00  1.50000000E+00
  8.00000000E-01  8.00000000E-01  1.50000000E+00  1.50000000E+00  8.00000000E-01
  8.00000000E-01  1.50000000E+00  1.50000000E+00  8.00000000E-01  8.00000000E-01
  1.50000000E+00  1.50000000E+00  8.00000000E-01  8.00000000E-01  1.50000000E+00
  1.50000000E+00  8.00000000E-01  8.00000000E-01  1.50000000E+00  1.50000000E+00
  8.00000000E-01  8.00000000E-01  1.50000000E+00  1.50000000E+00  8.00000000E-01
  8.00000000E-01  1.50000000E+00  1.50000000E+00  8.00000000E-01  8.00000000E-01
  1.50000000E+00  1.50000000E+00  8.00000000E-01  8.00000000E-01  1.50000000E+00
  1.50000000E+00  8.00000000E-01  8.00000000E-01  1.50000000E+00  1.50000000E+00
  8.00000000E-01  8.00000000E-01  1.50000000E+00  1.50000000E+00  8.00000000E-01
  8.00000000E-01  1.50000000E+00  1.50000000E+00  8.00000000E-01  8.00000000E-01
  1.50000000E+00  1.50000000E+00  8.00000000E-01  8.00000000E-01  1.50000000E+00
  1.50000000E+00  8.00000000E-01  8.00000000E-01  1.50000000E+00  1.50000000E+00
  8.00000000E-01  8.00000000E-01  1.50000000E+00  1.50000000E+00  8.00000000E-01
  8.00000000E-01  1.50000000E+00  1.50000000E+00  8.00000000E-01  8.00000000E-01
  1.50000000E+00  1.50000000E+00  8.00000000E-01  8.00000000E-01  1.50000000E+00
  1.50000000E+00  8.00000000E-01  8.00000000E-01  1.50000000E+00  1.50000000E+00
  8.00000000E-01  8.00000000E-01  1.50000000E+00  1.50000000E+00  8.00000000E-01
  8.00000000E-01  1.50000000E+00  1.50000000E+00  8.00000000E-01  8.00000000E-01
  1.50000000E+00  1.50000000E+00  8.00000000E-01  8.00000000E-01  1.50000000E+00
  1.50000000E+00  8.00000000E-01  8.00000000E-01  1.50000000E+00  1.50000000E+00
  8.00000000E-01  8.00000000E-01  1.50000000E+00  1.50000000E+00  8.00000000E-01
  8.00000000E-01  1.50000000E+00  1.50000000E+00  8.00000000E-01  8.00000000E-01
  1.50000000E+00  1.50000000E+00  8.00000000E-01  8.00000000E-01  1.50000000E+00
  1.50000000E+00  8.00000000E-01  8.00000000E-01  1.50000000E+00  1.50000000E+00
  8.00000000E-01  8.00000000E-01  1.50000000E+00  1.50000000E+00  8.00000000E-01
  8.00000000E-01  1.50000000E+00  1.50000000E+00  8.00000000E-01  8.00000000E-01
  1.50000000E+00  1.50000000E+00  8.00000000E-01  8.00000000E-01  1.50000000E+00
  1.50000000E+00  8.00000000E-01  8.00000000E-01  1.50000000E+00  1.50000000E+00
  8.00000000E-01  8.00000000E-01  1.50000000E+00  1.50000000E+00  8.00000000E-01
  8.00000000E-01  1.50000000E+00  1.50000000E+00  8.00000000E-01  8.00000000E-01
  1.50000000E+00  1.50000000E+00  8.00000000E-01  8.00000000E-01  1.50000000E+00
  1.50000000E+00  8.00000000E-01  8.00000000E-01  1.50000000E+00  1.50000000E+00
  8.00000000E-01  8.00000000E-01  1.50000000E+00  1.50000000E+00  8.00000000E-01
  8.00000000E-01  1.50000000E+00  1.50000000E+00  8.00000000E-01  8.00000000E-01
  1.50000000E+00  1.50000000E+00  8.00000000E-01  8.00000000E-01  1.50000000E+00
  1.50000000E+00  8.00000000E-01  8.00000000E-01  1.50000000E+00  1.50000000E+00
  8.00000000E-01  8.00000000E-01  1.50000000E+00  1.50000000E+00  8.00000000E-01
  8.00000000E-01  1.50000000E+00  1.50000000E+00  8.00000000E-01  8.00000000E-01
  1.50000000E+00  1.50000000E+00  8.00000000E-01  8.00000000E-01  1.50000000E+00
  1.50000000E+00  8.00000000E-01  8.00000000E-01  1.50000000E+00  1.50000000E+00
  8.00000000E-01  8.00000000E-01  1.50000000E+00  1.50000000E+00  8.00000000E-01
  8.00000000E-01  1.50000000E+00  1.50000000E+00  8.00000000E-01  8.00000000E-01
  1.50000000E+00  1.50000000E+00  8.00000000E-01  8.00000000E-01  1.50000000E+00
  1.50000000E+00  8.00000000E-01  8.00000000E-01  1.50000000E+00  1.50000000E+00
  8.00000000E-01  8.00000000E-01  1.50000000E+00  1.50000000E+00  8.00000000E-01
  8.00000000E-01  1.50000000E+00  1.50000000E+00  8.00000000E-01  8.00000000E-01
  1.50000000E+00  1.50000000E+00  8.00000000E-01  8.00000000E-01  1.50000000E+00
  1.50000000E+00  8.00000000E-01  8.00000000E-01  1.50000000E+00  1.50000000E+00
  8.00000000E-01  8.00000000E-01  1.50000000E+00  1.50000000E+00  8.00000000E-01
  8.00000000E-01  1.50000000E+00  1.50000000E+00  8.00000000E-01  8.00000000E-01
  1.50000000E+00  1.50000000E+00  8.00000000E-01  8.00000000E-01  1.50000000E+00
  1.50000000E+00  8.00000000E-01  8.00000000E-01  1.50000000E+00  1.50000000E+00
  8.00000000E-01  8.00000000E-01  1.50000000E+00  1.50000000E+00  8.00000000E-01
  8.00000000E-01  1.50000000E+00  1.50000000E+00  8.00000000E-01  8.00000000E-01
  1.50000000E+00  1.50000000E+00  8.00000000E-01  8.00000000E-01  1.50000000E+00
  1.50000000E+00  8.00000000E-01  8.00000000E-01  1.50000000E+00  1.50000000E+00
  8.00000000E-01  8.00000000E-01  1.50000000E+00  1.50000000E+00  8.00000000E-01
  8.00000000E-01  1.50000000E+00  1.50000000E+00  8.00000000E-01  8.00000000E-01
  1.50000000E+00  1.50000000E+00  8.00000000E-01  8.00000000E-01  1.50000000E+00
  1.50000000E+00  8.00000000E-01  8.00000000E-01  1.50000000E+00  1.50000000E+00
  8.00000000E-01  8.00000000E-01  1.50000000E+00  1.50000000E+00  8.00000000E-01
  8.00000000E-01  1.50000000E+00  1.50000000E+00  8.00000000E-01  8.00000000E-01
  1.50000000E+00  1.50000000E+00  8.00000000E-01  8.00000000E-01  1.50000000E+00
  1.50000000E+00  8.00000000E-01  8.00000000E-01  1.50000000E+00  1.50000000E+00
  8.00000000E-01  8.00000000E-01  1.50000000E+00  1.50000000E+00  8.00000000E-01
  8.00000000E-01  1.50000000E+00  1.50000000E+00  8.00000000E-01  8.00000000E-01
  1.50000000E+00  1.50000000E+00  8.00000000E-01  8.00000000E-01  1.50000000E+00
  1.50000000E+00  8.00000000E-01  8.00000000E-01  1.50000000E+00  1.50000000E+00
  8.00000000E-01  8.00000000E-01  1.50000000E+00  1.50000000E+00  8.00000000E-01
  8.00000000E-01  1.50000000E+00  1.50000000E+00  8.00000000E-01  8.00000000E-01
  1.50000000E+00  1.50000000E+00  8.00000000E-01  8.00000000E-01  1.50000000E+00
  1.50000000E+00  8.00000000E-01  8.00000000E-01  1.50000000E+00  1.50000000E+00
  8.00000000E-01  8.00000000E-01  1.50000000E+00  1.50000000E+00  8.00000000E-01
  8.00000000E-01  1.50000000E+00  1.50000000E+00  8.00000000E-01  8.00000000E-01
  1.50000000E+00  1.50000000E+00  8.00000000E-01  8.00000000E-01  1.50000000E+00
  1.50000000E+00  8.00000000E-01  8.00000000E-01  1.50000000E+00  1.50000000E+00
  8.00000000E-01  8.00000000E-01  1.50000000E+00  1.50000000E+00  8.00000000E-01
  8.00000000E-01  1.50000000E+00  1.50000000E+00  8.00000000E-01  8.00000000E-01
  1.50000000E+00  1.50000000E+00  8.00000000E-01  8.00000000E-01  1.50000000E+00
  1.50000000E+00  8.00000000E-01  8.00000000E-01  1.50000000E+00  1.50000000E+00
  8.00000000E-01  8.00000000E-01  1.50000000E+00  1.50000000E+00  8.00000000E-01
  8.00000000E-01  1.50000000E+00  1.50000000E+00  8.00000000E-01  8.00000000E-01
  1.50000000E+00  1.50000000E+00  8.00000000E-01  8.00000000E-01  1.50000000E+00
  1.50000000E+00  8.00000000E-01  8.00000000E-01  1.50000000E+00  1.50000000E+00
  8.00000000E-01  8.00000000E-01  1.50000000E+00  1.50000000E+00  8.00000000E-01
  8.00000000E-01  1.50000000E+00  1.50000000E+00  8.00000000E-01  8.00000000E-01
  1.50000000E+00  1.50000000E+00  8.00000000E-01  8.00000000E-01  1.50000000E+00
  1.50000000E+00  8.00000000E-01  8.00000000E-01  1.50000000E+00  1.50000000E+00
  8.00000000E-01  8.00000000E-01  1.50000000E+00  1.50000000E+00  8.00000000E-01
  8.00000000E-01  1.50000000E+00  1.50000000E+00  8.00000000E-01  8.00000000E-01
  1.50000000E+00  1.50000000E+00  8.00000000E-01  8.00000000E-01  1.50000000E+00
  1.50000000E+00  8.00000000E-01  8.00000000E-01  1.50000000E+00  1.50000000E+00
  8.00000000E-01  8.00000000E-01  1.50000000E+00  1.50000000E+00  8.00000000E-01
  8.00000000E-01  1.50000000E+00  1.50000000E+00  8.00000000E-01  8.00000000E-01
  1.50000000E+00  1.50000000E+00  8.00000000E-01  8.00000000E-01  1.50000000E+00
  1.50000000E+00  8.00000000E-01  8.00000000E-01  1.50000000E+00  1.50000000E+00
  8.00000000E-01  8.00000000E-01  1.50000000E+00  1.50000000E+00  8.00000000E-01
  8.00000000E-01  1.50000000E+00  1.50000000E+00  8.00000000E-01  8.00000000E-01
  1.50000000E+00  1.50000000E+00  8.00000000E-01  8.00000000E-01  1.50000000E+00
  1.50000000E+00  8.00000000E-01  8.00000000E-01  1.50000000E+00  1.50000000E+00
  8.00000000E-01  8.00000000E-01  1.50000000E+00  1.50000000E+00  8.00000000E-01
  8.00000000E-01  1.50000000E+00  1.50000000E+00  8.00000000E-01  8.00000000E-01
  1.50000000E+00  1.50000000E+00  8.00000000E-01  8.00000000E-01  1.50000000E+00
  1.50000000E+00  8.00000000E-01  8.00000000E-01  1.50000000E+00  1.50000000E+00
  8.00000000E-01  8.00000000E-01  1.50000000E+00  1.50000000E+00  8.00000000E-01
  8.00000000E-01  1.50000000E+00  1.50000000E+00  8.00000000E-01  8.00000000E-01
  1.50000000E+00  1.50000000E+00  8.00000000E-01  8.00000000E-01  1.50000000E+00
  1.50000000E+00  8.00000000E-01  8.00000000E-01  1.50000000E+00  1.50000000E+00
  8.00000000E-01  8.00000000E-01  1.50000000E+00  1.50000000E+00  8.00000000E-01
  8.00000000E-01  1.50000000E+00  1.50000000E+00  8.00000000E-01  8.00000000E-01
  1.50000000E+00  1.50000000E+00  8.00000000E-01  8.00000000E-01  1.50000000E+00
  1.50000000E+00  8.00000000E-01  8.00000000E-01  1.50000000E+00  1.50000000E+00
  8.00000000E-01  8.00000000E-01  1.50000000E+00  1.50000000E+00  8.00000000E-01
  8.00000000E-01  1.50000000E+00  1.50000000E+00  8.00000000E-01  8.00000000E-01
  1.50000000E+00  1.50000000E+00  8.00000000E-01  8.00000000E-01  1.50000000E+00
  1.50000000E+00  8.00000000E-01  8.00000000E-01  1.50000000E+00  1.50000000E+00
  8.00000000E-01  8.00000000E-01  1.50000000E+00  1.50000000E+00  8.00000000E-01
  8.00000000E-01  1.50000000E+00  1.50000000E+00  8.00000000E-01  8.00000000E-01
  1.50000000E+00  1.50000000E+00  8.00000000E-01  8.00000000E-01  1.50000000E+00
  1.50000000E+00  8.00000000E-01  8.00000000E-01  1.50000000E+00  1.50000000E+00
  8.00000000E-01  8.00000000E-01  1.50000000E+00  1.50000000E+00  8.00000000E-01
  8.00000000E-01  1.50000000E+00  1.50000000E+00  8.00000000E-01  8.00000000E-01
  1.50000000E+00  1.50000000E+00  8.00000000E-01  8.00000000E-01  1.50000000E+00
  1.50000000E+00  8.00000000E-01  8.00000000E-01  1.50000000E+00  1.50000000E+00
  8.00000000E-01  8.00000000E-01  1.50000000E+00  1.50000000E+00  8.00000000E-01
  8.00000000E-01  1.50000000E+00  1.50000000E+00  8.00000000E-01  8.00000000E-01
  1.50000000E+00  1.50000000E+00  8.00000000E-01  8.00000000E-01  1.50000000E+00
  1.50000000E+00  8.00000000E-01  8.00000000E-01  1.50000000E+00  1.50000000E+00
  8.00000000E-01  8.00000000E-01  1.50000000E+00  1.50000000E+00  8.00000000E-01
  8.00000000E-01  1.50000000E+00  1.50000000E+00  8.00000000E-01  8.00000000E-01
  1.50000000E+00  1.50000000E+00  8.00000000E-01  8.00000000E-01  1.50000000E+00
  1.50000000E+00  8.00000000E-01  8.00000000E-01  1.50000000E+00  1.50000000E+00
  8.00000000E-01  8.00000000E-01  1.50000000E+00  1.50000000E+00  8.00000000E-01
  8.00000000E-01  1.50000000E+00  1.50000000E+00  8.00000000E-01  8.00000000E-01
  1.50000000E+00  1.50000000E+00  8.00000000E-01  8.00000000E-01  1.50000000E+00
  1.50000000E+00  8.00000000E-01  8.00000000E-01  1.50000000E+00  1.50000000E+00
  8.00000000E-01  8.00000000E-01  1.50000000E+00  1.50000000E+00  8.00000000E-01
  8.00000000E-01  1.50000000E+00  1.50000000E+00  8.00000000E-01  8.00000000E-01
  1.50000000E+00  1.50000000E+00  8.00000000E-01  8.00000000E-01  1.50000000E+00
  1.50000000E+00  8.00000000E-01  8.00000000E-01  1.50000000E+00  1.50000000E+00
  8.00000000E-01  8.00000000E-01  1.50000000E+00  1.50000000E+00  8.00000000E-01
  8.00000000E-01  1.50000000E+00  1.50000000E+00  8.00000000E-01  8.00000000E-01
  1.50000000E+00  1.50000000E+00  8.00000000E-01  8.00000000E-01  1.50000000E+00
  1.50000000E+00  8.00000000E-01  8.00000000E-01  1.50000000E+00  1.50000000E+00
  8.00000000E-01  8.00000000E-01  1.50000000E+00  1.50000000E+00  8.00000000E-01
  8.00000000E-01  1.50000000E+00  1.50000000E+00  8.00000000E-01  8.00000000E-01
  1.50000000E+00  1.50000000E+00  8.00000000E-01  8.00000000E-01  1.50000000E+00
  1.50000000E+00  8.00000000E-01  8.00000000E-01  1.50000000E+00  1.50000000E+00
  8.00000000E-01  8.00000000E-01  1.50000000E+00  1.50000000E+00  8.00000000E-01
  8.00000000E-01  1.50000000E+00  1.50000000E+00  8.00000000E-01  8.00000000E-01
  1.50000000E+00  1.50000000E+00  8.00000000E-01  8.00000000E-01  1.50000000E+00
  1.50000000E+00  8.00000000E-01  8.00000000E-01  1.50000000E+00  1.50000000E+00
  8.00000000E-01  8.00000000E-01  1.50000000E+00  1.50000000E+00  8.00000000E-01
  8.00000000E-01  1.50000000E+00  1.50000000E+00  8.00000000E-01  8.00000000E-01
  1.50000000E+00  1.50000000E+00  8.00000000E-01  8.00000000E-01  1.50000000E+00
  1.50000000E+00  8.00000000E-01  8.00000000E-01  1.50000000E+00  1.50000000E+00
  8.00000000E-01  8.00000000E-01  1.50000000E+00  1.50000000E+00  8.00000000E-01
  8.00000000E-01  1.50000000E+00  1.50000000E+00  8.00000000E-01  8.00000000E-01
  1.50000000E+00  1.50000000E+00  8.00000000E-01  8.00000000E-01  1.50000000E+00
  1.50000000E+00  8.00000000E-01  8.00000000E-01  1.50000000E+00  1.50000000E+00
  8.00000000E-01  8.00000000E-01  1.50000000E+00  1.50000000E+00  8.00000000E-01
  8.00000000E-01  1.50000000E+00  1.50000000E+00  8.00000000E-01  8.00000000E-01
  1.50000000E+00  1.50000000E+00  8.00000000E-01  8.00000000E-01  1.50000000E+00
  1.50000000E+00  8.00000000E-01  8.00000000E-01  1.50000000E+00  1.50000000E+00
  8.00000000E-01  8.00000000E-01  1.50000000E+00  1.50000000E+00  8.00000000E-01
  8.00000000E-01  1.50000000E+00  1.50000000E+00  8.00000000E-01  8.00000000E-01
  1.50000000E+00  1.50000000E+00  8.00000000E-01  8.00000000E-01  1.50000000E+00
  1.50000000E+00  8.00000000E-01  8.00000000E-01  1.50000000E+00  1.50000000E+00
  8.00000000E-01  8.00000000E-01  1.50000000E+00  1.50000000E+00  8.00000000E-01
  8.00000000E-01  1.50000000E+00  1.50000000E+00  8.00000000E-01  8.00000000E-01
  1.50000000E+00  1.50000000E+00  8.00000000E-01  8.00000000E-01  1.50000000E+00
  1.50000000E+00  8.00000000E-01  8.00000000E-01  1.50000000E+00  1.50000000E+00
  8.00000000E-01  8.00000000E-01  1.50000000E+00  1.50000000E+00  8.00000000E-01
  8.00000000E-01  1.50000000E+00  1.50000000E+00  8.00000000E-01  8.00000000E-01
  1.50000000E+00  1.50000000E+00  8.00000000E-01  8.00000000E-01  1.50000000E+00
  1.50000000E+00  8.00000000E-01  8.00000000E-01  1.50000000E+00  1.50000000E+00
  8.00000000E-01  8.00000000E-01  1.50000000E+00  1.50000000E+00  8.00000000E-01
  8.00000000E-01  1.50000000E+00  1.50000000E+00  8.00000000E-01  8.00000000E-01
  1.50000000E+00  1.50000000E+00  8.00000000E-01  8.00000000E-01  1.50000000E+00
  1.50000000E+00  8.00000000E-01  8.00000000E-01  1.50000000E+00  1.50000000E+00
  8.00000000E-01  8.00000000E-01  1.50000000E+00  1.50000000E+00  8.00000000E-01
  8.00000000E-01  1.50000000E+00  1.50000000E+00  8.00000000E-01  8.00000000E-01
  1.50000000E+00  1.50000000E+00  8.00000000E-01  8.00000000E-01  1.50000000E+00
  1.50000000E+00  8.00000000E-01  8.00000000E-01  1.50000000E+00  1.50000000E+00
  8.00000000E-01  8.00000000E-01  1.50000000E+00  1.50000000E+00  8.00000000E-01
  8.00000000E-01  1.50000000E+00  1.50000000E+00  8.00000000E-01  8.00000000E-01
  1.50000000E+00  1.50000000E+00  8.00000000E-01  8.00000000E-01  1.50000000E+00
  1.50000000E+00  8.00000000E-01  8.00000000E-01  1.50000000E+00  1.50000000E+00
  8.00000000E-01  8.00000000E-01  1.50000000E+00  1.50000000E+00  8.00000000E-01
  8.00000000E-01  1.50000000E+00  1.50000000E+00  8.00000000E-01  8.00000000E-01
  1.50000000E+00  1.50000000E+00  8.00000000E-01  8.00000000E-01  1.50000000E+00
  1.50000000E+00  8.00000000E-01  8.00000000E-01  1.50000000E+00  1.50000000E+00
  8.00000000E-01  8.00000000E-01  1.50000000E+00  1.50000000E+00  8.00000000E-01
  8.00000000E-01  1.50000000E+00  1.50000000E+00  8.00000000E-01  8.00000000E-01
  1.50000000E+00  1.50000000E+00  8.00000000E-01  8.00000000E-01  1.50000000E+00
  1.50000000E+00  8.00000000E-01  8.00000000E-01  1.50000000E+00  1.50000000E+00
  8.00000000E-01  8.00000000E-01  1.50000000E+00  1.50000000E+00  8.00000000E-01
  8.00000000E-01  1.50000000E+00  1.50000000E+00  8.00000000E-01  8.00000000E-01
  1.50000000E+00  1.50000000E+00  8.00000000E-01  8.00000000E-01  1.50000000E+00
  1.50000000E+00  8.00000000E-01  8.00000000E-01  1.50000000E+00  1.50000000E+00
  8.00000000E-01  8.00000000E-01  1.50000000E+00  1.50000000E+00  8.00000000E-01
  8.00000000E-01  1.50000000E+00  1.50000000E+00  8.00000000E-01  8.00000000E-01
  1.50000000E+00  1.50000000E+00  8.00000000E-01  8.00000000E-01  1.50000000E+00
  1.50000000E+00  8.00000000E-01  8.00000000E-01  1.50000000E+00  1.50000000E+00
  8.00000000E-01  8.00000000E-01  1.50000000E+00  1.50000000E+00  8.00000000E-01
  8.00000000E-01  1.50000000E+00  1.50000000E+00  8.00000000E-01  8.00000000E-01
  1.50000000E+00  1.50000000E+00  8.00000000E-01  8.00000000E-01  1.50000000E+00
  1.50000000E+00  8.00000000E-01  8.00000000E-01  1.50000000E+00  1.50000000E+00
  8.00000000E-01  8.00000000E-01  1.50000000E+00  1.50000000E+00  8.00000000E-01
  8.00000000E-01  1.50000000E+00  1.50000000E+00  8.00000000E-01  8.00000000E-01
  1.50000000E+00  1.50000000E+00  8.00000000E-01  8.00000000E-01  1.50000000E+00
  1.50000000E+00  8.00000000E-01  8.00000000E-01  1.50000000E+00  1.50000000E+00
  8.00000000E-01  8.00000000E-01  1.50000000E+00  1.50000000E+00  8.00000000E-01
  8.00000000E-01  1.50000000E+00  1.50000000E+00  8.00000000E-01  8.00000000E-01
  1.50000000E+00  1.50000000E+00  8.00000000E-01  8.00000000E-01  1.50000000E+00
  1.50000000E+00  8.00000000E-01  8.00000000E-01  1.50000000E+00  1.50000000E+00
  8.00000000E-01  8.00000000E-01  1.50000000E+00  1.50000000E+00  8.00000000E-01
  8.00000000E-01  1.50000000E+00  1.50000000E+00  8.00000000E-01  8.00000000E-01
  1.50000000E+00  1.50000000E+00  8.00000000E-01  8.00000000E-01  1.50000000E+00
  1.50000000E+00  8.00000000E-01  8.00000000E-01  1.50000000E+00  1.50000000E+00
  8.00000000E-01  8.00000000E-01  1.50000000E+00  1.50000000E+00  8.00000000E-01
  8.00000000E-01  1.50000000E+00  1.50000000E+00  8.00000000E-01  8.00000000E-01
  1.50000000E+00  1.50000000E+00  8.00000000E-01  8.00000000E-01  1.50000000E+00
  1.50000000E+00  8.00000000E-01  8.00000000E-01  1.50000000E+00  1.50000000E+00
  8.00000000E-01  8.00000000E-01  1.50000000E+00  1.50000000E+00  8.00000000E-01
  8.00000000E-01  1.50000000E+00  1.50000000E+00  8.00000000E-01  8.00000000E-01
  1.50000000E+00  1.50000000E+00  8.00000000E-01  8.00000000E-01  1.50000000E+00
  1.50000000E+00  8.00000000E-01  8.00000000E-01  1.50000000E+00  1.50000000E+00
  8.00000000E-01  8.00000000E-01  1.50000000E+00  1.50000000E+00  8.00000000E-01
  8.00000000E-01  1.50000000E+00  1.50000000E+00  8.00000000E-01  8.00000000E-01
  1.50000000E+00  1.50000000E+00  8.00000000E-01  8.00000000E-01  1.50000000E+00
  1.50000000E+00  8.00000000E-01  8.00000000E-01  1.50000000E+00  1.50000000E+00
  8.00000000E-01  8.00000000E-01  1.50000000E+00  1.50000000E+00  8.00000000E-01
  8.00000000E-01  1.50000000E+00  1.50000000E+00  8.00000000E-01  8.00000000E-01
  1.50000000E+00  1.50000000E+00  8.00000000E-01  8.00000000E-01  1.50000000E+00
  1.50000000E+00  8.00000000E-01  8.00000000E-01  1.50000000E+00  1.50000000E+00
  8.00000000E-01  8.00000000E-01  1.50000000E+00  1.50000000E+00  8.00000000E-01
  8.00000000E-01  1.50000000E+00  1.50000000E+00  8.00000000E-01  8.00000000E-01
  1.50000000E+00  1.50000000E+00  8.00000000E-01  8.00000000E-01  1.50000000E+00
  1.50000000E+00  8.00000000E-01  8.00000000E-01  1.50000000E+00  1.50000000E+00
  8.00000000E-01  8.00000000E-01  1.50000000E+00  1.50000000E+00  8.00000000E-01
  8.00000000E-01  1.50000000E+00  1.50000000E+00  8.00000000E-01  8.00000000E-01
  1.50000000E+00  1.50000000E+00  8.00000000E-01  8.00000000E-01  1.50000000E+00
  1.50000000E+00  8.00000000E-01  8.00000000E-01  1.50000000E+00  1.50000000E+00
  8.00000000E-01  8.00000000E-01  1.50000000E+00  1.50000000E+00  8.00000000E-01
  8.00000000E-01  1.50000000E+00  1.50000000E+00  8.00000000E-01  8.00000000E-01
  1.50000000E+00  1.50000000E+00  8.00000000E-01  8.00000000E-01  1.50000000E+00
  1.50000000E+00  8.00000000E-01  8.00000000E-01  1.50000000E+00  1.50000000E+00
  8.00000000E-01  8.00000000E-01  1.50000000E+00  1.50000000E+00  8.00000000E-01
  8.00000000E-01  1.50000000E+00  1.50000000E+00  8.00000000E-01  8.00000000E-01
  1.50000000E+00  1.50000000E+00  8.00000000E-01  8.00000000E-01  1.50000000E+00
  1.50000000E+00  8.00000000E-01  8.00000000E-01  1.50000000E+00  1.50000000E+00
  8.00000000E-01  8.00000000E-01  1.50000000E+00  1.50000000E+00  8.00000000E-01
  8.00000000E-01  1.50000000E+00  1.50000000E+00  8.00000000E-01  8.00000000E-01
  1.50000000E+00  1.50000000E+00  8.00000000E-01  8.00000000E-01  1.50000000E+00
  1.50000000E+00  8.00000000E-01  8.00000000E-01  1.50000000E+00  1.50000000E+00
  8.00000000E-01  8.00000000E-01  1.50000000E+00  1.50000000E+00  8.00000000E-01
  8.00000000E-01  1.50000000E+00  1.50000000E+00  8.00000000E-01  8.00000000E-01
  1.50000000E+00  1.50000000E+00  8.00000000E-01  8.00000000E-01  1.50000000E+00
  1.50000000E+00  8.00000000E-01  8.00000000E-01  1.50000000E+00  1.50000000E+00
  8.00000000E-01  8.00000000E-01  1.50000000E+00  1.50000000E+00  8.00000000E-01
  8.00000000E-01  1.50000000E+00  1.50000000E+00  8.00000000E-01  8.00000000E-01
  1.50000000E+00  1.50000000E+00  8.00000000E-01  8.00000000E-01  1.50000000E+00
  1.50000000E+00  8.00000000E-01  8.00000000E-01  1.50000000E+00  1.50000000E+00
  8.00000000E-01  8.00000000E-01  1.50000000E+00  1.50000000E+00  8.00000000E-01
  8.00000000E-01  1.50000000E+00  1.50000000E+00  8.00000000E-01  8.00000000E-01
  1.50000000E+00  1.50000000E+00  8.00000000E-01  8.00000000E-01  1.50000000E+00
  1.50000000E+00  8.00000000E-01  8.00000000E-01  1.50000000E+00  1.50000000E+00
  8.00000000E-01  8.00000000E-01  1.50000000E+00  1.50000000E+00  8.00000000E-01
  8.00000000E-01  1.50000000E+00  1.50000000E+00  8.00000000E-01  8.00000000E-01
  1.50000000E+00  1.50000000E+00  8.00000000E-01  8.00000000E-01  1.50000000E+00
  1.50000000E+00  8.00000000E-01  8.00000000E-01  1.50000000E+00  1.50000000E+00
  8.00000000E-01  8.00000000E-01  1.50000000E+00  1.50000000E+00  8.00000000E-01
  8.00000000E-01  1.50000000E+00  1.50000000E+00  8.00000000E-01  8.00000000E-01
  1.50000000E+00  1.50000000E+00  8.00000000E-01  8.00000000E-01  1.50000000E+00
  1.50000000E+00  8.00000000E-01  8.00000000E-01  1.50000000E+00  1.50000000E+00
  8.00000000E-01  8.00000000E-01  1.50000000E+00  1.50000000E+00  8.00000000E-01
  8.00000000E-01  1.50000000E+00  1.50000000E+00  8.00000000E-01  8.00000000E-01
  1.50000000E+00  1.50000000E+00  8.00000000E-01  8.00000000E-01  1.50000000E+00
  1.50000000E+00  8.00000000E-01  8.00000000E-01  1.50000000E+00  1.50000000E+00
  8.00000000E-01  8.00000000E-01  1.50000000E+00  1.50000000E+00  8.00000000E-01
  8.00000000E-01  1.50000000E+00  1.50000000E+00  8.00000000E-01  8.00000000E-01
  1.50000000E+00  1.50000000E+00  8.00000000E-01  8.00000000E-01  1.50000000E+00
  1.50000000E+00  8.00000000E-01  8.00000000E-01  1.50000000E+00  1.50000000E+00
  8.00000000E-01  8.00000000E-01  1.50000000E+00  1.50000000E+00  8.00000000E-01
  8.00000000E-01  1.50000000E+00  1.50000000E+00  8.00000000E-01  8.00000000E-01
  1.50000000E+00  1.50000000E+00  8.00000000E-01  8.00000000E-01  1.50000000E+00
  1.50000000E+00  8.00000000E-01  8.00000000E-01  1.50000000E+00  1.50000000E+00
  8.00000000E-01  8.00000000E-01  1.50000000E+00  1.50000000E+00  8.00000000E-01
  8.00000000E-01  1.50000000E+00  1.50000000E+00  8.00000000E-01  8.00000000E-01
  1.50000000E+00  1.50000000E+00  8.00000000E-01  8.00000000E-01  1.50000000E+00
  1.50000000E+00  8.00000000E-01  8.00000000E-01  1.50000000E+00  1.50000000E+00
  8.00000000E-01  8.00000000E-01  1.50000000E+00  1.50000000E+00  8.00000000E-01
  8.00000000E-01  1.50000000E+00  1.50000000E+00  8.00000000E-01  8.00000000E-01
  1.50000000E+00  1.50000000E+00  8.00000000E-01  8.00000000E-01  1.50000000E+00
  1.50000000E+00  8.00000000E-01  8.00000000E-01  1.50000000E+00  1.50000000E+00
  8.00000000E-01  8.00000000E-01  1.50000000E+00  1.50000000E+00  8.00000000E-01
  8.00000000E-01  1.50000000E+00  1.50000000E+00  8.00000000E-01  8.00000000E-01
  1.50000000E+00  1.50000000E+00  8.00000000E-01  8.00000000E-01  1.50000000E+00
  1.50000000E+00  8.00000000E-01  8.00000000E-01  1.50000000E+00  1.50000000E+00
  8.00000000E-01  8.00000000E-01  1.50000000E+00  1.50000000E+00  8.00000000E-01
  8.00000000E-01  1.50000000E+00  1.50000000E+00  8.00000000E-01  8.00000000E-01
  1.50000000E+00  1.50000000E+00  8.00000000E-01  8.00000000E-01  1.50000000E+00
  1.50000000E+00  8.00000000E-01  8.00000000E-01  1.50000000E+00  1.50000000E+00
  8.00000000E-01  8.00000000E-01  1.50000000E+00  1.50000000E+00  8.00000000E-01
  8.00000000E-01  1.50000000E+00  1.50000000E+00  8.00000000E-01  8.00000000E-01
  1.50000000E+00  1.50000000E+00  8.00000000E-01  8.00000000E-01  1.50000000E+00
  1.50000000E+00  8.00000000E-01  8.00000000E-01  1.50000000E+00  1.50000000E+00
  8.00000000E-01  8.00000000E-01  1.50000000E+00  1.50000000E+00  8.00000000E-01
  8.00000000E-01  1.50000000E+00  1.50000000E+00  8.00000000E-01  8.00000000E-01
  1.50000000E+00  1.50000000E+00  8.00000000E-01  8.00000000E-01  1.50000000E+00
  1.50000000E+00  8.00000000E-01  8.00000000E-01  1.50000000E+00  1.50000000E+00
  8.00000000E-01  8.00000000E-01  1.50000000E+00  1.50000000E+00  8.00000000E-01
  8.00000000E-01  1.50000000E+00  1.50000000E+00  8.00000000E-01  8.00000000E-01
  1.50000000E+00  1.50000000E+00  8.00000000E-01  8.00000000E-01  1.50000000E+00
  1.50000000E+00  8.00000000E-01  8.00000000E-01  1.50000000E+00  1.50000000E+00
  8.00000000E-01  8.00000000E-01  1.50000000E+00  1.50000000E+00  8.00000000E-01
  8.00000000E-01  1.50000000E+00  1.50000000E+00  8.00000000E-01  8.00000000E-01
  1.50000000E+00  1.50000000E+00  8.00000000E-01  8.00000000E-01  1.50000000E+00
  1.50000000E+00  8.00000000E-01  8.00000000E-01  1.50000000E+00  1.50000000E+00
  8.00000000E-01  8.00000000E-01  1.50000000E+00  1.50000000E+00  8.00000000E-01
  8.00000000E-01  1.50000000E+00  1.50000000E+00  8.00000000E-01  8.00000000E-01
  1.50000000E+00  1.50000000E+00  8.00000000E-01  8.00000000E-01  1.50000000E+00
  1.50000000E+00  8.00000000E-01  8.00000000E-01  1.50000000E+00  1.50000000E+00
  8.00000000E-01  8.00000000E-01  1.50000000E+00  1.50000000E+00  8.00000000E-01
  8.00000000E-01  1.50000000E+00  1.50000000E+00  8.00000000E-01  8.00000000E-01
  1.50000000E+00  1.50000000E+00  8.00000000E-01  8.00000000E-01  1.50000000E+00
  1.50000000E+00  8.00000000E-01  8.00000000E-01  1.50000000E+00  1.50000000E+00
  8.00000000E-01  8.00000000E-01  1.50000000E+00  1.50000000E+00  8.00000000E-01
  8.00000000E-01  1.50000000E+00  1.50000000E+00  8.00000000E-01  8.00000000E-01
  1.50000000E+00  1.50000000E+00  8.00000000E-01  8.00000000E-01  1.50000000E+00
  1.50000000E+00  8.00000000E-01  8.00000000E-01  1.50000000E+00  1.50000000E+00
  8.00000000E-01  8.00000000E-01  1.50000000E+00  1.50000000E+00  8.00000000E-01
  8.00000000E-01  1.50000000E+00  1.50000000E+00  8.00000000E-01  8.00000000E-01
  1.50000000E+00  1.50000000E+00  8.00000000E-01  8.00000000E-01  1.50000000E+00
  1.50000000E+00  8.00000000E-01  8.00000000E-01  1.50000000E+00  1.50000000E+00
  8.00000000E-01  8.00000000E-01  1.50000000E+00  1.50000000E+00  8.00000000E-01
  8.00000000E-01  1.50000000E+00  1.50000000E+00  8.00000000E-01  8.00000000E-01
  1.50000000E+00  1.50000000E+00  8.00000000E-01  8.00000000E-01  1.50000000E+00
  1.50000000E+00  8.00000000E-01  8.00000000E-01  1.50000000E+00  1.50000000E+00
  8.00000000E-01  8.00000000E-01  1.50000000E+00  1.50000000E+00  8.00000000E-01
  8.00000000E-01  1.50000000E+00  1.50000000E+00  8.00000000E-01  8.00000000E-01
  1.50000000E+00  1.50000000E+00  8.00000000E-01  8.00000000E-01  1.50000000E+00
  1.50000000E+00  8.00000000E-01  8.00000000E-01  1.50000000E+00  1.50000000E+00
  8.00000000E-01  8.00000000E-01  1.50000000E+00  1.50000000E+00  8.00000000E-01
  8.00000000E-01  1.50000000E+00  1.50000000E+00  8.00000000E-01  8.00000000E-01
  1.50000000E+00  1.50000000E+00  8.00000000E-01  8.00000000E-01  1.50000000E+00
  1.50000000E+00  8.00000000E-01  8.00000000E-01  1.50000000E+00  1.50000000E+00
  8.00000000E-01  8.00000000E-01  1.50000000E+00  1.50000000E+00  8.00000000E-01
  8.00000000E-01  1.50000000E+00  1.50000000E+00  8.00000000E-01  8.00000000E-01
  1.50000000E+00  1.50000000E+00  8.00000000E-01  8.00000000E-01  1.50000000E+00
  1.50000000E+00  8.00000000E-01  8.00000000E-01  1.50000000E+00  1.50000000E+00
  8.00000000E-01  8.00000000E-01  1.50000000E+00  1.50000000E+00  8.00000000E-01
  8.00000000E-01  1.50000000E+00  1.50000000E+00  8.00000000E-01  8.00000000E-01
  1.50000000E+00  1.50000000E+00  8.00000000E-01  8.00000000E-01  1.50000000E+00
  1.50000000E+00  8.00000000E-01  8.00000000E-01  1.50000000E+00  1.50000000E+00
  8.00000000E-01  8.00000000E-01  1.50000000E+00  1.50000000E+00  8.00000000E-01
  8.00000000E-01  1.50000000E+00  1.50000000E+00  8.00000000E-01  8.00000000E-01
  1.50000000E+00  1.50000000E+00  8.00000000E-01  8.00000000E-01  1.50000000E+00
  1.50000000E+00  8.00000000E-01  8.00000000E-01  1.50000000E+00  1.50000000E+00
  8.00000000E-01  8.00000000E-01  1.50000000E+00  1.50000000E+00  8.00000000E-01
  8.00000000E-01  1.50000000E+00  1.50000000E+00  8.00000000E-01  8.00000000E-01
  1.50000000E+00  1.50000000E+00  8.00000000E-01  8.00000000E-01  1.50000000E+00
  1.50000000E+00  8.00000000E-01  8.00000000E-01  1.50000000E+00  1.50000000E+00
  8.00000000E-01  8.00000000E-01  1.50000000E+00  1.50000000E+00  8.00000000E-01
  8.00000000E-01  1.50000000E+00  1.50000000E+00  8.00000000E-01  8.00000000E-01
  1.50000000E+00  1.50000000E+00  8.00000000E-01  8.00000000E-01  1.50000000E+00
  1.50000000E+00  8.00000000E-01  8.00000000E-01  1.50000000E+00  1.50000000E+00
  8.00000000E-01  8.00000000E-01  1.50000000E+00  1.50000000E+00  8.00000000E-01
  8.00000000E-01  1.50000000E+00  1.50000000E+00  8.00000000E-01  8.00000000E-01
  1.50000000E+00  1.50000000E+00  8.00000000E-01  8.00000000E-01  1.50000000E+00
  1.50000000E+00  8.00000000E-01  8.00000000E-01  1.50000000E+00  1.50000000E+00
  8.00000000E-01  8.00000000E-01  1.50000000E+00  1.50000000E+00  8.00000000E-01
  8.00000000E-01  1.50000000E+00  1.50000000E+00  8.00000000E-01  8.00000000E-01
  1.50000000E+00  1.50000000E+00  8.00000000E-01  8.00000000E-01  1.50000000E+00
  1.50000000E+00  8.00000000E-01  8.00000000E-01  1.50000000E+00  1.50000000E+00
  8.00000000E-01  8.00000000E-01  1.50000000E+00  1.50000000E+00  8.00000000E-01
  8.00000000E-01  1.50000000E+00  1.50000000E+00  8.00000000E-01  8.00000000E-01
  1.50000000E+00  1.50000000E+00  8.00000000E-01  8.00000000E-01  1.50000000E+00
  1.50000000E+00  8.00000000E-01  8.00000000E-01  1.50000000E+00  1.50000000E+00
  8.00000000E-01  8.00000000E-01  1.50000000E+00  1.50000000E+00  8.00000000E-01
  8.00000000E-01  1.50000000E+00  1.50000000E+00  8.00000000E-01  8.00000000E-01
  1.50000000E+00  1.50000000E+00  8.00000000E-01  8.00000000E-01  1.50000000E+00
  1.50000000E+00  8.00000000E-01  8.00000000E-01  1.50000000E+00  1.50000000E+00
  8.00000000E-01  8.00000000E-01  1.50000000E+00  1.50000000E+00  8.00000000E-01
  8.00000000E-01  1.50000000E+00  1.50000000E+00  8.00000000E-01  8.00000000E-01
  1.50000000E+00  1.50000000E+00  8.00000000E-01  8.00000000E-01  1.50000000E+00
  1.50000000E+00  8.00000000E-01  8.00000000E-01  1.50000000E+00  1.50000000E+00
  8.00000000E-01  8.00000000E-01  1.50000000E+00  1.50000000E+00  8.00000000E-01
  8.00000000E-01  1.50000000E+00  1.50000000E+00  8.00000000E-01  8.00000000E-01
  1.50000000E+00  1.50000000E+00  8.00000000E-01  8.00000000E-01  1.50000000E+00
  1.50000000E+00  8.00000000E-01  8.00000000E-01  1.50000000E+00  1.50000000E+00
  8.00000000E-01  8.00000000E-01  1.50000000E+00  1.50000000E+00  8.00000000E-01
  8.00000000E-01  1.50000000E+00  1.50000000E+00  8.00000000E-01  8.00000000E-01
  1.50000000E+00  1.50000000E+00  8.00000000E-01  8.00000000E-01  1.50000000E+00
  1.50000000E+00  8.00000000E-01  8.00000000E-01  1.50000000E+00  1.50000000E+00
  8.00000000E-01  8.00000000E-01  1.50000000E+00  1.50000000E+00  8.00000000E-01
  8.00000000E-01  1.50000000E+00  1.50000000E+00  8.00000000E-01  8.00000000E-01
  1.50000000E+00  1.50000000E+00  8.00000000E-01  8.00000000E-01  1.50000000E+00
  1.50000000E+00  8.00000000E-01  8.00000000E-01  1.50000000E+00  1.50000000E+00
  8.00000000E-01  8.00000000E-01  1.50000000E+00  1.50000000E+00  8.00000000E-01
  8.00000000E-01  1.50000000E+00  1.50000000E+00  8.00000000E-01  8.00000000E-01
  1.50000000E+00  1.50000000E+00  8.00000000E-01  8.00000000E-01  1.50000000E+00
  1.50000000E+00  8.00000000E-01  8.00000000E-01  1.50000000E+00  1.50000000E+00
  8.00000000E-01  8.00000000E-01  1.50000000E+00  1.50000000E+00  8.00000000E-01
  8.00000000E-01  1.50000000E+00  1.50000000E+00  8.00000000E-01  8.00000000E-01
  1.50000000E+00  1.50000000E+00  8.00000000E-01  8.00000000E-01  1.50000000E+00
  1.50000000E+00  8.00000000E-01  8.00000000E-01  1.50000000E+00  1.50000000E+00
  8.00000000E-01  8.00000000E-01  1.50000000E+00  1.50000000E+00  8.00000000E-01
  8.00000000E-01  1.50000000E+00  1.50000000E+00  8.00000000E-01  8.00000000E-01
  1.50000000E+00  1.50000000E+00  8.00000000E-01  8.00000000E-01  1.50000000E+00
  1.50000000E+00  8.00000000E-01  8.00000000E-01  1.50000000E+00  1.50000000E+00
  8.00000000E-01  8.00000000E-01  1.50000000E+00  1.50000000E+00  8.00000000E-01
  8.00000000E-01  1.50000000E+00  1.50000000E+00  8.00000000E-01  8.00000000E-01
  1.50000000E+00  1.50000000E+00  8.00000000E-01  8.00000000E-01  1.50000000E+00
  1.50000000E+00  8.00000000E-01  8.00000000E-01  1.50000000E+00  1.50000000E+00
  8.00000000E-01  8.00000000E-01  1.50000000E+00  1.50000000E+00  8.00000000E-01
  8.00000000E-01  1.50000000E+00  1.50000000E+00  8.00000000E-01  8.00000000E-01
  1.50000000E+00  1.50000000E+00  8.00000000E-01  8.00000000E-01  1.50000000E+00
  1.50000000E+00  8.00000000E-01  8.00000000E-01  1.50000000E+00  1.50000000E+00
  8.00000000E-01  8.00000000E-01  1.50000000E+00  1.50000000E+00  8.00000000E-01
  8.00000000E-01  1.50000000E+00  1.50000000E+00  8.00000000E-01  8.00000000E-01
  1.50000000E+00  1.50000000E+00  8.00000000E-01  8.00000000E-01  1.50000000E+00
  1.50000000E+00  8.00000000E-01  8.00000000E-01  1.50000000E+00  1.50000000E+00
  8.00000000E-01  8.00000000E-01  1.50000000E+00  1.50000000E+00  8.00000000E-01
  8.00000000E-01  1.50000000E+00  1.50000000E+00  8.00000000E-01  8.00000000E-01
  1.50000000E+00  1.50000000E+00  8.00000000E-01  8.00000000E-01  1.50000000E+00
  1.50000000E+00  8.00000000E-01  8.00000000E-01  1.50000000E+00  1.50000000E+00
  8.00000000E-01  8.00000000E-01  1.50000000E+00  1.50000000E+00  8.00000000E-01
  8.00000000E-01  1.50000000E+00  1.50000000E+00  8.00000000E-01  8.00000000E-01
  1.50000000E+00  1.50000000E+00  8.00000000E-01  8.00000000E-01  1.50000000E+00
  1.50000000E+00  8.00000000E-01  8.00000000E-01  1.50000000E+00  1.50000000E+00
  8.00000000E-01  8.00000000E-01  1.50000000E+00  1.50000000E+00  8.00000000E-01
  8.00000000E-01  1.50000000E+00  1.50000000E+00  8.00000000E-01  8.00000000E-01
  1.50000000E+00  1.50000000E+00  8.00000000E-01  8.00000000E-01  1.50000000E+00
  1.50000000E+00  8.00000000E-01  8.00000000E-01  1.50000000E+00  1.50000000E+00
  8.00000000E-01  8.00000000E-01  1.50000000E+00  1.50000000E+00  8.00000000E-01
  8.00000000E-01  1.50000000E+00  1.50000000E+00  8.00000000E-01  8.00000000E-01
  1.50000000E+00  1.50000000E+00  8.00000000E-01  8.00000000E-01  1.50000000E+00
  1.50000000E+00  8.00000000E-01  8.00000000E-01  1.50000000E+00  1.50000000E+00
  8.00000000E-01  8.00000000E-01  1.50000000E+00  1.50000000E+00  8.00000000E-01
  8.00000000E-01  1.50000000E+00  1.50000000E+00  8.00000000E-01  8.00000000E-01
  1.50000000E+00  1.50000000E+00  8.00000000E-01  8.00000000E-01  1.50000000E+00
  1.50000000E+00  8.00000000E-01  8.00000000E-01  1.50000000E+00  1.50000000E+00
  8.00000000E-01  8.00000000E-01  1.50000000E+00  1.50000000E+00  8.00000000E-01
  8.00000000E-01  1.50000000E+00  1.50000000E+00  8.00000000E-01  8.00000000E-01
  1.50000000E+00  1.50000000E+00  8.00000000E-01  8.00000000E-01  1.50000000E+00
  1.50000000E+00  8.00000000E-01  8.00000000E-01  1.50000000E+00  1.50000000E+00
  8.00000000E-01  8.00000000E-01  1.50000000E+00  1.50000000E+00  8.00000000E-01
  8.00000000E-01  1.50000000E+00  1.50000000E+00  8.00000000E-01  8.00000000E-01
  1.50000000E+00  1.50000000E+00  8.00000000E-01  8.00000000E-01  1.50000000E+00
  1.50000000E+00  8.00000000E-01  8.00000000E-01  1.50000000E+00  1.50000000E+00
  8.00000000E-01  8.00000000E-01  1.50000000E+00  1.50000000E+00  8.00000000E-01
  8.00000000E-01  1.50000000E+00  1.50000000E+00  8.00000000E-01  8.00000000E-01
  1.50000000E+00  1.50000000E+00  8.00000000E-01  8.00000000E-01  1.50000000E+00
  1.50000000E+00  8.00000000E-01  8.00000000E-01  1.50000000E+00  1.50000000E+00
  8.00000000E-01  8.00000000E-01  1.50000000E+00  1.50000000E+00  8.00000000E-01
  8.00000000E-01  1.50000000E+00  1.50000000E+00  8.00000000E-01  8.00000000E-01
  1.50000000E+00  1.50000000E+00  8.00000000E-01  8.00000000E-01  1.50000000E+00
  1.50000000E+00  8.00000000E-01  8.00000000E-01  1.50000000E+00  1.50000000E+00
  8.00000000E-01  8.00000000E-01  1.50000000E+00  1.50000000E+00  8.00000000E-01
  8.00000000E-01  1.50000000E+00  1.50000000E+00  8.00000000E-01  8.00000000E-01
  1.50000000E+00  1.50000000E+00  8.00000000E-01  8.00000000E-01  1.50000000E+00
  1.50000000E+00  8.00000000E-01  8.00000000E-01  1.50000000E+00  1.50000000E+00
  8.00000000E-01  8.00000000E-01  1.50000000E+00  1.50000000E+00  8.00000000E-01
  8.00000000E-01  1.50000000E+00  1.50000000E+00  8.00000000E-01  8.00000000E-01
  1.50000000E+00  1.50000000E+00  8.00000000E-01  8.00000000E-01  1.50000000E+00
  1.50000000E+00  8.00000000E-01  8.00000000E-01  1.50000000E+00  1.50000000E+00
  8.00000000E-01  8.00000000E-01  1.50000000E+00  1.50000000E+00  8.00000000E-01
  8.00000000E-01  1.50000000E+00  1.50000000E+00  8.00000000E-01  8.00000000E-01
  1.50000000E+00  1.50000000E+00  8.00000000E-01  8.00000000E-01  1.50000000E+00
  1.50000000E+00  8.00000000E-01  8.00000000E-01  1.50000000E+00  1.50000000E+00
  8.00000000E-01  8.00000000E-01  1.50000000E+00  1.50000000E+00  8.00000000E-01
  8.00000000E-01  1.50000000E+00  1.50000000E+00  8.00000000E-01  8.00000000E-01
  1.50000000E+00  1.50000000E+00  8.00000000E-01  8.00000000E-01  1.50000000E+00
  1.50000000E+00  8.00000000E-01  8.00000000E-01  1.50000000E+00  1.50000000E+00
  8.00000000E-01  8.00000000E-01  1.50000000E+00  1.50000000E+00  8.00000000E-01
  8.00000000E-01  1.50000000E+00  1.50000000E+00  8.00000000E-01  8.00000000E-01
  1.50000000E+00  1.50000000E+00  8.00000000E-01  8.00000000E-01  1.50000000E+00
  1.50000000E+00  8.00000000E-01  8.00000000E-01  1.50000000E+00  1.50000000E+00
  8.00000000E-01  8.00000000E-01  1.50000000E+00  1.50000000E+00  8.00000000E-01
  8.00000000E-01  1.50000000E+00  1.50000000E+00  8.00000000E-01  8.00000000E-01
  1.50000000E+00  1.50000000E+00  8.00000000E-01  8.00000000E-01  1.50000000E+00
  1.50000000E+00  8.00000000E-01  8.00000000E-01  1.50000000E+00  1.50000000E+00
  8.00000000E-01  8.00000000E-01  1.50000000E+00  1.50000000E+00  8.00000000E-01
  8.00000000E-01  1.50000000E+00  1.50000000E+00  8.00000000E-01  8.00000000E-01
  1.50000000E+00  1.50000000E+00  8.00000000E-01  8.00000000E-01  1.50000000E+00
  1.50000000E+00  8.00000000E-01  8.00000000E-01  1.50000000E+00  1.50000000E+00
  8.00000000E-01  8.00000000E-01  1.50000000E+00  1.50000000E+00  8.00000000E-01
  8.00000000E-01  1.50000000E+00  1.50000000E+00  8.00000000E-01  8.00000000E-01
  1.50000000E+00  1.50000000E+00  8.00000000E-01  8.00000000E-01  1.50000000E+00
  1.50000000E+00  8.00000000E-01  8.00000000E-01  1.50000000E+00  1.50000000E+00
  8.00000000E-01  8.00000000E-01  1.50000000E+00  1.50000000E+00  8.00000000E-01
  8.00000000E-01  1.50000000E+00  1.50000000E+00  8.00000000E-01  8.00000000E-01
  1.50000000E+00  1.50000000E+00  8.00000000E-01  8.00000000E-01  1.50000000E+00
  1.50000000E+00  8.00000000E-01  8.00000000E-01  1.50000000E+00  1.50000000E+00
  8.00000000E-01  8.00000000E-01  1.50000000E+00  1.50000000E+00  8.00000000E-01
  8.00000000E-01  1.50000000E+00  1.50000000E+00  8.00000000E-01  8.00000000E-01
  1.50000000E+00  1.50000000E+00  8.00000000E-01  8.00000000E-01  1.50000000E+00
  1.50000000E+00  8.00000000E-01  8.00000000E-01  1.50000000E+00  1.50000000E+00
  8.00000000E-01  8.00000000E-01  1.50000000E+00  1.50000000E+00  8.00000000E-01
  8.00000000E-01  1.50000000E+00  1.50000000E+00  8.00000000E-01  8.00000000E-01
  1.50000000E+00  1.50000000E+00  8.00000000E-01  8.00000000E-01  1.50000000E+00
  1.50000000E+00  8.00000000E-01  8.00000000E-01  1.50000000E+00  1.50000000E+00
  8.00000000E-01  8.00000000E-01  1.50000000E+00  1.50000000E+00  8.00000000E-01
  8.00000000E-01  1.50000000E+00  1.50000000E+00  8.00000000E-01  8.00000000E-01
  1.50000000E+00  1.50000000E+00  8.00000000E-01  8.00000000E-01  1.50000000E+00
  1.50000000E+00  8.00000000E-01  8.00000000E-01  1.50000000E+00  1.50000000E+00
  8.00000000E-01  8.00000000E-01  1.50000000E+00  1.50000000E+00  8.00000000E-01
  8.00000000E-01  1.50000000E+00  1.50000000E+00  8.00000000E-01  8.00000000E-01
  1.50000000E+00  1.50000000E+00  8.00000000E-01  8.00000000E-01  1.50000000E+00
  1.50000000E+00  8.00000000E-01  8.00000000E-01  1.50000000E+00  1.50000000E+00
  8.00000000E-01  8.00000000E-01  1.50000000E+00  1.50000000E+00  8.00000000E-01
  8.00000000E-01  1.50000000E+00  1.50000000E+00  8.00000000E-01  8.00000000E-01
  1.50000000E+00  1.50000000E+00  8.00000000E-01  8.00000000E-01  1.50000000E+00
  1.50000000E+00  8.00000000E-01  8.00000000E-01  1.50000000E+00  1.50000000E+00
  8.00000000E-01  8.00000000E-01  1.50000000E+00  1.50000000E+00  8.00000000E-01
  8.00000000E-01  1.50000000E+00  1.50000000E+00  8.00000000E-01  8.00000000E-01
  1.50000000E+00  1.50000000E+00  8.00000000E-01  8.00000000E-01  1.50000000E+00
  1.50000000E+00  8.00000000E-01  8.00000000E-01  1.50000000E+00  1.50000000E+00
  8.00000000E-01  8.00000000E-01  1.50000000E+00  1.50000000E+00  8.00000000E-01
  8.00000000E-01  1.50000000E+00  1.50000000E+00  8.00000000E-01  8.00000000E-01
  1.50000000E+00  1.50000000E+00  8.00000000E-01  8.00000000E-01  1.50000000E+00
  1.50000000E+00  8.00000000E-01  8.00000000E-01  1.50000000E+00  1.50000000E+00
  8.00000000E-01  8.00000000E-01  1.50000000E+00  1.50000000E+00  8.00000000E-01
  8.00000000E-01  1.50000000E+00  1.50000000E+00  8.00000000E-01  8.00000000E-01
  1.50000000E+00  1.50000000E+00  8.00000000E-01  8.00000000E-01  1.50000000E+00
  1.50000000E+00  8.00000000E-01  8.00000000E-01  1.50000000E+00  1.50000000E+00
  8.00000000E-01  8.00000000E-01  1.50000000E+00  1.50000000E+00  8.00000000E-01
  8.00000000E-01  1.50000000E+00  1.50000000E+00  8.00000000E-01  8.00000000E-01
  1.50000000E+00  1.50000000E+00  8.00000000E-01  8.00000000E-01  1.50000000E+00
  1.50000000E+00  8.00000000E-01  8.00000000E-01  1.50000000E+00  1.50000000E+00
  8.00000000E-01  8.00000000E-01  1.50000000E+00  1.50000000E+00  8.00000000E-01
  8.00000000E-01  1.50000000E+00  1.50000000E+00  8.00000000E-01  8.00000000E-01
  1.50000000E+00  1.50000000E+00  8.00000000E-01  8.00000000E-01  1.50000000E+00
  1.50000000E+00  8.00000000E-01  8.00000000E-01  1.50000000E+00  1.50000000E+00
  8.00000000E-01  8.00000000E-01  1.50000000E+00  1.50000000E+00  8.00000000E-01
  8.00000000E-01  1.50000000E+00  1.50000000E+00  8.00000000E-01  8.00000000E-01
  1.50000000E+00  1.50000000E+00  8.00000000E-01  8.00000000E-01  1.50000000E+00
  1.50000000E+00  8.00000000E-01  8.00000000E-01  1.50000000E+00  1.50000000E+00
  8.00000000E-01  8.00000000E-01  1.50000000E+00  1.50000000E+00  8.00000000E-01
  8.00000000E-01  1.50000000E+00  1.50000000E+00  8.00000000E-01  8.00000000E-01
  1.50000000E+00  1.50000000E+00  8.00000000E-01  8.00000000E-01  1.50000000E+00
  1.50000000E+00  8.00000000E-01  8.00000000E-01  1.50000000E+00  1.50000000E+00
  8.00000000E-01  8.00000000E-01  1.50000000E+00  1.50000000E+00  8.00000000E-01
  8.00000000E-01  1.50000000E+00  1.50000000E+00  8.00000000E-01  8.00000000E-01
  1.50000000E+00  1.50000000E+00  8.00000000E-01  8.00000000E-01  1.50000000E+00
  1.50000000E+00  8.00000000E-01  8.00000000E-01  1.50000000E+00  1.50000000E+00
  8.00000000E-01  8.00000000E-01  1.50000000E+00  1.50000000E+00  8.00000000E-01
  8.00000000E-01  1.50000000E+00  1.50000000E+00  8.00000000E-01  8.00000000E-01
  1.50000000E+00  1.50000000E+00  8.00000000E-01  8.00000000E-01  1.50000000E+00
  1.50000000E+00  8.00000000E-01  8.00000000E-01  1.50000000E+00  1.50000000E+00
  8.00000000E-01  8.00000000E-01  1.50000000E+00  1.50000000E+00  8.00000000E-01
  8.00000000E-01  1.50000000E+00  1.50000000E+00  8.00000000E-01  8.00000000E-01
  1.50000000E+00  1.50000000E+00  8.00000000E-01  8.00000000E-01  1.50000000E+00
  1.50000000E+00  8.00000000E-01  8.00000000E-01  1.50000000E+00  1.50000000E+00
  8.00000000E-01  8.00000000E-01  1.50000000E+00  1.50000000E+00  8.00000000E-01
  8.00000000E-01  1.50000000E+00  1.50000000E+00  8.00000000E-01  8.00000000E-01
  1.50000000E+00  1.50000000E+00  8.00000000E-01  8.00000000E-01  1.50000000E+00
  1.50000000E+00  8.00000000E-01  8.00000000E-01  1.50000000E+00  1.50000000E+00
  8.00000000E-01  8.00000000E-01  1.50000000E+00  1.50000000E+00  8.00000000E-01
  8.00000000E-01  1.50000000E+00  1.50000000E+00  8.00000000E-01  8.00000000E-01
  1.50000000E+00  1.50000000E+00  8.00000000E-01  8.00000000E-01  1.50000000E+00
  1.50000000E+00  8.00000000E-01  8.00000000E-01  1.50000000E+00  1.50000000E+00
  8.00000000E-01  8.00000000E-01  1.50000000E+00  1.50000000E+00  8.00000000E-01
  8.00000000E-01  1.50000000E+00  1.50000000E+00  8.00000000E-01  8.00000000E-01
  1.50000000E+00  1.50000000E+00  8.00000000E-01  8.00000000E-01  1.50000000E+00
  1.50000000E+00  8.00000000E-01  8.00000000E-01  1.50000000E+00  1.50000000E+00
  8.00000000E-01  8.00000000E-01  1.50000000E+00  1.50000000E+00  8.00000000E-01
  8.00000000E-01  1.50000000E+00  1.50000000E+00  8.00000000E-01  8.00000000E-01
  1.50000000E+00  1.50000000E+00  8.00000000E-01  8.00000000E-01  1.50000000E+00
  1.50000000E+00  8.00000000E-01  8.00000000E-01  1.50000000E+00  1.50000000E+00
  8.00000000E-01  8.00000000E-01  1.50000000E+00  1.50000000E+00  8.00000000E-01
  8.00000000E-01  1.50000000E+00  1.50000000E+00  8.00000000E-01  8.00000000E-01
  1.50000000E+00  1.50000000E+00  8.00000000E-01  8.00000000E-01  1.50000000E+00
  1.50000000E+00  8.00000000E-01  8.00000000E-01  1.50000000E+00  1.50000000E+00
  8.00000000E-01  8.00000000E-01  1.50000000E+00  1.50000000E+00  8.00000000E-01
  8.00000000E-01  1.50000000E+00  1.50000000E+00  8.00000000E-01  8.00000000E-01
  1.50000000E+00  1.50000000E+00  8.00000000E-01  8.00000000E-01  1.50000000E+00
  1.50000000E+00  8.00000000E-01  8.00000000E-01  1.50000000E+00  1.50000000E+00
  8.00000000E-01  8.00000000E-01  1.50000000E+00  1.50000000E+00  8.00000000E-01
  8.00000000E-01  1.50000000E+00  1.50000000E+00  8.00000000E-01  8.00000000E-01
  1.50000000E+00  1.50000000E+00  8.00000000E-01  8.00000000E-01  1.50000000E+00
  1.50000000E+00  8.00000000E-01  8.00000000E-01  1.50000000E+00  1.50000000E+00
  8.00000000E-01  8.00000000E-01  1.50000000E+00  1.50000000E+00  8.00000000E-01
  8.00000000E-01  1.50000000E+00  1.50000000E+00  8.00000000E-01  8.00000000E-01
  1.50000000E+00  1.50000000E+00  8.00000000E-01  8.00000000E-01  1.50000000E+00
  1.50000000E+00  8.00000000E-01  8.00000000E-01  1.50000000E+00  1.50000000E+00
  8.00000000E-01  8.00000000E-01  1.50000000E+00  1.50000000E+00  8.00000000E-01
  8.00000000E-01  1.50000000E+00  1.50000000E+00  8.00000000E-01  8.00000000E-01
  1.50000000E+00  1.50000000E+00  8.00000000E-01  8.00000000E-01  1.50000000E+00
  1.50000000E+00  8.00000000E-01  8.00000000E-01  1.50000000E+00  1.50000000E+00
  8.00000000E-01  8.00000000E-01  1.50000000E+00  1.50000000E+00  8.00000000E-01
  8.00000000E-01  1.50000000E+00  1.50000000E+00  8.00000000E-01  8.00000000E-01
  1.50000000E+00  1.50000000E+00  8.00000000E-01  8.00000000E-01  1.50000000E+00
  1.50000000E+00  8.00000000E-01  8.00000000E-01  1.50000000E+00  1.50000000E+00
  8.00000000E-01  8.00000000E-01  1.50000000E+00  1.50000000E+00  8.00000000E-01
  8.00000000E-01  1.50000000E+00  1.50000000E+00  8.00000000E-01  8.00000000E-01
  1.50000000E+00  1.50000000E+00  8.00000000E-01  8.00000000E-01  1.50000000E+00
  1.50000000E+00  8.00000000E-01  8.00000000E-01  1.50000000E+00  1.50000000E+00
  8.00000000E-01  8.00000000E-01  1.50000000E+00  1.50000000E+00  8.00000000E-01
  8.00000000E-01  1.50000000E+00  1.50000000E+00  8.00000000E-01  8.00000000E-01
  1.50000000E+00  1.50000000E+00  8.00000000E-01  8.00000000E-01  1.50000000E+00
  1.50000000E+00  8.00000000E-01  8.00000000E-01  1.50000000E+00  1.50000000E+00
  8.00000000E-01  8.00000000E-01  1.50000000E+00  1.50000000E+00  8.00000000E-01
  8.00000000E-01  1.50000000E+00  1.50000000E+00  8.00000000E-01  8.00000000E-01
  1.50000000E+00  1.50000000E+00  8.00000000E-01  8.00000000E-01  1.50000000E+00
  1.50000000E+00  8.00000000E-01  8.00000000E-01  1.50000000E+00  1.50000000E+00
  8.00000000E-01  8.00000000E-01  1.50000000E+00  1.50000000E+00  8.00000000E-01
  8.00000000E-01  1.50000000E+00  1.50000000E+00  8.00000000E-01  8.00000000E-01
  1.50000000E+00  1.50000000E+00  8.00000000E-01  8.00000000E-01  1.50000000E+00
  1.50000000E+00  8.00000000E-01  8.00000000E-01  1.50000000E+00  1.50000000E+00
  8.00000000E-01  8.00000000E-01  1.50000000E+00  1.50000000E+00  8.00000000E-01
  8.00000000E-01  1.50000000E+00  1.50000000E+00  8.00000000E-01  8.00000000E-01
  1.50000000E+00  1.50000000E+00  8.00000000E-01  8.00000000E-01  1.50000000E+00
  1.50000000E+00  8.00000000E-01  8.00000000E-01  1.50000000E+00  1.50000000E+00
  8.00000000E-01  8.00000000E-01  1.50000000E+00  1.50000000E+00  8.00000000E-01
  8.00000000E-01  1.50000000E+00  1.50000000E+00  8.00000000E-01  8.00000000E-01
  1.50000000E+00  1.50000000E+00  8.00000000E-01  8.00000000E-01  1.50000000E+00
  1.50000000E+00  8.00000000E-01  8.00000000E-01  1.50000000E+00  1.50000000E+00
  8.00000000E-01  8.00000000E-01  1.50000000E+00  1.50000000E+00  8.00000000E-01
  8.00000000E-01  1.50000000E+00  1.50000000E+00  8.00000000E-01  8.00000000E-01
  1.50000000E+00  1.50000000E+00  8.00000000E-01  8.00000000E-01  1.50000000E+00
  1.50000000E+00  8.00000000E-01  8.00000000E-01  1.50000000E+00  1.50000000E+00
  8.00000000E-01  8.00000000E-01  1.50000000E+00  1.50000000E+00  8.00000000E-01
  8.00000000E-01  1.50000000E+00  1.50000000E+00  8.00000000E-01  8.00000000E-01
  1.50000000E+00  1.50000000E+00  8.00000000E-01  8.00000000E-01  1.50000000E+00
  1.50000000E+00  8.00000000E-01  8.00000000E-01  1.50000000E+00  1.50000000E+00
  8.00000000E-01  8.00000000E-01  1.50000000E+00  1.50000000E+00  8.00000000E-01
  8.00000000E-01  1.50000000E+00  1.50000000E+00  8.00000000E-01  8.00000000E-01
  1.50000000E+00  1.50000000E+00  8.00000000E-01  8.00000000E-01  1.50000000E+00
  1.50000000E+00  8.00000000E-01  8.00000000E-01  1.50000000E+00  1.50000000E+00
  8.00000000E-01  8.00000000E-01  1.50000000E+00  1.50000000E+00  8.00000000E-01
  8.00000000E-01  1.50000000E+00  1.50000000E+00  8.00000000E-01  8.00000000E-01
  1.50000000E+00  1.50000000E+00  8.00000000E-01  8.00000000E-01  1.50000000E+00
  1.50000000E+00  8.00000000E-01  8.00000000E-01  1.50000000E+00  1.50000000E+00
  8.00000000E-01  8.00000000E-01  1.50000000E+00  1.50000000E+00  8.00000000E-01
  8.00000000E-01  1.50000000E+00  1.50000000E+00  8.00000000E-01  8.00000000E-01
  1.50000000E+00  1.50000000E+00  8.00000000E-01  8.00000000E-01  1.50000000E+00
  1.50000000E+00  8.00000000E-01  8.00000000E-01  1.50000000E+00  1.50000000E+00
  8.00000000E-01  8.00000000E-01  1.50000000E+00  1.50000000E+00  8.00000000E-01
  8.00000000E-01  1.50000000E+00  1.50000000E+00  8.00000000E-01  8.00000000E-01
  1.50000000E+00  1.50000000E+00  8.00000000E-01  8.00000000E-01  1.50000000E+00
  1.50000000E+00  8.00000000E-01  8.00000000E-01  1.50000000E+00  1.50000000E+00
  8.00000000E-01  8.00000000E-01  1.50000000E+00  1.50000000E+00  8.00000000E-01
  8.00000000E-01  1.50000000E+00  1.50000000E+00  8.00000000E-01  8.00000000E-01
  1.50000000E+00  1.50000000E+00  8.00000000E-01  8.00000000E-01  1.50000000E+00
  1.50000000E+00  8.00000000E-01  8.00000000E-01  1.50000000E+00  1.50000000E+00
  8.00000000E-01  8.00000000E-01  1.50000000E+00  1.50000000E+00  8.00000000E-01
  8.00000000E-01  1.50000000E+00  1.50000000E+00  8.00000000E-01  8.00000000E-01
  1.50000000E+00  1.50000000E+00  8.00000000E-01  8.00000000E-01  1.50000000E+00
  1.50000000E+00  8.00000000E-01  8.00000000E-01  1.50000000E+00  1.50000000E+00
  8.00000000E-01  8.00000000E-01  1.50000000E+00  1.50000000E+00  8.00000000E-01
  8.00000000E-01  1.50000000E+00  1.50000000E+00  8.00000000E-01  8.00000000E-01
  1.50000000E+00  1.50000000E+00  8.00000000E-01  8.00000000E-01  1.50000000E+00
  1.50000000E+00  8.00000000E-01  8.00000000E-01  1.50000000E+00  1.50000000E+00
  8.00000000E-01  8.00000000E-01  1.50000000E+00  1.50000000E+00  8.00000000E-01
  8.00000000E-01  1.50000000E+00  1.50000000E+00  8.00000000E-01  8.00000000E-01
  1.50000000E+00  1.50000000E+00  8.00000000E-01  8.00000000E-01  1.50000000E+00
  1.50000000E+00  8.00000000E-01  8.00000000E-01  1.50000000E+00  1.50000000E+00
  8.00000000E-01  8.00000000E-01  1.50000000E+00  1.50000000E+00  8.00000000E-01
  8.00000000E-01  1.50000000E+00  1.50000000E+00  8.00000000E-01  8.00000000E-01
  1.50000000E+00  1.50000000E+00  8.00000000E-01  8.00000000E-01  1.50000000E+00
  1.50000000E+00  8.00000000E-01  8.00000000E-01  1.50000000E+00  1.50000000E+00
  8.00000000E-01  8.00000000E-01  1.50000000E+00  1.50000000E+00  8.00000000E-01
  8.00000000E-01  1.50000000E+00  1.50000000E+00  8.00000000E-01  8.00000000E-01
  1.50000000E+00  1.50000000E+00  8.00000000E-01  8.00000000E-01  1.50000000E+00
  1.50000000E+00  8.00000000E-01  8.00000000E-01  1.50000000E+00  1.50000000E+00
  8.00000000E-01  8.00000000E-01  1.50000000E+00  1.50000000E+00  8.00000000E-01
  8.00000000E-01  1.50000000E+00  1.50000000E+00  8.00000000E-01  8.00000000E-01
  1.50000000E+00  1.50000000E+00  8.00000000E-01  8.00000000E-01  1.50000000E+00
  1.50000000E+00  8.00000000E-01  8.00000000E-01  1.50000000E+00  1.50000000E+00
  8.00000000E-01  8.00000000E-01  1.50000000E+00  1.50000000E+00  8.00000000E-01
  8.00000000E-01  1.50000000E+00  1.50000000E+00  8.00000000E-01  8.00000000E-01
  1.50000000E+00  1.50000000E+00  8.00000000E-01  8.00000000E-01  1.50000000E+00
  1.50000000E+00  8.00000000E-01  8.00000000E-01  1.50000000E+00  1.50000000E+00
  8.00000000E-01  8.00000000E-01  1.50000000E+00  1.50000000E+00  8.00000000E-01
  8.00000000E-01  1.50000000E+00  1.50000000E+00  8.00000000E-01  8.00000000E-01
  1.50000000E+00  1.50000000E+00  8.00000000E-01  8.00000000E-01  1.50000000E+00
  1.50000000E+00  8.00000000E-01  8.00000000E-01  1.50000000E+00  1.50000000E+00
  8.00000000E-01  8.00000000E-01  1.50000000E+00  1.50000000E+00  8.00000000E-01
  8.00000000E-01  1.50000000E+00  1.50000000E+00  8.00000000E-01  8.00000000E-01
  1.50000000E+00  1.50000000E+00  8.00000000E-01  8.00000000E-01  1.50000000E+00
  1.50000000E+00  8.00000000E-01  8.00000000E-01  1.50000000E+00  1.50000000E+00
  8.00000000E-01  8.00000000E-01  1.50000000E+00  1.50000000E+00  8.00000000E-01
  8.00000000E-01  1.50000000E+00  1.50000000E+00  8.00000000E-01  8.00000000E-01
  1.50000000E+00  1.50000000E+00  8.00000000E-01  8.00000000E-01  1.50000000E+00
  1.50000000E+00  8.00000000E-01  8.00000000E-01  1.50000000E+00  1.50000000E+00
  8.00000000E-01  8.00000000E-01  1.50000000E+00  1.50000000E+00  8.00000000E-01
  8.00000000E-01  1.50000000E+00  1.50000000E+00  8.00000000E-01  8.00000000E-01
  1.50000000E+00  1.50000000E+00  8.00000000E-01  8.00000000E-01  1.50000000E+00
  1.50000000E+00  8.00000000E-01  8.00000000E-01  1.50000000E+00  1.50000000E+00
  8.00000000E-01  8.00000000E-01  1.50000000E+00  1.50000000E+00  8.00000000E-01
  8.00000000E-01  1.50000000E+00  1.50000000E+00  8.00000000E-01  8.00000000E-01
  1.50000000E+00  1.50000000E+00  8.00000000E-01  8.00000000E-01  1.50000000E+00
  1.50000000E+00  8.00000000E-01  8.00000000E-01  1.50000000E+00  1.50000000E+00
  8.00000000E-01  8.00000000E-01  1.50000000E+00  1.50000000E+00  8.00000000E-01
  8.00000000E-01  1.50000000E+00  1.50000000E+00  8.00000000E-01  8.00000000E-01
  1.50000000E+00  1.50000000E+00  8.00000000E-01  8.00000000E-01  1.50000000E+00
  1.50000000E+00  8.00000000E-01  8.00000000E-01  1.50000000E+00  1.50000000E+00
  8.00000000E-01  8.00000000E-01  1.50000000E+00  1.50000000E+00  8.00000000E-01
  8.00000000E-01  1.50000000E+00  1.50000000E+00  8.00000000E-01  8.00000000E-01
  1.50000000E+00  1.50000000E+00  8.00000000E-01  8.00000000E-01  1.50000000E+00
  1.50000000E+00  8.00000000E-01  8.00000000E-01  1.50000000E+00  1.50000000E+00
  8.00000000E-01  8.00000000E-01  1.50000000E+00  1.50000000E+00  8.00000000E-01
  8.00000000E-01  1.50000000E+00  1.50000000E+00  8.00000000E-01  8.00000000E-01
  1.50000000E+00  1.50000000E+00  8.00000000E-01  8.00000000E-01  1.50000000E+00
  1.50000000E+00  8.00000000E-01  8.00000000E-01  1.50000000E+00  1.50000000E+00
  8.00000000E-01  8.00000000E-01  1.50000000E+00  1.50000000E+00  8.00000000E-01
  8.00000000E-01  1.50000000E+00  1.50000000E+00  8.00000000E-01  8.00000000E-01
  1.50000000E+00  1.50000000E+00  8.00000000E-01  8.00000000E-01  1.50000000E+00
  1.50000000E+00  8.00000000E-01  8.00000000E-01  1.50000000E+00  1.50000000E+00
  8.00000000E-01  8.00000000E-01  1.50000000E+00  1.50000000E+00  8.00000000E-01
  8.00000000E-01  1.50000000E+00  1.50000000E+00  8.00000000E-01  8.00000000E-01
  1.50000000E+00  1.50000000E+00  8.00000000E-01  8.00000000E-01  1.50000000E+00
  1.50000000E+00  8.00000000E-01  8.00000000E-01  1.50000000E+00  1.50000000E+00
  8.00000000E-01  8.00000000E-01  1.50000000E+00  1.50000000E+00  8.00000000E-01
  8.00000000E-01  1.50000000E+00  1.50000000E+00  8.00000000E-01  8.00000000E-01
  1.50000000E+00  1.50000000E+00  8.00000000E-01  8.00000000E-01  1.50000000E+00
  1.50000000E+00  8.00000000E-01  8.00000000E-01  1.50000000E+00  1.50000000E+00
  8.00000000E-01  8.00000000E-01  1.50000000E+00  1.50000000E+00  8.00000000E-01
  8.00000000E-01  1.50000000E+00  1.50000000E+00  8.00000000E-01  8.00000000E-01
  1.50000000E+00  1.50000000E+00  8.00000000E-01  8.00000000E-01  1.50000000E+00
  1.50000000E+00  8.00000000E-01  8.00000000E-01  1.50000000E+00  1.50000000E+00
  8.00000000E-01  8.00000000E-01  1.50000000E+00  1.50000000E+00  8.00000000E-01
  8.00000000E-01  1.50000000E+00  1.50000000E+00  8.00000000E-01  8.00000000E-01
  1.50000000E+00  1.50000000E+00  8.00000000E-01  8.00000000E-01  1.50000000E+00
  1.50000000E+00  8.00000000E-01  8.00000000E-01  1.50000000E+00  1.50000000E+00
  8.00000000E-01  8.00000000E-01  1.50000000E+00  1.50000000E+00  8.00000000E-01
  8.00000000E-01  1.50000000E+00  1.50000000E+00  8.00000000E-01  8.00000000E-01
  1.50000000E+00  1.50000000E+00  8.00000000E-01  8.00000000E-01  1.50000000E+00
  1.50000000E+00  8.00000000E-01  8.00000000E-01  1.50000000E+00  1.50000000E+00
  8.00000000E-01  8.00000000E-01  1.50000000E+00  1.50000000E+00  8.00000000E-01
  8.00000000E-01  1.50000000E+00  1.50000000E+00  8.00000000E-01  8.00000000E-01
  1.50000000E+00  1.50000000E+00  8.00000000E-01  8.00000000E-01  1.50000000E+00
  1.50000000E+00  8.00000000E-01  8.00000000E-01  1.50000000E+00  1.50000000E+00
  8.00000000E-01  8.00000000E-01  1.50000000E+00  1.50000000E+00  8.00000000E-01
  8.00000000E-01  1.50000000E+00  1.50000000E+00  8.00000000E-01  8.00000000E-01
  1.50000000E+00  1.50000000E+00  8.00000000E-01  8.00000000E-01  1.50000000E+00
  1.50000000E+00  8.00000000E-01  8.00000000E-01  1.50000000E+00  1.50000000E+00
  8.00000000E-01  8.00000000E-01  1.50000000E+00  1.50000000E+00  8.00000000E-01
  8.00000000E-01  1.50000000E+00  1.50000000E+00  8.00000000E-01  8.00000000E-01
  1.50000000E+00  1.50000000E+00  8.00000000E-01  8.00000000E-01  1.50000000E+00
  1.50000000E+00  8.00000000E-01  8.00000000E-01  1.50000000E+00  1.50000000E+00
  8.00000000E-01  8.00000000E-01  1.50000000E+00  1.50000000E+00  8.00000000E-01
  8.00000000E-01  1.50000000E+00  1.50000000E+00  8.00000000E-01  8.00000000E-01
  1.50000000E+00  1.50000000E+00  8.00000000E-01  8.00000000E-01  1.50000000E+00
  1.50000000E+00  8.00000000E-01  8.00000000E-01  1.50000000E+00  1.50000000E+00
  8.00000000E-01  8.00000000E-01  1.50000000E+00  1.50000000E+00  8.00000000E-01
  8.00000000E-01  1.50000000E+00  1.50000000E+00  8.00000000E-01  8.00000000E-01
  1.50000000E+00  1.50000000E+00  8.00000000E-01  8.00000000E-01  1.50000000E+00
  1.50000000E+00  8.00000000E-01  8.00000000E-01  1.50000000E+00  1.50000000E+00
  8.00000000E-01  8.00000000E-01  1.50000000E+00  1.50000000E+00  8.00000000E-01
  8.00000000E-01  1.50000000E+00  1.50000000E+00  8.00000000E-01  8.00000000E-01
  1.50000000E+00  1.50000000E+00  8.00000000E-01  8.00000000E-01  1.50000000E+00
  1.50000000E+00  8.00000000E-01  8.00000000E-01  1.50000000E+00  1.50000000E+00
  8.00000000E-01  8.00000000E-01  1.50000000E+00  1.50000000E+00  8.00000000E-01
  8.00000000E-01  1.50000000E+00  1.50000000E+00  8.00000000E-01  8.00000000E-01
  1.50000000E+00  1.50000000E+00  8.00000000E-01  8.00000000E-01  1.50000000E+00
  1.50000000E+00  8.00000000E-01  8.00000000E-01  1.50000000E+00  1.50000000E+00
  8.00000000E-01  8.00000000E-01  1.50000000E+00  1.50000000E+00  8.00000000E-01
  8.00000000E-01  1.50000000E+00  1.50000000E+00  8.00000000E-01  8.00000000E-01
  1.50000000E+00  1.50000000E+00  8.00000000E-01  8.00000000E-01  1.50000000E+00
  1.50000000E+00  8.00000000E-01  8.00000000E-01  1.50000000E+00  1.50000000E+00
  8.00000000E-01  8.00000000E-01  1.50000000E+00  1.50000000E+00  8.00000000E-01
  8.00000000E-01  1.50000000E+00  1.50000000E+00  8.00000000E-01  8.00000000E-01
  1.50000000E+00  1.50000000E+00  8.00000000E-01  8.00000000E-01  1.50000000E+00
  1.50000000E+00  8.00000000E-01  8.00000000E-01  1.50000000E+00  1.50000000E+00
  8.00000000E-01  8.00000000E-01  1.50000000E+00  1.50000000E+00  8.00000000E-01
  8.00000000E-01  1.50000000E+00  1.50000000E+00  8.00000000E-01  8.00000000E-01
  1.50000000E+00  1.50000000E+00  8.00000000E-01  8.00000000E-01  1.50000000E+00
  1.50000000E+00  8.00000000E-01  8.00000000E-01  1.50000000E+00  1.50000000E+00
  8.00000000E-01  8.00000000E-01  1.50000000E+00  1.50000000E+00  8.00000000E-01
  8.00000000E-01  1.50000000E+00  1.50000000E+00  8.00000000E-01  8.00000000E-01
  1.50000000E+00  1.50000000E+00  8.00000000E-01  8.00000000E-01  1.50000000E+00
  1.50000000E+00  8.00000000E-01  8.00000000E-01  1.50000000E+00  1.50000000E+00
  8.00000000E-01  8.00000000E-01  1.50000000E+00  1.50000000E+00  8.00000000E-01
  8.00000000E-01  1.50000000E+00  1.50000000E+00  8.00000000E-01  8.00000000E-01
  1.50000000E+00  1.50000000E+00  8.00000000E-01  8.00000000E-01  1.50000000E+00
  1.50000000E+00  8.00000000E-01  8.00000000E-01  1.50000000E+00  1.50000000E+00
  8.00000000E-01  8.00000000E-01  1.50000000E+00  1.50000000E+00  8.00000000E-01
  8.00000000E-01  1.50000000E+00  1.50000000E+00  8.00000000E-01  8.00000000E-01
  1.50000000E+00  1.50000000E+00  8.00000000E-01  8.00000000E-01  1.50000000E+00
  1.50000000E+00  8.00000000E-01  8.00000000E-01  1.50000000E+00  1.50000000E+00
  8.00000000E-01  8.00000000E-01  1.50000000E+00  1.50000000E+00  8.00000000E-01
  8.00000000E-01  1.50000000E+00  1.50000000E+00  8.00000000E-01  8.00000000E-01
  1.50000000E+00  1.50000000E+00  8.00000000E-01  8.00000000E-01  1.50000000E+00
  1.50000000E+00  8.00000000E-01  8.00000000E-01  1.50000000E+00  1.50000000E+00
  8.00000000E-01  8.00000000E-01  1.50000000E+00  1.50000000E+00  8.00000000E-01
  8.00000000E-01  1.50000000E+00  1.50000000E+00  8.00000000E-01  8.00000000E-01
  1.50000000E+00  1.50000000E+00  8.00000000E-01  8.00000000E-01  1.50000000E+00
  1.50000000E+00  8.00000000E-01  8.00000000E-01  1.50000000E+00  1.50000000E+00
  8.00000000E-01  8.00000000E-01  1.50000000E+00  1.50000000E+00  8.00000000E-01
  8.00000000E-01  1.50000000E+00  1.50000000E+00  8.00000000E-01  8.00000000E-01
  1.50000000E+00  1.50000000E+00  8.00000000E-01  8.00000000E-01  1.50000000E+00
  1.50000000E+00  8.00000000E-01  8.00000000E-01  1.50000000E+00  1.50000000E+00
  8.00000000E-01  8.00000000E-01  1.50000000E+00  1.50000000E+00  8.00000000E-01
  8.00000000E-01  1.50000000E+00  1.50000000E+00  8.00000000E-01  8.00000000E-01
  1.50000000E+00  1.50000000E+00  8.00000000E-01  8.00000000E-01  1.50000000E+00
  1.50000000E+00  8.00000000E-01  8.00000000E-01  1.50000000E+00  1.50000000E+00
  8.00000000E-01  8.00000000E-01  1.50000000E+00  1.50000000E+00  8.00000000E-01
  8.00000000E-01  1.50000000E+00  1.50000000E+00  8.00000000E-01  8.00000000E-01
  1.50000000E+00  1.50000000E+00  8.00000000E-01  8.00000000E-01  1.50000000E+00
  1.50000000E+00  8.00000000E-01  8.00000000E-01  1.50000000E+00  1.50000000E+00
  8.00000000E-01  8.00000000E-01  1.50000000E+00  1.50000000E+00  8.00000000E-01
  8.00000000E-01  1.50000000E+00  1.50000000E+00  8.00000000E-01  8.00000000E-01
  1.50000000E+00  1.50000000E+00  8.00000000E-01  8.00000000E-01  1.50000000E+00
  1.50000000E+00  8.00000000E-01  8.00000000E-01  1.50000000E+00  1.50000000E+00
  8.00000000E-01  8.00000000E-01  1.50000000E+00  1.50000000E+00  8.00000000E-01
  8.00000000E-01  1.50000000E+00  1.50000000E+00  8.00000000E-01  8.00000000E-01
  1.50000000E+00  1.50000000E+00  8.00000000E-01  8.00000000E-01  1.50000000E+00
  1.50000000E+00  8.00000000E-01  8.00000000E-01  1.50000000E+00  1.50000000E+00
  8.00000000E-01  8.00000000E-01  1.50000000E+00  1.50000000E+00  8.00000000E-01
  8.00000000E-01  1.50000000E+00  1.50000000E+00  8.00000000E-01  8.00000000E-01
  1.50000000E+00  1.50000000E+00  8.00000000E-01  8.00000000E-01  1.50000000E+00
  1.50000000E+00  8.00000000E-01  8.00000000E-01  1.50000000E+00  1.50000000E+00
  8.00000000E-01  8.00000000E-01  1.50000000E+00  1.50000000E+00  8.00000000E-01
  8.00000000E-01  1.50000000E+00  1.50000000E+00  8.00000000E-01  8.00000000E-01
  1.50000000E+00  1.50000000E+00  8.00000000E-01  8.00000000E-01  1.50000000E+00
  1.50000000E+00  8.00000000E-01  8.00000000E-01  1.50000000E+00  1.50000000E+00
  8.00000000E-01  8.00000000E-01  1.50000000E+00  1.50000000E+00  8.00000000E-01
  8.00000000E-01  1.50000000E+00  1.50000000E+00  8.00000000E-01  8.00000000E-01
  1.50000000E+00  1.50000000E+00  8.00000000E-01  8.00000000E-01  1.50000000E+00
  1.50000000E+00  8.00000000E-01  8.00000000E-01  1.50000000E+00  1.50000000E+00
  8.00000000E-01  8.00000000E-01  1.50000000E+00  1.50000000E+00  8.00000000E-01
  8.00000000E-01  1.50000000E+00  1.50000000E+00  8.00000000E-01  8.00000000E-01
  1.50000000E+00  1.50000000E+00  8.00000000E-01  8.00000000E-01  1.50000000E+00
  1.50000000E+00  8.00000000E-01  8.00000000E-01  1.50000000E+00  1.50000000E+00
  8.00000000E-01  8.00000000E-01  1.50000000E+00  1.50000000E+00  8.00000000E-01
  8.00000000E-01  1.50000000E+00  1.50000000E+00  8.00000000E-01  8.00000000E-01
  1.50000000E+00  1.50000000E+00  8.00000000E-01  8.00000000E-01  1.50000000E+00
  1.50000000E+00  8.00000000E-01  8.00000000E-01  1.50000000E+00  1.50000000E+00
  8.00000000E-01  8.00000000E-01  1.50000000E+00  1.50000000E+00  8.00000000E-01
  8.00000000E-01  1.50000000E+00  1.50000000E+00  8.00000000E-01  8.00000000E-01
  1.50000000E+00  1.50000000E+00  8.00000000E-01  8.00000000E-01  1.50000000E+00
  1.50000000E+00  8.00000000E-01  8.00000000E-01  1.50000000E+00  1.50000000E+00
  8.00000000E-01  8.00000000E-01  1.50000000E+00  1.50000000E+00  8.00000000E-01
  8.00000000E-01  1.50000000E+00  1.50000000E+00  8.00000000E-01  8.00000000E-01
  1.50000000E+00  1.50000000E+00  8.00000000E-01  8.00000000E-01  1.50000000E+00
  1.50000000E+00  8.00000000E-01  8.00000000E-01  1.50000000E+00  1.50000000E+00
  8.00000000E-01  8.00000000E-01  1.50000000E+00  1.50000000E+00  8.00000000E-01
  8.00000000E-01  1.50000000E+00  1.50000000E+00  8.00000000E-01  8.00000000E-01
  1.50000000E+00  1.50000000E+00  8.00000000E-01  8.00000000E-01  1.50000000E+00
  1.50000000E+00  8.00000000E-01  8.00000000E-01  1.50000000E+00  1.50000000E+00
  8.00000000E-01  8.00000000E-01  1.50000000E+00  1.50000000E+00  8.00000000E-01
  8.00000000E-01  1.50000000E+00  1.50000000E+00  8.00000000E-01  8.00000000E-01
  1.50000000E+00  1.50000000E+00  8.00000000E-01  8.00000000E-01  1.50000000E+00
  1.50000000E+00  8.00000000E-01  8.00000000E-01  1.50000000E+00  1.50000000E+00
  8.00000000E-01  8.00000000E-01  1.50000000E+00  1.50000000E+00  8.00000000E-01
  8.00000000E-01  1.50000000E+00  1.50000000E+00  8.00000000E-01  8.00000000E-01
  1.50000000E+00  1.50000000E+00  8.00000000E-01  8.00000000E-01  1.50000000E+00
  1.50000000E+00  8.00000000E-01  8.00000000E-01  1.50000000E+00  1.50000000E+00
  8.00000000E-01  8.00000000E-01  1.50000000E+00  1.50000000E+00  8.00000000E-01
  8.00000000E-01  1.50000000E+00  1.50000000E+00  8.00000000E-01  8.00000000E-01
  1.50000000E+00  1.50000000E+00  8.00000000E-01  8.00000000E-01  1.50000000E+00
  1.50000000E+00  8.00000000E-01  8.00000000E-01  1.50000000E+00  1.50000000E+00
  8.00000000E-01  8.00000000E-01  1.50000000E+00  1.50000000E+00  8.00000000E-01
  8.00000000E-01  1.50000000E+00  1.50000000E+00  8.00000000E-01  8.00000000E-01
  1.50000000E+00  1.50000000E+00  8.00000000E-01  8.00000000E-01  1.50000000E+00
  1.50000000E+00  8.00000000E-01  8.00000000E-01  1.50000000E+00  1.50000000E+00
  8.00000000E-01  8.00000000E-01  1.50000000E+00  1.50000000E+00  8.00000000E-01
  8.00000000E-01  1.50000000E+00  1.50000000E+00  8.00000000E-01  8.00000000E-01
  1.50000000E+00  1.50000000E+00  8.00000000E-01  8.00000000E-01  1.50000000E+00
  1.50000000E+00  8.00000000E-01  8.00000000E-01  1.50000000E+00  1.50000000E+00
  8.00000000E-01  8.00000000E-01  1.50000000E+00  1.50000000E+00  8.00000000E-01
  8.00000000E-01  1.50000000E+00  1.50000000E+00  8.00000000E-01  8.00000000E-01
  1.50000000E+00  1.50000000E+00  8.00000000E-01  8.00000000E-01  1.50000000E+00
  1.50000000E+00  8.00000000E-01  8.00000000E-01  1.50000000E+00  1.50000000E+00
  8.00000000E-01  8.00000000E-01  1.50000000E+00  1.50000000E+00  8.00000000E-01
  8.00000000E-01  1.50000000E+00  1.50000000E+00  8.00000000E-01  8.00000000E-01
  1.50000000E+00  1.50000000E+00  8.00000000E-01  8.00000000E-01  1.50000000E+00
  1.50000000E+00  8.00000000E-01  8.00000000E-01  1.50000000E+00  1.50000000E+00
  8.00000000E-01  8.00000000E-01  1.50000000E+00  1.50000000E+00  8.00000000E-01
  8.00000000E-01  1.50000000E+00  1.50000000E+00  8.00000000E-01  8.00000000E-01
  1.50000000E+00  1.50000000E+00  8.00000000E-01  8.00000000E-01  1.50000000E+00
  1.50000000E+00  8.00000000E-01  8.00000000E-01  1.50000000E+00  1.50000000E+00
  8.00000000E-01  8.00000000E-01  1.50000000E+00  1.50000000E+00  8.00000000E-01
  8.00000000E-01  1.50000000E+00  1.50000000E+00  8.00000000E-01  8.00000000E-01
  1.50000000E+00  1.50000000E+00  8.00000000E-01  8.00000000E-01  1.50000000E+00
  1.50000000E+00  8.00000000E-01  8.00000000E-01  1.50000000E+00  1.50000000E+00
  8.00000000E-01  8.00000000E-01  1.50000000E+00  1.50000000E+00  8.00000000E-01
  8.00000000E-01  1.50000000E+00  1.50000000E+00  8.00000000E-01  8.00000000E-01
  1.50000000E+00  1.50000000E+00  8.00000000E-01  8.00000000E-01  1.50000000E+00
  1.50000000E+00  8.00000000E-01  8.00000000E-01  1.50000000E+00  1.50000000E+00
  8.00000000E-01  8.00000000E-01  1.50000000E+00  1.50000000E+00  8.00000000E-01
  8.00000000E-01  1.50000000E+00  1.50000000E+00  8.00000000E-01  8.00000000E-01
  1.50000000E+00  1.50000000E+00  8.00000000E-01  8.00000000E-01  1.50000000E+00
  1.50000000E+00  8.00000000E-01  8.00000000E-01  1.50000000E+00  1.50000000E+00
  8.00000000E-01  8.00000000E-01  1.50000000E+00  1.50000000E+00  8.00000000E-01
  8.00000000E-01  1.50000000E+00  1.50000000E+00  8.00000000E-01  8.00000000E-01
  1.50000000E+00  1.50000000E+00  8.00000000E-01  8.00000000E-01  1.50000000E+00
  1.50000000E+00  8.00000000E-01  8.00000000E-01  1.50000000E+00  1.50000000E+00
  8.00000000E-01  8.00000000E-01  1.50000000E+00  1.50000000E+00  8.00000000E-01
  8.00000000E-01  1.50000000E+00  1.50000000E+00  8.00000000E-01  8.00000000E-01
  1.50000000E+00  1.50000000E+00  8.00000000E-01  8.00000000E-01  1.50000000E+00
  1.50000000E+00  8.00000000E-01  8.00000000E-01  1.50000000E+00  1.50000000E+00
  8.00000000E-01  8.00000000E-01  1.50000000E+00  1.50000000E+00  8.00000000E-01
  8.00000000E-01  1.50000000E+00  1.50000000E+00  8.00000000E-01  8.00000000E-01
  1.50000000E+00  1.50000000E+00  8.00000000E-01  8.00000000E-01  1.50000000E+00
  1.50000000E+00  8.00000000E-01  8.00000000E-01  1.50000000E+00  1.50000000E+00
  8.00000000E-01  8.00000000E-01  1.50000000E+00  1.50000000E+00  8.00000000E-01
  8.00000000E-01  1.50000000E+00  1.50000000E+00  8.00000000E-01  8.00000000E-01
  1.50000000E+00  1.50000000E+00  8.00000000E-01  8.00000000E-01  1.50000000E+00
  1.50000000E+00  8.00000000E-01  8.00000000E-01  1.50000000E+00  1.50000000E+00
  8.00000000E-01  8.00000000E-01  1.50000000E+00  1.50000000E+00  8.00000000E-01
  8.00000000E-01  1.50000000E+00  1.50000000E+00  8.00000000E-01  8.00000000E-01
  1.50000000E+00  1.50000000E+00  8.00000000E-01  8.00000000E-01  1.50000000E+00
  1.50000000E+00  8.00000000E-01  8.00000000E-01  1.50000000E+00  1.50000000E+00
  8.00000000E-01  8.00000000E-01  1.50000000E+00  1.50000000E+00  8.00000000E-01
  8.00000000E-01  1.50000000E+00  1.50000000E+00  8.00000000E-01  8.00000000E-01
  1.50000000E+00  1.50000000E+00  8.00000000E-01  8.00000000E-01  1.50000000E+00
  1.50000000E+00  8.00000000E-01  8.00000000E-01  1.50000000E+00  1.50000000E+00
  8.00000000E-01  8.00000000E-01  1.50000000E+00  1.50000000E+00  8.00000000E-01
  8.00000000E-01  1.50000000E+00  1.50000000E+00  8.00000000E-01  8.00000000E-01
  1.50000000E+00  1.50000000E+00  8.00000000E-01  8.00000000E-01  1.50000000E+00
  1.50000000E+00  8.00000000E-01  8.00000000E-01  1.50000000E+00  1.50000000E+00
  8.00000000E-01  8.00000000E-01  1.50000000E+00  1.50000000E+00  8.00000000E-01
  8.00000000E-01  1.50000000E+00  1.50000000E+00  8.00000000E-01  8.00000000E-01
  1.50000000E+00  1.50000000E+00  8.00000000E-01  8.00000000E-01  1.50000000E+00
  1.50000000E+00  8.00000000E-01  8.00000000E-01  1.50000000E+00  1.50000000E+00
  8.00000000E-01  8.00000000E-01  1.50000000E+00  1.50000000E+00  8.00000000E-01
  8.00000000E-01  1.50000000E+00  1.50000000E+00  8.00000000E-01  8.00000000E-01
  1.50000000E+00  1.50000000E+00  8.00000000E-01  8.00000000E-01  1.50000000E+00
  1.50000000E+00  8.00000000E-01  8.00000000E-01  1.50000000E+00  1.50000000E+00
  8.00000000E-01  8.00000000E-01  1.50000000E+00  1.50000000E+00  8.00000000E-01
  8.00000000E-01  1.50000000E+00  1.50000000E+00  8.00000000E-01  8.00000000E-01
  1.50000000E+00  1.50000000E+00  8.00000000E-01  8.00000000E-01  1.50000000E+00
  1.50000000E+00  8.00000000E-01  8.00000000E-01  1.50000000E+00  1.50000000E+00
  8.00000000E-01  8.00000000E-01  1.50000000E+00  1.50000000E+00  8.00000000E-01
  8.00000000E-01  1.50000000E+00  1.50000000E+00  8.00000000E-01  8.00000000E-01
  1.50000000E+00  1.50000000E+00  8.00000000E-01  8.00000000E-01  1.50000000E+00
  1.50000000E+00  8.00000000E-01  8.00000000E-01  1.50000000E+00  1.50000000E+00
  8.00000000E-01  8.00000000E-01  1.50000000E+00  1.50000000E+00  8.00000000E-01
  8.00000000E-01  1.50000000E+00  1.50000000E+00  8.00000000E-01  8.00000000E-01
  1.50000000E+00  1.50000000E+00  8.00000000E-01  8.00000000E-01  1.50000000E+00
  1.50000000E+00  8.00000000E-01  8.00000000E-01  1.50000000E+00  1.50000000E+00
  8.00000000E-01  8.00000000E-01  1.50000000E+00  1.50000000E+00  8.00000000E-01
  8.00000000E-01  1.50000000E+00  1.50000000E+00  8.00000000E-01  8.00000000E-01
  1.50000000E+00  1.50000000E+00  8.00000000E-01  8.00000000E-01  1.50000000E+00
  1.50000000E+00  8.00000000E-01  8.00000000E-01  1.50000000E+00  1.50000000E+00
  8.00000000E-01  8.00000000E-01  1.50000000E+00  1.50000000E+00  8.00000000E-01
  8.00000000E-01  1.50000000E+00  1.50000000E+00  8.00000000E-01  8.00000000E-01
  1.50000000E+00  1.50000000E+00  8.00000000E-01  8.00000000E-01  1.50000000E+00
  1.50000000E+00  8.00000000E-01  8.00000000E-01  1.50000000E+00  1.50000000E+00
  8.00000000E-01  8.00000000E-01  1.50000000E+00  1.50000000E+00  8.00000000E-01
  8.00000000E-01  1.50000000E+00  1.50000000E+00  8.00000000E-01  8.00000000E-01
  1.50000000E+00  1.50000000E+00  8.00000000E-01  8.00000000E-01  1.50000000E+00
  1.50000000E+00  8.00000000E-01  8.00000000E-01  1.50000000E+00  1.50000000E+00
  8.00000000E-01  8.00000000E-01  1.50000000E+00  1.50000000E+00  8.00000000E-01
  8.00000000E-01  1.50000000E+00  1.50000000E+00  8.00000000E-01  8.00000000E-01
  1.50000000E+00  1.50000000E+00  8.00000000E-01  8.00000000E-01  1.50000000E+00
  1.50000000E+00  8.00000000E-01  8.00000000E-01  1.50000000E+00  1.50000000E+00
  8.00000000E-01  8.00000000E-01  1.50000000E+00  1.50000000E+00  8.00000000E-01
  8.00000000E-01  1.50000000E+00  1.50000000E+00  8.00000000E-01  8.00000000E-01
  1.50000000E+00  1.50000000E+00  8.00000000E-01  8.00000000E-01  1.50000000E+00
  1.50000000E+00  8.00000000E-01  8.00000000E-01  1.50000000E+00  1.50000000E+00
  8.00000000E-01  8.00000000E-01  1.50000000E+00  1.50000000E+00  8.00000000E-01
  8.00000000E-01  1.50000000E+00  1.50000000E+00  8.00000000E-01  8.00000000E-01
  1.50000000E+00  1.50000000E+00  8.00000000E-01  8.00000000E-01  1.50000000E+00
  1.50000000E+00  8.00000000E-01  8.00000000E-01  1.50000000E+00  1.50000000E+00
  8.00000000E-01  8.00000000E-01  1.50000000E+00  1.50000000E+00  8.00000000E-01
  8.00000000E-01  1.50000000E+00  1.50000000E+00  8.00000000E-01  8.00000000E-01
  1.50000000E+00  1.50000000E+00  8.00000000E-01  8.00000000E-01  1.50000000E+00
  1.50000000E+00  8.00000000E-01  8.00000000E-01  1.50000000E+00  1.50000000E+00
  8.00000000E-01  8.00000000E-01  1.50000000E+00  1.50000000E+00  8.00000000E-01
  8.00000000E-01  1.50000000E+00  1.50000000E+00  8.00000000E-01  8.00000000E-01
  1.50000000E+00  1.50000000E+00  8.00000000E-01  8.00000000E-01  1.50000000E+00
  1.50000000E+00  8.00000000E-01  8.00000000E-01  1.50000000E+00  1.50000000E+00
  8.00000000E-01  8.00000000E-01  1.50000000E+00  1.50000000E+00  8.00000000E-01
  8.00000000E-01  1.50000000E+00  1.50000000E+00  8.00000000E-01  8.00000000E-01
  1.50000000E+00  1.50000000E+00  8.00000000E-01  8.00000000E-01  1.50000000E+00
  1.50000000E+00  8.00000000E-01  8.00000000E-01  1.50000000E+00  1.50000000E+00
  8.00000000E-01  8.00000000E-01  1.50000000E+00  1.50000000E+00  8.00000000E-01
  8.00000000E-01  1.50000000E+00  1.50000000E+00  8.00000000E-01  8.00000000E-01
  1.50000000E+00  1.50000000E+00  8.00000000E-01  8.00000000E-01  1.50000000E+00
  1.50000000E+00  8.00000000E-01  8.00000000E-01  1.50000000E+00  1.50000000E+00
  8.00000000E-01  8.00000000E-01  1.50000000E+00  1.50000000E+00  8.00000000E-01
  8.00000000E-01  1.50000000E+00  1.50000000E+00  8.00000000E-01  8.00000000E-01
  1.50000000E+00  1.50000000E+00  8.00000000E-01  8.00000000E-01  1.50000000E+00
  1.50000000E+00  8.00000000E-01  8.00000000E-01  1.50000000E+00  1.50000000E+00
  8.00000000E-01  8.00000000E-01  1.50000000E+00  1.50000000E+00  8.00000000E-01
  8.00000000E-01  1.50000000E+00  1.50000000E+00  8.00000000E-01  8.00000000E-01
  1.50000000E+00  1.50000000E+00  8.00000000E-01  8.00000000E-01  1.50000000E+00
  1.50000000E+00  8.00000000E-01  8.00000000E-01  1.50000000E+00  1.50000000E+00
  8.00000000E-01  8.00000000E-01  1.50000000E+00  1.50000000E+00  8.00000000E-01
  8.00000000E-01  1.50000000E+00  1.50000000E+00  8.00000000E-01  8.00000000E-01
  1.50000000E+00  1.50000000E+00  8.00000000E-01  8.00000000E-01  1.50000000E+00
  1.50000000E+00  8.00000000E-01  8.00000000E-01  1.50000000E+00  1.50000000E+00
  8.00000000E-01  8.00000000E-01  1.50000000E+00  1.50000000E+00  8.00000000E-01
  8.00000000E-01  1.50000000E+00  1.50000000E+00  8.00000000E-01  8.00000000E-01
  1.50000000E+00  1.50000000E+00  8.00000000E-01  8.00000000E-01  1.50000000E+00
  1.50000000E+00  8.00000000E-01  8.00000000E-01  1.50000000E+00  1.50000000E+00
  8.00000000E-01  8.00000000E-01  1.50000000E+00  1.50000000E+00  8.00000000E-01
  8.00000000E-01  1.50000000E+00  1.50000000E+00  8.00000000E-01  8.00000000E-01
  1.50000000E+00  1.50000000E+00  8.00000000E-01  8.00000000E-01  1.50000000E+00
  1.50000000E+00  8.00000000E-01  8.00000000E-01  1.50000000E+00  1.50000000E+00
  8.00000000E-01  8.00000000E-01  1.50000000E+00  1.50000000E+00  8.00000000E-01
  8.00000000E-01  1.50000000E+00  1.50000000E+00  8.00000000E-01  8.00000000E-01
  1.50000000E+00  1.50000000E+00  8.00000000E-01  8.00000000E-01  1.50000000E+00
  1.50000000E+00  8.00000000E-01  8.00000000E-01  1.50000000E+00  1.50000000E+00
  8.00000000E-01  8.00000000E-01  1.50000000E+00  1.50000000E+00  8.00000000E-01
  8.00000000E-01  1.50000000E+00  1.50000000E+00  8.00000000E-01  8.00000000E-01
  1.50000000E+00  1.50000000E+00  8.00000000E-01  8.00000000E-01  1.50000000E+00
  1.50000000E+00  8.00000000E-01  8.00000000E-01  1.50000000E+00  1.50000000E+00
  8.00000000E-01  8.00000000E-01  1.50000000E+00  1.50000000E+00  8.00000000E-01
  8.00000000E-01  1.50000000E+00  1.50000000E+00  8.00000000E-01  8.00000000E-01
  1.50000000E+00  1.50000000E+00  8.00000000E-01  8.00000000E-01  1.50000000E+00
  1.50000000E+00  8.00000000E-01  8.00000000E-01  1.50000000E+00  1.50000000E+00
  8.00000000E-01  8.00000000E-01  1.50000000E+00  1.50000000E+00  8.00000000E-01
  8.00000000E-01  1.50000000E+00  1.50000000E+00  8.00000000E-01  8.00000000E-01
  1.50000000E+00  1.50000000E+00  8.00000000E-01  8.00000000E-01  1.50000000E+00
  1.50000000E+00  8.00000000E-01  8.00000000E-01  1.50000000E+00  1.50000000E+00
  8.00000000E-01  8.00000000E-01  1.50000000E+00  1.50000000E+00  8.00000000E-01
  8.00000000E-01  1.50000000E+00  1.50000000E+00  8.00000000E-01  8.00000000E-01
  1.50000000E+00  1.50000000E+00  8.00000000E-01  8.00000000E-01  1.50000000E+00
  1.50000000E+00  8.00000000E-01  8.00000000E-01  1.50000000E+00  1.50000000E+00
  8.00000000E-01  8.00000000E-01  1.50000000E+00  1.50000000E+00  8.00000000E-01
  8.00000000E-01  1.50000000E+00  1.50000000E+00  8.00000000E-01  8.00000000E-01
  1.50000000E+00  1.50000000E+00  8.00000000E-01  8.00000000E-01  1.50000000E+00
  1.50000000E+00  8.00000000E-01  8.00000000E-01  1.50000000E+00  1.50000000E+00
  8.00000000E-01  8.00000000E-01  1.50000000E+00  1.50000000E+00  8.00000000E-01
  8.00000000E-01  1.50000000E+00  1.50000000E+00  8.00000000E-01  8.00000000E-01
  1.50000000E+00  1.50000000E+00  8.00000000E-01  8.00000000E-01  1.50000000E+00
  1.50000000E+00  8.00000000E-01  8.00000000E-01  1.50000000E+00  1.50000000E+00
  8.00000000E-01  8.00000000E-01  1.50000000E+00  1.50000000E+00  8.00000000E-01
  8.00000000E-01  1.50000000E+00  1.50000000E+00  8.00000000E-01  8.00000000E-01
  1.50000000E+00  1.50000000E+00  8.00000000E-01  8.00000000E-01  1.50000000E+00
  1.50000000E+00  8.00000000E-01  8.00000000E-01  1.50000000E+00  1.50000000E+00
  8.00000000E-01  8.00000000E-01  1.50000000E+00  1.50000000E+00  8.00000000E-01
  8.00000000E-01  1.50000000E+00  1.50000000E+00  8.00000000E-01  8.00000000E-01
  1.50000000E+00  1.50000000E+00  8.00000000E-01  8.00000000E-01  1.50000000E+00
  1.50000000E+00  8.00000000E-01  8.00000000E-01  1.50000000E+00  1.50000000E+00
  8.00000000E-01  8.00000000E-01  1.50000000E+00  1.50000000E+00  8.00000000E-01
  8.00000000E-01  1.50000000E+00  1.50000000E+00  8.00000000E-01  8.00000000E-01
  1.50000000E+00  1.50000000E+00  8.00000000E-01  8.00000000E-01  1.50000000E+00
  1.50000000E+00  8.00000000E-01  8.00000000E-01  1.50000000E+00  1.50000000E+00
  8.00000000E-01  8.00000000E-01  1.50000000E+00  1.50000000E+00  8.00000000E-01
  8.00000000E-01  1.50000000E+00  1.50000000E+00  8.00000000E-01  8.00000000E-01
  1.50000000E+00  1.50000000E+00  8.00000000E-01  8.00000000E-01  1.50000000E+00
  1.50000000E+00  8.00000000E-01  8.00000000E-01  1.50000000E+00  1.50000000E+00
  8.00000000E-01  8.00000000E-01  1.50000000E+00  1.50000000E+00  8.00000000E-01
  8.00000000E-01  1.50000000E+00  1.50000000E+00  8.00000000E-01  8.00000000E-01
  1.50000000E+00  1.50000000E+00  8.00000000E-01  8.00000000E-01  1.50000000E+00
  1.50000000E+00  8.00000000E-01  8.00000000E-01  1.50000000E+00  1.50000000E+00
  8.00000000E-01  8.00000000E-01  1.50000000E+00  1.50000000E+00  8.00000000E-01
  8.00000000E-01  1.50000000E+00  1.50000000E+00  8.00000000E-01  8.00000000E-01
  1.50000000E+00  1.50000000E+00  8.00000000E-01  8.00000000E-01  1.50000000E+00
  1.50000000E+00  8.00000000E-01  8.00000000E-01  1.50000000E+00  1.50000000E+00
  8.00000000E-01  8.00000000E-01  1.50000000E+00  1.50000000E+00  8.00000000E-01
  8.00000000E-01  1.50000000E+00  1.50000000E+00  8.00000000E-01  8.00000000E-01
  1.50000000E+00  1.50000000E+00  8.00000000E-01  8.00000000E-01  1.50000000E+00
  1.50000000E+00  8.00000000E-01  8.00000000E-01  1.50000000E+00  1.50000000E+00
  8.00000000E-01  8.00000000E-01  1.50000000E+00  1.50000000E+00  8.00000000E-01
  8.00000000E-01  1.50000000E+00  1.50000000E+00  8.00000000E-01  8.00000000E-01
  1.50000000E+00  1.50000000E+00  8.00000000E-01  8.00000000E-01  1.50000000E+00
  1.50000000E+00  8.00000000E-01  8.00000000E-01  1.50000000E+00  1.50000000E+00
  8.00000000E-01  8.00000000E-01  1.50000000E+00  1.50000000E+00  8.00000000E-01
  8.00000000E-01  1.50000000E+00  1.50000000E+00  8.00000000E-01  8.00000000E-01
  1.50000000E+00  1.50000000E+00  8.00000000E-01  8.00000000E-01  1.50000000E+00
  1.50000000E+00  8.00000000E-01  8.00000000E-01  1.50000000E+00  1.50000000E+00
  8.00000000E-01  8.00000000E-01  1.50000000E+00  1.50000000E+00  8.00000000E-01
  8.00000000E-01  1.50000000E+00  1.50000000E+00  8.00000000E-01  8.00000000E-01
  1.50000000E+00  1.50000000E+00  8.00000000E-01  8.00000000E-01  1.50000000E+00
  1.50000000E+00  8.00000000E-01  8.00000000E-01  1.50000000E+00  1.50000000E+00
  8.00000000E-01  8.00000000E-01  1.50000000E+00  1.50000000E+00  8.00000000E-01
  8.00000000E-01  1.50000000E+00  1.50000000E+00  8.00000000E-01  8.00000000E-01
  1.50000000E+00  1.50000000E+00  8.00000000E-01  8.00000000E-01  1.50000000E+00
  1.50000000E+00  8.00000000E-01  8.00000000E-01  1.50000000E+00  1.50000000E+00
  8.00000000E-01  8.00000000E-01  1.50000000E+00  1.50000000E+00  8.00000000E-01
  8.00000000E-01  1.50000000E+00  1.50000000E+00  8.00000000E-01  8.00000000E-01
  1.50000000E+00  1.50000000E+00  8.00000000E-01  8.00000000E-01  1.50000000E+00
  1.50000000E+00  8.00000000E-01  8.00000000E-01  1.50000000E+00  1.50000000E+00
  8.00000000E-01  8.00000000E-01  1.50000000E+00  1.50000000E+00  8.00000000E-01
  8.00000000E-01  1.50000000E+00  1.50000000E+00  8.00000000E-01  8.00000000E-01
  1.50000000E+00  1.50000000E+00  8.00000000E-01  8.00000000E-01  1.50000000E+00
  1.50000000E+00  8.00000000E-01  8.00000000E-01  1.50000000E+00  1.50000000E+00
  8.00000000E-01  8.00000000E-01  1.50000000E+00  1.50000000E+00  8.00000000E-01
  8.00000000E-01  1.50000000E+00  1.50000000E+00  8.00000000E-01  8.00000000E-01
  1.50000000E+00  1.50000000E+00  8.00000000E-01  8.00000000E-01  1.50000000E+00
  1.50000000E+00  8.00000000E-01  8.00000000E-01  1.50000000E+00  1.50000000E+00
  8.00000000E-01  8.00000000E-01  1.50000000E+00  1.50000000E+00  8.00000000E-01
  8.00000000E-01  1.50000000E+00  1.50000000E+00  8.00000000E-01  8.00000000E-01
  1.50000000E+00  1.50000000E+00  8.00000000E-01  8.00000000E-01  1.50000000E+00
  1.50000000E+00  8.00000000E-01  8.00000000E-01  1.50000000E+00  1.50000000E+00
  8.00000000E-01  8.00000000E-01  1.50000000E+00  1.50000000E+00  8.00000000E-01
  8.00000000E-01  1.50000000E+00  1.50000000E+00  8.00000000E-01  8.00000000E-01
  1.50000000E+00  1.50000000E+00  8.00000000E-01  8.00000000E-01  1.50000000E+00
  1.50000000E+00  8.00000000E-01  8.00000000E-01  1.50000000E+00  1.50000000E+00
  8.00000000E-01  8.00000000E-01  1.50000000E+00  1.50000000E+00  8.00000000E-01
  8.00000000E-01  1.50000000E+00  1.50000000E+00  8.00000000E-01  8.00000000E-01
  1.50000000E+00  1.50000000E+00  8.00000000E-01  8.00000000E-01  1.50000000E+00
  1.50000000E+00  8.00000000E-01  8.00000000E-01  1.50000000E+00  1.50000000E+00
  8.00000000E-01  8.00000000E-01  1.50000000E+00  1.50000000E+00  8.00000000E-01
  8.00000000E-01  1.50000000E+00  1.50000000E+00  8.00000000E-01  8.00000000E-01
  1.50000000E+00  1.50000000E+00  8.00000000E-01  8.00000000E-01  1.50000000E+00
  1.50000000E+00  8.00000000E-01  8.00000000E-01  1.50000000E+00  1.50000000E+00
  8.00000000E-01  8.00000000E-01  1.50000000E+00  1.50000000E+00  8.00000000E-01
  8.00000000E-01  1.50000000E+00  1.50000000E+00  8.00000000E-01  8.00000000E-01
  1.50000000E+00  1.50000000E+00  8.00000000E-01  8.00000000E-01  1.50000000E+00
  1.50000000E+00  8.00000000E-01  8.00000000E-01  1.50000000E+00  1.50000000E+00
  8.00000000E-01  8.00000000E-01  1.50000000E+00  1.50000000E+00  8.00000000E-01
  8.00000000E-01  1.50000000E+00  1.50000000E+00  8.00000000E-01  8.00000000E-01
  1.50000000E+00  1.50000000E+00  8.00000000E-01  8.00000000E-01  1.50000000E+00
  1.50000000E+00  8.00000000E-01  8.00000000E-01  1.50000000E+00  1.50000000E+00
  8.00000000E-01  8.00000000E-01  1.50000000E+00  1.50000000E+00  8.00000000E-01
  8.00000000E-01  1.50000000E+00  1.50000000E+00  8.00000000E-01  8.00000000E-01
  1.50000000E+00  1.50000000E+00  8.00000000E-01  8.00000000E-01  1.50000000E+00
  1.50000000E+00  8.00000000E-01  8.00000000E-01  1.50000000E+00  1.50000000E+00
  8.00000000E-01  8.00000000E-01  1.50000000E+00  1.50000000E+00  8.00000000E-01
  8.00000000E-01  1.50000000E+00  1.50000000E+00  8.00000000E-01  8.00000000E-01
  1.50000000E+00  1.50000000E+00  8.00000000E-01  8.00000000E-01  1.50000000E+00
  1.50000000E+00  8.00000000E-01  8.00000000E-01  1.50000000E+00  1.50000000E+00
  8.00000000E-01  8.00000000E-01  1.50000000E+00  1.50000000E+00  8.00000000E-01
  8.00000000E-01  1.50000000E+00  1.50000000E+00  8.00000000E-01  8.00000000E-01
  1.50000000E+00  1.50000000E+00  8.00000000E-01  8.00000000E-01  1.50000000E+00
  1.50000000E+00  8.00000000E-01  8.00000000E-01  1.50000000E+00  1.50000000E+00
  8.00000000E-01  8.00000000E-01  1.50000000E+00  1.50000000E+00  8.00000000E-01
  8.00000000E-01  1.50000000E+00  1.50000000E+00  8.00000000E-01  8.00000000E-01
  1.50000000E+00  1.50000000E+00  8.00000000E-01  8.00000000E-01  1.50000000E+00
  1.50000000E+00  8.00000000E-01  8.00000000E-01  1.50000000E+00  1.50000000E+00
  8.00000000E-01  8.00000000E-01  1.50000000E+00  1.50000000E+00  8.00000000E-01
  8.00000000E-01  1.50000000E+00  1.50000000E+00  8.00000000E-01  8.00000000E-01
  1.50000000E+00  1.50000000E+00  8.00000000E-01  8.00000000E-01  1.50000000E+00
  1.50000000E+00  8.00000000E-01  8.00000000E-01  1.50000000E+00  1.50000000E+00
  8.00000000E-01  8.00000000E-01  1.50000000E+00  1.50000000E+00  8.00000000E-01
  8.00000000E-01  1.50000000E+00  1.50000000E+00  8.00000000E-01  8.00000000E-01
  1.50000000E+00  1.50000000E+00  8.00000000E-01  8.00000000E-01  1.50000000E+00
  1.50000000E+00  8.00000000E-01  8.00000000E-01  1.50000000E+00  1.50000000E+00
  8.00000000E-01  8.00000000E-01  1.50000000E+00  1.50000000E+00  8.00000000E-01
  8.00000000E-01  1.50000000E+00  1.50000000E+00  8.00000000E-01  8.00000000E-01
  1.50000000E+00  1.50000000E+00  8.00000000E-01  8.00000000E-01  1.50000000E+00
  1.50000000E+00  8.00000000E-01  8.00000000E-01  1.50000000E+00  1.50000000E+00
  8.00000000E-01  8.00000000E-01  1.50000000E+00  1.50000000E+00  8.00000000E-01
  8.00000000E-01  1.50000000E+00  1.50000000E+00  8.00000000E-01  8.00000000E-01
  1.50000000E+00  1.50000000E+00  8.00000000E-01  8.00000000E-01  1.50000000E+00
  1.50000000E+00  8.00000000E-01  8.00000000E-01  1.50000000E+00  1.50000000E+00
  8.00000000E-01  8.00000000E-01  1.50000000E+00  1.50000000E+00  8.00000000E-01
  8.00000000E-01  1.50000000E+00  1.50000000E+00  8.00000000E-01  8.00000000E-01
  1.50000000E+00  1.50000000E+00  8.00000000E-01  8.00000000E-01  1.50000000E+00
  1.50000000E+00  8.00000000E-01  8.00000000E-01  1.50000000E+00  1.50000000E+00
  8.00000000E-01  8.00000000E-01  1.50000000E+00  1.50000000E+00  8.00000000E-01
  8.00000000E-01  1.50000000E+00  1.50000000E+00  8.00000000E-01  8.00000000E-01
  1.50000000E+00  1.50000000E+00  8.00000000E-01  8.00000000E-01  1.50000000E+00
  1.50000000E+00  8.00000000E-01  8.00000000E-01  1.50000000E+00  1.50000000E+00
  8.00000000E-01  8.00000000E-01  1.50000000E+00  1.50000000E+00  8.00000000E-01
  8.00000000E-01  1.50000000E+00  1.50000000E+00  8.00000000E-01  8.00000000E-01
  1.50000000E+00  1.50000000E+00  8.00000000E-01  8.00000000E-01  1.50000000E+00
  1.50000000E+00  8.00000000E-01  8.00000000E-01  1.50000000E+00  1.50000000E+00
  8.00000000E-01  8.00000000E-01  1.50000000E+00  1.50000000E+00  8.00000000E-01
  8.00000000E-01  1.50000000E+00  1.50000000E+00  8.00000000E-01  8.00000000E-01
  1.50000000E+00  1.50000000E+00  8.00000000E-01  8.00000000E-01  1.50000000E+00
  1.50000000E+00  8.00000000E-01  8.00000000E-01  1.50000000E+00  1.50000000E+00
  8.00000000E-01  8.00000000E-01  1.50000000E+00  1.50000000E+00  8.00000000E-01
  8.00000000E-01  1.50000000E+00  1.50000000E+00  8.00000000E-01  8.00000000E-01
  1.50000000E+00  1.50000000E+00  8.00000000E-01  8.00000000E-01  1.50000000E+00
  1.50000000E+00  8.00000000E-01  8.00000000E-01  1.50000000E+00  1.50000000E+00
  8.00000000E-01  8.00000000E-01  1.50000000E+00  1.50000000E+00  8.00000000E-01
  8.00000000E-01  1.50000000E+00  1.50000000E+00  8.00000000E-01  8.00000000E-01
  1.50000000E+00  1.50000000E+00  8.00000000E-01  8.00000000E-01  1.50000000E+00
  1.50000000E+00  8.00000000E-01  8.00000000E-01  1.50000000E+00  1.50000000E+00
  8.00000000E-01  8.00000000E-01  1.50000000E+00  1.50000000E+00  8.00000000E-01
  8.00000000E-01  1.50000000E+00  1.50000000E+00  8.00000000E-01  8.00000000E-01
  1.50000000E+00  1.50000000E+00  8.00000000E-01  8.00000000E-01  1.50000000E+00
  1.50000000E+00  8.00000000E-01  8.00000000E-01  1.50000000E+00  1.50000000E+00
  8.00000000E-01  8.00000000E-01  1.50000000E+00  1.50000000E+00  8.00000000E-01
  8.00000000E-01  1.50000000E+00  1.50000000E+00  8.00000000E-01  8.00000000E-01
  1.50000000E+00  1.50000000E+00  8.00000000E-01  8.00000000E-01  1.50000000E+00
  1.50000000E+00  8.00000000E-01  8.00000000E-01  1.50000000E+00  1.50000000E+00
  8.00000000E-01  8.00000000E-01  1.50000000E+00  1.50000000E+00  8.00000000E-01
  8.00000000E-01  1.50000000E+00  1.50000000E+00  8.00000000E-01  8.00000000E-01
  1.50000000E+00  1.50000000E+00  8.00000000E-01  8.00000000E-01  1.50000000E+00
  1.50000000E+00  8.00000000E-01  8.00000000E-01  1.50000000E+00  1.50000000E+00
  8.00000000E-01  8.00000000E-01  1.50000000E+00  1.50000000E+00  8.00000000E-01
  8.00000000E-01  1.50000000E+00  1.50000000E+00  8.00000000E-01  8.00000000E-01
  1.50000000E+00  1.50000000E+00  8.00000000E-01  8.00000000E-01  1.50000000E+00
  1.50000000E+00  8.00000000E-01  8.00000000E-01  1.50000000E+00  1.50000000E+00
  8.00000000E-01  8.00000000E-01  1.50000000E+00  1.50000000E+00  8.00000000E-01
  8.00000000E-01  1.50000000E+00  1.50000000E+00  8.00000000E-01  8.00000000E-01
  1.50000000E+00  1.50000000E+00  8.00000000E-01  8.00000000E-01  1.50000000E+00
  1.50000000E+00  8.00000000E-01  8.00000000E-01  1.50000000E+00  1.50000000E+00
  8.00000000E-01  8.00000000E-01  1.50000000E+00  1.50000000E+00  8.00000000E-01
  8.00000000E-01  1.50000000E+00  1.50000000E+00  8.00000000E-01  8.00000000E-01
  1.50000000E+00  1.50000000E+00  8.00000000E-01  8.00000000E-01  1.50000000E+00
  1.50000000E+00  8.00000000E-01  8.00000000E-01  1.50000000E+00  1.50000000E+00
  8.00000000E-01  8.00000000E-01  1.50000000E+00  1.50000000E+00  8.00000000E-01
  8.00000000E-01  1.50000000E+00  1.50000000E+00  8.00000000E-01  8.00000000E-01
  1.50000000E+00  1.50000000E+00  8.00000000E-01  8.00000000E-01  1.50000000E+00
  1.50000000E+00  8.00000000E-01  8.00000000E-01  1.50000000E+00  1.50000000E+00
  8.00000000E-01  8.00000000E-01  1.50000000E+00  1.50000000E+00  8.00000000E-01
  8.00000000E-01  1.50000000E+00  1.50000000E+00  8.00000000E-01  8.00000000E-01
  1.50000000E+00  1.50000000E+00  8.00000000E-01  8.00000000E-01  1.50000000E+00
  1.50000000E+00  8.00000000E-01  8.00000000E-01  1.50000000E+00  1.50000000E+00
  8.00000000E-01  8.00000000E-01  1.50000000E+00  1.50000000E+00  8.00000000E-01
  8.00000000E-01  1.50000000E+00  1.50000000E+00  8.00000000E-01  8.00000000E-01
  1.50000000E+00  1.50000000E+00  8.00000000E-01  8.00000000E-01  1.50000000E+00
  1.50000000E+00  8.00000000E-01  8.00000000E-01  1.50000000E+00  1.50000000E+00
  8.00000000E-01  8.00000000E-01  1.50000000E+00  1.50000000E+00  8.00000000E-01
  8.00000000E-01  1.50000000E+00  1.50000000E+00  8.00000000E-01  8.00000000E-01
  1.50000000E+00  1.50000000E+00  8.00000000E-01  8.00000000E-01  1.50000000E+00
  1.50000000E+00  8.00000000E-01  8.00000000E-01  1.50000000E+00  1.50000000E+00
  8.00000000E-01  8.00000000E-01  1.50000000E+00  1.50000000E+00  8.00000000E-01
  8.00000000E-01  1.50000000E+00  1.50000000E+00  8.00000000E-01  8.00000000E-01
  1.50000000E+00  1.50000000E+00  8.00000000E-01  8.00000000E-01  1.50000000E+00
  1.50000000E+00  8.00000000E-01  8.00000000E-01  1.50000000E+00  1.50000000E+00
  8.00000000E-01  8.00000000E-01  1.50000000E+00  1.50000000E+00  8.00000000E-01
  8.00000000E-01  1.50000000E+00  1.50000000E+00  8.00000000E-01  8.00000000E-01
  1.50000000E+00  1.50000000E+00  8.00000000E-01  8.00000000E-01  1.50000000E+00
  1.50000000E+00  8.00000000E-01  8.00000000E-01  1.50000000E+00  1.50000000E+00
  8.00000000E-01  8.00000000E-01  1.50000000E+00  1.50000000E+00  8.00000000E-01
  8.00000000E-01  1.50000000E+00  1.50000000E+00  8.00000000E-01  8.00000000E-01
  1.50000000E+00  1.50000000E+00  8.00000000E-01  8.00000000E-01  1.50000000E+00
  1.50000000E+00  8.00000000E-01  8.00000000E-01  1.50000000E+00  1.50000000E+00
  8.00000000E-01  8.00000000E-01  1.50000000E+00  1.50000000E+00  8.00000000E-01
  8.00000000E-01  1.50000000E+00  1.50000000E+00  8.00000000E-01  8.00000000E-01
  1.50000000E+00  1.50000000E+00  8.00000000E-01  8.00000000E-01  1.50000000E+00
  1.50000000E+00  8.00000000E-01  8.00000000E-01  1.50000000E+00  1.50000000E+00
  8.00000000E-01  8.00000000E-01  1.50000000E+00  1.50000000E+00  8.00000000E-01
  8.00000000E-01  1.50000000E+00  1.50000000E+00  8.00000000E-01  8.00000000E-01
  1.50000000E+00  1.50000000E+00  8.00000000E-01  8.00000000E-01  1.50000000E+00
  1.50000000E+00  8.00000000E-01  8.00000000E-01  1.50000000E+00  1.50000000E+00
  8.00000000E-01  8.00000000E-01  1.50000000E+00  1.50000000E+00  8.00000000E-01
  8.00000000E-01  1.50000000E+00  1.50000000E+00  8.00000000E-01  8.00000000E-01
  1.50000000E+00  1.50000000E+00  8.00000000E-01  8.00000000E-01  1.50000000E+00
  1.50000000E+00  8.00000000E-01  8.00000000E-01  1.50000000E+00  1.50000000E+00
  8.00000000E-01  8.00000000E-01  1.50000000E+00  1.50000000E+00  8.00000000E-01
  8.00000000E-01  1.50000000E+00  1.50000000E+00  8.00000000E-01  8.00000000E-01
  1.50000000E+00  1.50000000E+00  8.00000000E-01  8.00000000E-01  1.50000000E+00
  1.50000000E+00  8.00000000E-01  8.00000000E-01  1.50000000E+00  1.50000000E+00
  8.00000000E-01  8.00000000E-01  1.50000000E+00  1.50000000E+00  8.00000000E-01
  8.00000000E-01  1.50000000E+00  1.50000000E+00  8.00000000E-01  8.00000000E-01
  1.50000000E+00  1.50000000E+00  8.00000000E-01  8.00000000E-01  1.50000000E+00
  1.50000000E+00  8.00000000E-01  8.00000000E-01  1.50000000E+00  1.50000000E+00
  8.00000000E-01  8.00000000E-01  1.50000000E+00  1.50000000E+00  8.00000000E-01
  8.00000000E-01  1.50000000E+00  1.50000000E+00  8.00000000E-01  8.00000000E-01
  1.50000000E+00  1.50000000E+00  8.00000000E-01  8.00000000E-01  1.50000000E+00
  1.50000000E+00  8.00000000E-01  8.00000000E-01  1.50000000E+00  1.50000000E+00
  8.00000000E-01  8.00000000E-01  1.50000000E+00  1.50000000E+00  8.00000000E-01
  8.00000000E-01  1.50000000E+00  1.50000000E+00  8.00000000E-01  8.00000000E-01
  1.50000000E+00  1.50000000E+00  8.00000000E-01  8.00000000E-01  1.50000000E+00
  1.50000000E+00  8.00000000E-01  8.00000000E-01  1.50000000E+00  1.50000000E+00
  8.00000000E-01  8.00000000E-01  1.50000000E+00  1.50000000E+00  8.00000000E-01
  8.00000000E-01  1.50000000E+00  1.50000000E+00  8.00000000E-01  8.00000000E-01
  1.50000000E+00  1.50000000E+00  8.00000000E-01  8.00000000E-01  1.50000000E+00
  1.50000000E+00  8.00000000E-01  8.00000000E-01  1.50000000E+00  1.50000000E+00
  8.00000000E-01  8.00000000E-01  1.50000000E+00  1.50000000E+00  8.00000000E-01
  8.00000000E-01  1.50000000E+00  1.50000000E+00  8.00000000E-01  8.00000000E-01
  1.50000000E+00  1.50000000E+00  8.00000000E-01  8.00000000E-01  1.50000000E+00
  1.50000000E+00  8.00000000E-01  8.00000000E-01  1.50000000E+00  1.50000000E+00
  8.00000000E-01  8.00000000E-01  1.50000000E+00  1.50000000E+00  8.00000000E-01
  8.00000000E-01  1.50000000E+00  1.50000000E+00  8.00000000E-01  8.00000000E-01
  1.50000000E+00  1.50000000E+00  8.00000000E-01  8.00000000E-01  1.50000000E+00
  1.50000000E+00  8.00000000E-01  8.00000000E-01  1.50000000E+00  1.50000000E+00
  8.00000000E-01  8.00000000E-01  1.50000000E+00  1.50000000E+00  8.00000000E-01
  8.00000000E-01  1.50000000E+00  1.50000000E+00  8.00000000E-01  8.00000000E-01
  1.50000000E+00  1.50000000E+00  8.00000000E-01  8.00000000E-01  1.50000000E+00
  1.50000000E+00  8.00000000E-01  8.00000000E-01  1.50000000E+00  1.50000000E+00
  8.00000000E-01  8.00000000E-01  1.50000000E+00  1.50000000E+00  8.00000000E-01
  8.00000000E-01  1.50000000E+00  1.50000000E+00  8.00000000E-01  8.00000000E-01
  1.50000000E+00  1.50000000E+00  8.00000000E-01  8.00000000E-01  1.50000000E+00
  1.50000000E+00  8.00000000E-01  8.00000000E-01  1.50000000E+00  1.50000000E+00
  8.00000000E-01  8.00000000E-01  1.50000000E+00  1.50000000E+00  8.00000000E-01
  8.00000000E-01  1.50000000E+00  1.50000000E+00  8.00000000E-01  8.00000000E-01
  1.50000000E+00  1.50000000E+00  8.00000000E-01  8.00000000E-01  1.50000000E+00
  1.50000000E+00  8.00000000E-01  8.00000000E-01  1.50000000E+00  1.50000000E+00
  8.00000000E-01  8.00000000E-01  1.50000000E+00  1.50000000E+00  8.00000000E-01
  8.00000000E-01  1.50000000E+00  1.50000000E+00  8.00000000E-01  8.00000000E-01
  1.50000000E+00  1.50000000E+00  8.00000000E-01  8.00000000E-01  1.50000000E+00
  1.50000000E+00  8.00000000E-01  8.00000000E-01  1.50000000E+00  1.50000000E+00
  8.00000000E-01  8.00000000E-01  1.50000000E+00  1.50000000E+00  8.00000000E-01
  8.00000000E-01  1.50000000E+00  1.50000000E+00  8.00000000E-01  8.00000000E-01
  1.50000000E+00  1.50000000E+00  8.00000000E-01  8.00000000E-01  1.50000000E+00
  1.50000000E+00  8.00000000E-01  8.00000000E-01  1.50000000E+00  1.50000000E+00
  8.00000000E-01  8.00000000E-01  1.50000000E+00  1.50000000E+00  8.00000000E-01
  8.00000000E-01  1.50000000E+00  1.50000000E+00  8.00000000E-01  8.00000000E-01
  1.50000000E+00  1.50000000E+00  8.00000000E-01  8.00000000E-01  1.50000000E+00
  1.50000000E+00  8.00000000E-01  8.00000000E-01  1.50000000E+00  1.50000000E+00
  8.00000000E-01  8.00000000E-01  1.50000000E+00  1.50000000E+00  8.00000000E-01
  8.00000000E-01  1.50000000E+00  1.50000000E+00  8.00000000E-01  8.00000000E-01
  1.50000000E+00  1.50000000E+00  8.00000000E-01  8.00000000E-01  1.50000000E+00
  1.50000000E+00  8.00000000E-01  8.00000000E-01  1.50000000E+00  1.50000000E+00
  8.00000000E-01  8.00000000E-01  1.50000000E+00  1.50000000E+00  8.00000000E-01
  8.00000000E-01  1.50000000E+00  1.50000000E+00  8.00000000E-01  8.00000000E-01
  1.50000000E+00  1.50000000E+00  8.00000000E-01  8.00000000E-01  1.50000000E+00
  1.50000000E+00  8.00000000E-01  8.00000000E-01  1.50000000E+00  1.50000000E+00
  8.00000000E-01  8.00000000E-01  1.50000000E+00  1.50000000E+00  8.00000000E-01
  8.00000000E-01  1.50000000E+00  1.50000000E+00  8.00000000E-01  8.00000000E-01
  1.50000000E+00  1.50000000E+00  8.00000000E-01  8.00000000E-01  1.50000000E+00
  1.50000000E+00  8.00000000E-01  8.00000000E-01  1.50000000E+00  1.50000000E+00
  8.00000000E-01  8.00000000E-01  1.50000000E+00  1.50000000E+00  8.00000000E-01
  8.00000000E-01  1.50000000E+00  1.50000000E+00  8.00000000E-01  8.00000000E-01
  1.50000000E+00  1.50000000E+00  8.00000000E-01  8.00000000E-01  1.50000000E+00
  1.50000000E+00  8.00000000E-01  8.00000000E-01  1.50000000E+00  1.50000000E+00
  8.00000000E-01  8.00000000E-01  1.50000000E+00  1.50000000E+00  8.00000000E-01
  8.00000000E-01  1.50000000E+00  1.50000000E+00  8.00000000E-01  8.00000000E-01
  1.50000000E+00  1.50000000E+00  8.00000000E-01  8.00000000E-01  1.50000000E+00
  1.50000000E+00  8.00000000E-01  8.00000000E-01  1.50000000E+00  1.50000000E+00
  8.00000000E-01  8.00000000E-01  1.50000000E+00  1.50000000E+00  8.00000000E-01
  8.00000000E-01  1.50000000E+00  1.50000000E+00  8.00000000E-01  8.00000000E-01
  1.50000000E+00  1.50000000E+00  8.00000000E-01  8.00000000E-01  1.50000000E+00
  1.50000000E+00  8.00000000E-01  8.00000000E-01  1.50000000E+00  1.50000000E+00
  8.00000000E-01  8.00000000E-01  1.50000000E+00  1.50000000E+00  8.00000000E-01
  8.00000000E-01  1.50000000E+00  1.50000000E+00  8.00000000E-01  8.00000000E-01
  1.50000000E+00  1.50000000E+00  8.00000000E-01  8.00000000E-01  1.50000000E+00
  1.50000000E+00  8.00000000E-01  8.00000000E-01  1.50000000E+00  1.50000000E+00
  8.00000000E-01  8.00000000E-01  1.50000000E+00  1.50000000E+00  8.00000000E-01
  8.00000000E-01  1.50000000E+00  1.50000000E+00  8.00000000E-01  8.00000000E-01
  1.50000000E+00  1.50000000E+00  8.00000000E-01  8.00000000E-01  1.50000000E+00
  1.50000000E+00  8.00000000E-01  8.00000000E-01  1.50000000E+00  1.50000000E+00
  8.00000000E-01  8.00000000E-01  1.50000000E+00  1.50000000E+00  8.00000000E-01
  8.00000000E-01  1.50000000E+00  1.50000000E+00  8.00000000E-01  8.00000000E-01
  1.50000000E+00  1.50000000E+00  8.00000000E-01  8.00000000E-01  1.50000000E+00
  1.50000000E+00  8.00000000E-01  8.00000000E-01  1.50000000E+00  1.50000000E+00
  8.00000000E-01  8.00000000E-01  1.50000000E+00  1.50000000E+00  8.00000000E-01
  8.00000000E-01  1.50000000E+00  1.50000000E+00  8.00000000E-01  8.00000000E-01
  1.50000000E+00  1.50000000E+00  8.00000000E-01  8.00000000E-01  1.50000000E+00
  1.50000000E+00  8.00000000E-01  8.00000000E-01  1.50000000E+00  1.50000000E+00
  8.00000000E-01  8.00000000E-01  1.50000000E+00  1.50000000E+00  8.00000000E-01
  8.00000000E-01  1.50000000E+00  1.50000000E+00  8.00000000E-01  8.00000000E-01
  1.50000000E+00  1.50000000E+00  8.00000000E-01  8.00000000E-01  1.50000000E+00
  1.50000000E+00  8.00000000E-01  8.00000000E-01  1.50000000E+00  1.50000000E+00
  8.00000000E-01  8.00000000E-01  1.50000000E+00  1.50000000E+00  8.00000000E-01
  8.00000000E-01  1.50000000E+00  1.50000000E+00  8.00000000E-01  8.00000000E-01
  1.50000000E+00  1.50000000E+00  8.00000000E-01  8.00000000E-01  1.50000000E+00
  1.50000000E+00  8.00000000E-01  8.00000000E-01  1.50000000E+00  1.50000000E+00
  8.00000000E-01  8.00000000E-01  1.50000000E+00  1.50000000E+00  8.00000000E-01
  8.00000000E-01  1.50000000E+00  1.50000000E+00  8.00000000E-01  8.00000000E-01
  1.50000000E+00  1.50000000E+00  8.00000000E-01  8.00000000E-01  1.50000000E+00
  1.50000000E+00  8.00000000E-01  8.00000000E-01  1.50000000E+00  1.50000000E+00
  8.00000000E-01  8.00000000E-01  1.50000000E+00  1.50000000E+00  8.00000000E-01
  8.00000000E-01  1.50000000E+00  1.50000000E+00  8.00000000E-01  8.00000000E-01
  1.50000000E+00  1.50000000E+00  8.00000000E-01  8.00000000E-01  1.50000000E+00
  1.50000000E+00  8.00000000E-01  8.00000000E-01  1.50000000E+00  1.50000000E+00
  8.00000000E-01  8.00000000E-01  1.50000000E+00  1.50000000E+00  8.00000000E-01
  8.00000000E-01  1.50000000E+00  1.50000000E+00  8.00000000E-01  8.00000000E-01
  1.50000000E+00  1.50000000E+00  8.00000000E-01  8.00000000E-01  1.50000000E+00
  1.50000000E+00  8.00000000E-01  8.00000000E-01  1.50000000E+00  1.50000000E+00
  8.00000000E-01  8.00000000E-01  1.50000000E+00  1.50000000E+00  8.00000000E-01
  8.00000000E-01  1.50000000E+00  1.50000000E+00  8.00000000E-01  8.00000000E-01
  1.50000000E+00  1.50000000E+00  8.00000000E-01  8.00000000E-01  1.50000000E+00
  1.50000000E+00  8.00000000E-01  8.00000000E-01  1.50000000E+00  1.50000000E+00
  8.00000000E-01  8.00000000E-01  1.50000000E+00  1.50000000E+00  8.00000000E-01
  8.00000000E-01  1.50000000E+00  1.50000000E+00  8.00000000E-01  8.00000000E-01
  1.50000000E+00  1.50000000E+00  8.00000000E-01  8.00000000E-01  1.50000000E+00
  1.50000000E+00  8.00000000E-01  8.00000000E-01  1.50000000E+00  1.50000000E+00
  8.00000000E-01  8.00000000E-01  1.50000000E+00  1.50000000E+00  8.00000000E-01
  8.00000000E-01  1.50000000E+00  1.50000000E+00  8.00000000E-01  8.00000000E-01
  1.50000000E+00  1.50000000E+00  8.00000000E-01  8.00000000E-01  1.50000000E+00
  1.50000000E+00  8.00000000E-01  8.00000000E-01  1.50000000E+00  1.50000000E+00
  8.00000000E-01  8.00000000E-01  1.50000000E+00  1.50000000E+00  8.00000000E-01
  8.00000000E-01  1.50000000E+00  1.50000000E+00  8.00000000E-01  8.00000000E-01
  1.50000000E+00  1.50000000E+00  8.00000000E-01  8.00000000E-01  1.50000000E+00
  1.50000000E+00  8.00000000E-01  8.00000000E-01  1.50000000E+00  1.50000000E+00
  8.00000000E-01  8.00000000E-01  1.50000000E+00  1.50000000E+00  8.00000000E-01
  8.00000000E-01  1.50000000E+00  1.50000000E+00  8.00000000E-01  8.00000000E-01
  1.50000000E+00  1.50000000E+00  8.00000000E-01  8.00000000E-01  1.50000000E+00
  1.50000000E+00  8.00000000E-01  8.00000000E-01  1.50000000E+00  1.50000000E+00
  8.00000000E-01  8.00000000E-01  1.50000000E+00  1.50000000E+00  8.00000000E-01
  8.00000000E-01  1.50000000E+00  1.50000000E+00  8.00000000E-01  8.00000000E-01
  1.50000000E+00  1.50000000E+00  8.00000000E-01  8.00000000E-01  1.50000000E+00
  1.50000000E+00  8.00000000E-01  8.00000000E-01  1.50000000E+00  1.50000000E+00
  8.00000000E-01  8.00000000E-01  1.50000000E+00  1.50000000E+00  8.00000000E-01
  8.00000000E-01  1.50000000E+00  1.50000000E+00  8.00000000E-01  8.00000000E-01
  1.50000000E+00  1.50000000E+00  8.00000000E-01  8.00000000E-01  1.50000000E+00
  1.50000000E+00  8.00000000E-01  8.00000000E-01  1.50000000E+00  1.50000000E+00
  8.00000000E-01  8.00000000E-01  1.50000000E+00  1.50000000E+00  8.00000000E-01
  8.00000000E-01  1.50000000E+00  1.50000000E+00  8.00000000E-01  8.00000000E-01
  1.50000000E+00  1.50000000E+00  8.00000000E-01  8.00000000E-01  1.50000000E+00
  1.50000000E+00  8.00000000E-01  8.00000000E-01  1.50000000E+00  1.50000000E+00
  8.00000000E-01  8.00000000E-01  1.50000000E+00  1.50000000E+00  8.00000000E-01
  8.00000000E-01  1.50000000E+00  1.50000000E+00  8.00000000E-01  8.00000000E-01
  1.50000000E+00  1.50000000E+00  8.00000000E-01  8.00000000E-01  1.50000000E+00
  1.50000000E+00  8.00000000E-01  8.00000000E-01  1.50000000E+00  1.50000000E+00
  8.00000000E-01  8.00000000E-01  1.50000000E+00  1.50000000E+00  8.00000000E-01
  8.00000000E-01  1.50000000E+00  1.50000000E+00  8.00000000E-01  8.00000000E-01
  1.50000000E+00  1.50000000E+00  8.00000000E-01  8.00000000E-01  1.50000000E+00
  1.50000000E+00  8.00000000E-01  8.00000000E-01  1.50000000E+00  1.50000000E+00
  8.00000000E-01  8.00000000E-01  1.50000000E+00  1.50000000E+00  8.00000000E-01
  8.00000000E-01  1.50000000E+00  1.50000000E+00  8.00000000E-01  8.00000000E-01
  1.50000000E+00  1.50000000E+00  8.00000000E-01  8.00000000E-01  1.50000000E+00
  1.50000000E+00  8.00000000E-01  8.00000000E-01  1.50000000E+00  1.50000000E+00
  8.00000000E-01  8.00000000E-01  1.50000000E+00  1.50000000E+00  8.00000000E-01
  8.00000000E-01  1.50000000E+00  1.50000000E+00  8.00000000E-01  8.00000000E-01
  1.50000000E+00  1.50000000E+00  8.00000000E-01  8.00000000E-01  1.50000000E+00
  1.50000000E+00  8.00000000E-01  8.00000000E-01  1.50000000E+00  1.50000000E+00
  8.00000000E-01  8.00000000E-01  1.50000000E+00  1.50000000E+00  8.00000000E-01
  8.00000000E-01  1.50000000E+00  1.50000000E+00  8.00000000E-01  8.00000000E-01
  1.50000000E+00  1.50000000E+00  8.00000000E-01  8.00000000E-01  1.50000000E+00
  1.50000000E+00  8.00000000E-01  8.00000000E-01  1.50000000E+00  1.50000000E+00
  8.00000000E-01  8.00000000E-01  1.50000000E+00  1.50000000E+00  8.00000000E-01
  8.00000000E-01  1.50000000E+00  1.50000000E+00  8.00000000E-01  8.00000000E-01
  1.50000000E+00  1.50000000E+00  8.00000000E-01  8.00000000E-01  1.50000000E+00
  1.50000000E+00  8.00000000E-01  8.00000000E-01  1.50000000E+00  1.50000000E+00
  8.00000000E-01  8.00000000E-01  1.50000000E+00  1.50000000E+00  8.00000000E-01
  8.00000000E-01  1.50000000E+00  1.50000000E+00  8.00000000E-01  8.00000000E-01
  1.50000000E+00  1.50000000E+00  8.00000000E-01  8.00000000E-01  1.50000000E+00
  1.50000000E+00  8.00000000E-01  8.00000000E-01  1.50000000E+00  1.50000000E+00
  8.00000000E-01  8.00000000E-01  1.50000000E+00  1.50000000E+00  8.00000000E-01
  8.00000000E-01  1.50000000E+00  1.50000000E+00  8.00000000E-01  8.00000000E-01
  1.50000000E+00  1.50000000E+00  8.00000000E-01  8.00000000E-01  1.50000000E+00
  1.50000000E+00  8.00000000E-01  8.00000000E-01  1.50000000E+00  1.50000000E+00
  8.00000000E-01  8.00000000E-01  1.50000000E+00  1.50000000E+00  8.00000000E-01
  8.00000000E-01  1.50000000E+00  1.50000000E+00  8.00000000E-01  8.00000000E-01
  1.50000000E+00  1.50000000E+00  8.00000000E-01  8.00000000E-01  1.50000000E+00
  1.50000000E+00  8.00000000E-01  8.00000000E-01  1.50000000E+00  1.50000000E+00
  8.00000000E-01  8.00000000E-01  1.50000000E+00  1.50000000E+00  8.00000000E-01
  8.00000000E-01  1.50000000E+00  1.50000000E+00  8.00000000E-01  8.00000000E-01
  1.50000000E+00  1.50000000E+00  8.00000000E-01  8.00000000E-01  1.50000000E+00
  1.50000000E+00  8.00000000E-01  8.00000000E-01  1.50000000E+00  1.50000000E+00
  8.00000000E-01  8.00000000E-01  1.50000000E+00  1.50000000E+00  8.00000000E-01
  8.00000000E-01  1.50000000E+00  1.50000000E+00  8.00000000E-01  8.00000000E-01
  1.50000000E+00  1.50000000E+00  8.00000000E-01  8.00000000E-01  1.50000000E+00
  1.50000000E+00  8.00000000E-01  8.00000000E-01  1.50000000E+00  1.50000000E+00
  8.00000000E-01  8.00000000E-01  1.50000000E+00  1.50000000E+00  8.00000000E-01
  8.00000000E-01  1.50000000E+00  1.50000000E+00  8.00000000E-01  8.00000000E-01
  1.50000000E+00  1.50000000E+00  8.00000000E-01  8.00000000E-01  1.50000000E+00
  1.50000000E+00  8.00000000E-01  8.00000000E-01  1.50000000E+00  1.50000000E+00
  8.00000000E-01  8.00000000E-01  1.50000000E+00  1.50000000E+00  8.00000000E-01
  8.00000000E-01  1.50000000E+00  1.50000000E+00  8.00000000E-01  8.00000000E-01
  1.50000000E+00  1.50000000E+00  8.00000000E-01  8.00000000E-01  1.50000000E+00
  1.50000000E+00  8.00000000E-01  8.00000000E-01  1.50000000E+00  1.50000000E+00
  8.00000000E-01  8.00000000E-01  1.50000000E+00  1.50000000E+00  8.00000000E-01
  8.00000000E-01  1.50000000E+00  1.50000000E+00  8.00000000E-01  8.00000000E-01
  1.50000000E+00  1.50000000E+00  8.00000000E-01  8.00000000E-01  1.50000000E+00
  1.50000000E+00  8.00000000E-01  8.00000000E-01  1.50000000E+00  1.50000000E+00
  8.00000000E-01  8.00000000E-01  1.50000000E+00  1.50000000E+00  8.00000000E-01
  8.00000000E-01  1.50000000E+00  1.50000000E+00  8.00000000E-01  8.00000000E-01
  1.50000000E+00  1.50000000E+00  8.00000000E-01  8.00000000E-01  1.50000000E+00
  1.50000000E+00  8.00000000E-01  8.00000000E-01  1.50000000E+00  1.50000000E+00
  8.00000000E-01  8.00000000E-01  1.50000000E+00  1.50000000E+00  8.00000000E-01
  8.00000000E-01  1.50000000E+00  1.50000000E+00  8.00000000E-01  8.00000000E-01
  1.50000000E+00  1.50000000E+00  8.00000000E-01  8.00000000E-01  1.50000000E+00
  1.50000000E+00  8.00000000E-01  8.00000000E-01  1.50000000E+00  1.50000000E+00
  8.00000000E-01  8.00000000E-01  1.50000000E+00  1.50000000E+00  8.00000000E-01
  8.00000000E-01  1.50000000E+00  1.50000000E+00  8.00000000E-01  8.00000000E-01
  1.50000000E+00  1.50000000E+00  8.00000000E-01  8.00000000E-01  1.50000000E+00
  1.50000000E+00  8.00000000E-01  8.00000000E-01  1.50000000E+00  1.50000000E+00
  8.00000000E-01  8.00000000E-01  1.50000000E+00  1.50000000E+00  8.00000000E-01
  8.00000000E-01  1.50000000E+00  1.50000000E+00  8.00000000E-01  8.00000000E-01
  1.50000000E+00  1.50000000E+00  8.00000000E-01  8.00000000E-01  1.50000000E+00
  1.50000000E+00  8.00000000E-01  8.00000000E-01  1.50000000E+00  1.50000000E+00
  8.00000000E-01  8.00000000E-01  1.50000000E+00  1.50000000E+00  8.00000000E-01
  8.00000000E-01  1.50000000E+00  1.50000000E+00  8.00000000E-01  8.00000000E-01
  1.50000000E+00  1.50000000E+00  8.00000000E-01  8.00000000E-01  1.50000000E+00
  1.50000000E+00  8.00000000E-01  8.00000000E-01  1.50000000E+00  1.50000000E+00
  8.00000000E-01  8.00000000E-01  1.50000000E+00  1.50000000E+00  8.00000000E-01
  8.00000000E-01  1.50000000E+00  1.50000000E+00  8.00000000E-01  8.00000000E-01
  1.50000000E+00  1.50000000E+00  8.00000000E-01  8.00000000E-01  1.50000000E+00
  1.50000000E+00  8.00000000E-01  8.00000000E-01  1.50000000E+00  1.50000000E+00
  8.00000000E-01  8.00000000E-01  1.50000000E+00  1.50000000E+00  8.00000000E-01
  8.00000000E-01  1.50000000E+00  1.50000000E+00  8.00000000E-01  8.00000000E-01
  1.50000000E+00  1.50000000E+00  8.00000000E-01  8.00000000E-01  1.50000000E+00
  1.50000000E+00  8.00000000E-01  8.00000000E-01  1.50000000E+00  1.50000000E+00
  8.00000000E-01  8.00000000E-01  1.50000000E+00  1.50000000E+00  8.00000000E-01
  8.00000000E-01  1.50000000E+00  1.50000000E+00  8.00000000E-01  8.00000000E-01
  1.50000000E+00  1.50000000E+00  8.00000000E-01  8.00000000E-01  1.50000000E+00
  1.50000000E+00  8.00000000E-01  8.00000000E-01  1.50000000E+00  1.50000000E+00
  8.00000000E-01  8.00000000E-01  1.50000000E+00  1.50000000E+00  8.00000000E-01
  8.00000000E-01  1.50000000E+00  1.50000000E+00  8.00000000E-01  8.00000000E-01
  1.50000000E+00  1.50000000E+00  8.00000000E-01  8.00000000E-01  1.50000000E+00
  1.50000000E+00  8.00000000E-01  8.00000000E-01  1.50000000E+00  1.50000000E+00
  8.00000000E-01  8.00000000E-01  1.50000000E+00  1.50000000E+00  8.00000000E-01
  8.00000000E-01  1.50000000E+00  1.50000000E+00  8.00000000E-01  8.00000000E-01
  1.50000000E+00  1.50000000E+00  8.00000000E-01  8.00000000E-01  1.50000000E+00
  1.50000000E+00  8.00000000E-01  8.00000000E-01  1.50000000E+00  1.50000000E+00
  8.00000000E-01  8.00000000E-01  1.50000000E+00  1.50000000E+00  8.00000000E-01
  8.00000000E-01  1.50000000E+00  1.50000000E+00  8.00000000E-01  8.00000000E-01
  1.50000000E+00  1.50000000E+00  8.00000000E-01  8.00000000E-01  1.50000000E+00
  1.50000000E+00  8.00000000E-01  8.00000000E-01  1.50000000E+00  1.50000000E+00
  8.00000000E-01  8.00000000E-01  1.50000000E+00  1.50000000E+00  8.00000000E-01
  8.00000000E-01  1.50000000E+00  1.50000000E+00  8.00000000E-01  8.00000000E-01
  1.50000000E+00  1.50000000E+00  8.00000000E-01  8.00000000E-01  1.50000000E+00
  1.50000000E+00  8.00000000E-01  8.00000000E-01  1.50000000E+00  1.50000000E+00
  8.00000000E-01  8.00000000E-01  1.50000000E+00  1.50000000E+00  8.00000000E-01
  8.00000000E-01  1.50000000E+00  1.50000000E+00  8.00000000E-01  8.00000000E-01
  1.50000000E+00  1.50000000E+00  8.00000000E-01  8.00000000E-01  1.50000000E+00
  1.50000000E+00  8.00000000E-01  8.00000000E-01  1.50000000E+00  1.50000000E+00
  8.00000000E-01  8.00000000E-01  1.50000000E+00  1.50000000E+00  8.00000000E-01
  8.00000000E-01  1.50000000E+00  1.50000000E+00  8.00000000E-01  8.00000000E-01
  1.50000000E+00  1.50000000E+00  8.00000000E-01  8.00000000E-01  1.50000000E+00
  1.50000000E+00  8.00000000E-01  8.00000000E-01  1.50000000E+00  1.50000000E+00
  8.00000000E-01  8.00000000E-01  1.50000000E+00  1.50000000E+00  8.00000000E-01
  8.00000000E-01  1.50000000E+00  1.50000000E+00  8.00000000E-01  8.00000000E-01
  1.50000000E+00  1.50000000E+00  8.00000000E-01  8.00000000E-01  1.50000000E+00
  1.50000000E+00  8.00000000E-01  8.00000000E-01  1.50000000E+00  1.50000000E+00
  8.00000000E-01  8.00000000E-01  1.50000000E+00  1.50000000E+00  8.00000000E-01
  8.00000000E-01  1.50000000E+00  1.50000000E+00  8.00000000E-01  8.00000000E-01
  1.50000000E+00  1.50000000E+00  8.00000000E-01  8.00000000E-01  1.50000000E+00
  1.50000000E+00  8.00000000E-01  8.00000000E-01  1.50000000E+00  1.50000000E+00
  8.00000000E-01  8.00000000E-01  1.50000000E+00  1.50000000E+00  8.00000000E-01
  8.00000000E-01  1.50000000E+00  1.50000000E+00  8.00000000E-01  8.00000000E-01
  1.50000000E+00  1.50000000E+00  8.00000000E-01  8.00000000E-01  1.50000000E+00
  1.50000000E+00  8.00000000E-01  8.00000000E-01  1.50000000E+00  1.50000000E+00
  8.00000000E-01  8.00000000E-01  1.50000000E+00  1.50000000E+00  8.00000000E-01
  8.00000000E-01  1.50000000E+00  1.50000000E+00  8.00000000E-01  8.00000000E-01
  1.50000000E+00  1.50000000E+00  8.00000000E-01  8.00000000E-01  1.50000000E+00
  1.50000000E+00  8.00000000E-01  8.00000000E-01  1.50000000E+00  1.50000000E+00
  8.00000000E-01  8.00000000E-01  1.50000000E+00  1.50000000E+00  8.00000000E-01
  8.00000000E-01  1.50000000E+00  1.50000000E+00  8.00000000E-01  8.00000000E-01
  1.50000000E+00  1.50000000E+00  8.00000000E-01  8.00000000E-01  1.50000000E+00
  1.50000000E+00  8.00000000E-01  8.00000000E-01  1.50000000E+00  1.50000000E+00
  8.00000000E-01  8.00000000E-01  1.50000000E+00  1.50000000E+00  8.00000000E-01
  8.00000000E-01  1.50000000E+00  1.50000000E+00  8.00000000E-01  8.00000000E-01
  1.50000000E+00  1.50000000E+00  8.00000000E-01  8.00000000E-01  1.50000000E+00
  1.50000000E+00  8.00000000E-01  8.00000000E-01  1.50000000E+00  1.50000000E+00
  8.00000000E-01  8.00000000E-01  1.50000000E+00  1.50000000E+00  8.00000000E-01
  8.00000000E-01  1.50000000E+00  1.50000000E+00  8.00000000E-01  8.00000000E-01
  1.50000000E+00  1.50000000E+00  8.00000000E-01  8.00000000E-01  1.50000000E+00
  1.50000000E+00  8.00000000E-01  8.00000000E-01  1.50000000E+00  1.50000000E+00
  8.00000000E-01  8.00000000E-01  1.50000000E+00  1.50000000E+00  8.00000000E-01
  8.00000000E-01  1.50000000E+00  1.50000000E+00  8.00000000E-01  8.00000000E-01
  1.50000000E+00  1.50000000E+00  8.00000000E-01  8.00000000E-01  1.50000000E+00
  1.50000000E+00  8.00000000E-01  8.00000000E-01  1.50000000E+00  1.50000000E+00
  8.00000000E-01  8.00000000E-01  1.50000000E+00  1.50000000E+00  8.00000000E-01
  8.00000000E-01  1.50000000E+00  1.50000000E+00  8.00000000E-01  8.00000000E-01
  1.50000000E+00  1.50000000E+00  8.00000000E-01  8.00000000E-01  1.50000000E+00
  1.50000000E+00  8.00000000E-01  8.00000000E-01  1.50000000E+00  1.50000000E+00
  8.00000000E-01  8.00000000E-01  1.50000000E+00  1.50000000E+00  8.00000000E-01
  8.00000000E-01  1.50000000E+00  1.50000000E+00  8.00000000E-01  8.00000000E-01
  1.50000000E+00  1.50000000E+00  8.00000000E-01  8.00000000E-01  1.50000000E+00
  1.50000000E+00  8.00000000E-01  8.00000000E-01  1.50000000E+00  1.50000000E+00
  8.00000000E-01  8.00000000E-01  1.50000000E+00  1.50000000E+00  8.00000000E-01
  8.00000000E-01  1.50000000E+00  1.50000000E+00  8.00000000E-01  8.00000000E-01
  1.50000000E+00  1.50000000E+00  8.00000000E-01  8.00000000E-01  1.50000000E+00
  1.50000000E+00  8.00000000E-01  8.00000000E-01  1.50000000E+00  1.50000000E+00
  8.00000000E-01  8.00000000E-01  1.50000000E+00  1.50000000E+00  8.00000000E-01
  8.00000000E-01  1.50000000E+00  1.50000000E+00  8.00000000E-01  8.00000000E-01
  1.50000000E+00  1.50000000E+00  8.00000000E-01  8.00000000E-01  1.50000000E+00
  1.50000000E+00  8.00000000E-01  8.00000000E-01  1.50000000E+00  1.50000000E+00
  8.00000000E-01  8.00000000E-01  1.50000000E+00  1.50000000E+00  8.00000000E-01
  8.00000000E-01  1.50000000E+00  1.50000000E+00  8.00000000E-01  8.00000000E-01
  1.50000000E+00  1.50000000E+00  8.00000000E-01  8.00000000E-01  1.50000000E+00
  1.50000000E+00  8.00000000E-01  8.00000000E-01  1.50000000E+00  1.50000000E+00
  8.00000000E-01  8.00000000E-01  1.50000000E+00  1.50000000E+00  8.00000000E-01
  8.00000000E-01  1.50000000E+00  1.50000000E+00  8.00000000E-01  8.00000000E-01
  1.50000000E+00  1.50000000E+00  8.00000000E-01  8.00000000E-01  1.50000000E+00
  1.50000000E+00  8.00000000E-01  8.00000000E-01  1.50000000E+00  1.50000000E+00
  8.00000000E-01  8.00000000E-01  1.50000000E+00  1.50000000E+00  8.00000000E-01
  8.00000000E-01  1.50000000E+00  1.50000000E+00  8.00000000E-01  8.00000000E-01
  1.50000000E+00  1.50000000E+00  8.00000000E-01  8.00000000E-01  1.50000000E+00
  1.50000000E+00  8.00000000E-01  8.00000000E-01  1.50000000E+00  1.50000000E+00
  8.00000000E-01  8.00000000E-01  1.50000000E+00  1.50000000E+00  8.00000000E-01
  8.00000000E-01  1.50000000E+00  1.50000000E+00  8.00000000E-01  8.00000000E-01
  1.50000000E+00  1.50000000E+00  8.00000000E-01  8.00000000E-01  1.50000000E+00
  1.50000000E+00  8.00000000E-01  8.00000000E-01  1.50000000E+00  1.50000000E+00
  8.00000000E-01  8.00000000E-01  1.50000000E+00  1.50000000E+00  8.00000000E-01
  8.00000000E-01  1.50000000E+00  1.50000000E+00  8.00000000E-01  8.00000000E-01
  1.50000000E+00  1.50000000E+00  8.00000000E-01  8.00000000E-01  1.50000000E+00
  1.50000000E+00  8.00000000E-01  8.00000000E-01  1.50000000E+00  1.50000000E+00
  8.00000000E-01  8.00000000E-01  1.50000000E+00  1.50000000E+00  8.00000000E-01
  8.00000000E-01  1.50000000E+00  1.50000000E+00  8.00000000E-01  8.00000000E-01
  1.50000000E+00  1.50000000E+00  8.00000000E-01  8.00000000E-01  1.50000000E+00
  1.50000000E+00  8.00000000E-01  8.00000000E-01  1.50000000E+00  1.50000000E+00
  8.00000000E-01  8.00000000E-01  1.50000000E+00  1.50000000E+00  8.00000000E-01
  8.00000000E-01  1.50000000E+00  1.50000000E+00  8.00000000E-01  8.00000000E-01
  1.50000000E+00  1.50000000E+00  8.00000000E-01  8.00000000E-01  1.50000000E+00
  1.50000000E+00  8.00000000E-01  8.00000000E-01  1.50000000E+00  1.50000000E+00
  8.00000000E-01  8.00000000E-01  1.50000000E+00  1.50000000E+00  8.00000000E-01
  8.00000000E-01  1.50000000E+00  1.50000000E+00  8.00000000E-01  8.00000000E-01
  1.50000000E+00  1.50000000E+00  8.00000000E-01  8.00000000E-01  1.50000000E+00
  1.50000000E+00  8.00000000E-01  8.00000000E-01  1.50000000E+00  1.50000000E+00
  8.00000000E-01  8.00000000E-01  1.50000000E+00  1.50000000E+00  8.00000000E-01
  8.00000000E-01  1.50000000E+00  1.50000000E+00  8.00000000E-01  8.00000000E-01
  1.50000000E+00  1.50000000E+00  8.00000000E-01  8.00000000E-01  1.50000000E+00
  1.50000000E+00  8.00000000E-01  8.00000000E-01  1.50000000E+00  1.50000000E+00
  8.00000000E-01  8.00000000E-01  1.50000000E+00  1.50000000E+00  8.00000000E-01
  8.00000000E-01  1.50000000E+00  1.50000000E+00  8.00000000E-01  8.00000000E-01
  1.50000000E+00  1.50000000E+00  8.00000000E-01  8.00000000E-01  1.50000000E+00
  1.50000000E+00  8.00000000E-01  8.00000000E-01  1.50000000E+00  1.50000000E+00
  8.00000000E-01  8.00000000E-01  1.50000000E+00  1.50000000E+00  8.00000000E-01
  8.00000000E-01  1.50000000E+00  1.50000000E+00  8.00000000E-01  8.00000000E-01
  1.50000000E+00  1.50000000E+00  8.00000000E-01  8.00000000E-01  1.50000000E+00
  1.50000000E+00  8.00000000E-01  8.00000000E-01  1.50000000E+00  1.50000000E+00
  8.00000000E-01  8.00000000E-01  1.50000000E+00  1.50000000E+00  8.00000000E-01
  8.00000000E-01  1.50000000E+00  1.50000000E+00  8.00000000E-01  8.00000000E-01
  1.50000000E+00  1.50000000E+00  8.00000000E-01  8.00000000E-01  1.50000000E+00
  1.50000000E+00  8.00000000E-01  8.00000000E-01  1.50000000E+00  1.50000000E+00
  8.00000000E-01  8.00000000E-01  1.50000000E+00  1.50000000E+00  8.00000000E-01
  8.00000000E-01  1.50000000E+00  1.50000000E+00  8.00000000E-01  8.00000000E-01
  1.50000000E+00  1.50000000E+00  8.00000000E-01  8.00000000E-01  1.50000000E+00
  1.50000000E+00  8.00000000E-01  8.00000000E-01  1.50000000E+00  1.50000000E+00
  8.00000000E-01  8.00000000E-01  1.50000000E+00  1.50000000E+00  8.00000000E-01
  8.00000000E-01  1.50000000E+00  1.50000000E+00  8.00000000E-01  8.00000000E-01
  1.50000000E+00  1.50000000E+00  8.00000000E-01  8.00000000E-01  1.50000000E+00
  1.50000000E+00  8.00000000E-01  8.00000000E-01  1.50000000E+00  1.50000000E+00
  8.00000000E-01  8.00000000E-01  1.50000000E+00  1.50000000E+00  8.00000000E-01
  8.00000000E-01  1.50000000E+00  1.50000000E+00  8.00000000E-01  8.00000000E-01
  1.50000000E+00  1.50000000E+00  8.00000000E-01  8.00000000E-01  1.50000000E+00
  1.50000000E+00  8.00000000E-01  8.00000000E-01  1.50000000E+00  1.50000000E+00
  8.00000000E-01  8.00000000E-01  1.50000000E+00  1.50000000E+00  8.00000000E-01
  8.00000000E-01  1.50000000E+00  1.50000000E+00  8.00000000E-01  8.00000000E-01
  1.50000000E+00  1.50000000E+00  8.00000000E-01  8.00000000E-01  1.50000000E+00
  1.50000000E+00  8.00000000E-01  8.00000000E-01  1.50000000E+00  1.50000000E+00
  8.00000000E-01  8.00000000E-01  1.50000000E+00  1.50000000E+00  8.00000000E-01
  8.00000000E-01  1.50000000E+00  1.50000000E+00  8.00000000E-01  8.00000000E-01
  1.50000000E+00  1.50000000E+00  8.00000000E-01  8.00000000E-01  1.50000000E+00
  1.50000000E+00  8.00000000E-01  8.00000000E-01  1.50000000E+00  1.50000000E+00
  8.00000000E-01  8.00000000E-01  1.50000000E+00  1.50000000E+00  8.00000000E-01
  8.00000000E-01  1.50000000E+00  1.50000000E+00  8.00000000E-01  8.00000000E-01
  1.50000000E+00  1.50000000E+00  8.00000000E-01  8.00000000E-01  1.50000000E+00
  1.50000000E+00  8.00000000E-01  8.00000000E-01  1.50000000E+00  1.50000000E+00
  8.00000000E-01  8.00000000E-01  1.50000000E+00  1.50000000E+00  8.00000000E-01
  8.00000000E-01  1.50000000E+00  1.50000000E+00  8.00000000E-01  8.00000000E-01
  1.50000000E+00  1.50000000E+00  8.00000000E-01  8.00000000E-01  1.50000000E+00
  1.50000000E+00  8.00000000E-01  8.00000000E-01  1.50000000E+00  1.50000000E+00
  8.00000000E-01  8.00000000E-01  1.50000000E+00  1.50000000E+00  8.00000000E-01
  8.00000000E-01  1.50000000E+00  1.50000000E+00  8.00000000E-01  8.00000000E-01
  1.50000000E+00  1.50000000E+00  8.00000000E-01  8.00000000E-01  1.50000000E+00
  1.50000000E+00  8.00000000E-01  8.00000000E-01  1.50000000E+00  1.50000000E+00
  8.00000000E-01  8.00000000E-01  1.50000000E+00  1.50000000E+00  8.00000000E-01
  8.00000000E-01  1.50000000E+00  1.50000000E+00  8.00000000E-01  8.00000000E-01
  1.50000000E+00  1.50000000E+00  8.00000000E-01  8.00000000E-01  1.50000000E+00
  1.50000000E+00  8.00000000E-01  8.00000000E-01  1.50000000E+00  1.50000000E+00
  8.00000000E-01  8.00000000E-01  1.50000000E+00  1.50000000E+00  8.00000000E-01
  8.00000000E-01  1.50000000E+00  1.50000000E+00  8.00000000E-01  8.00000000E-01
  1.50000000E+00  1.50000000E+00  8.00000000E-01  8.00000000E-01  1.50000000E+00
  1.50000000E+00  8.00000000E-01  8.00000000E-01  1.50000000E+00  1.50000000E+00
  8.00000000E-01  8.00000000E-01  1.50000000E+00  1.50000000E+00  8.00000000E-01
  8.00000000E-01  1.50000000E+00  1.50000000E+00  8.00000000E-01  8.00000000E-01
  1.50000000E+00  1.50000000E+00  8.00000000E-01  8.00000000E-01  1.50000000E+00
  1.50000000E+00  8.00000000E-01  8.00000000E-01  1.50000000E+00  1.50000000E+00
  8.00000000E-01  8.00000000E-01  1.50000000E+00  1.50000000E+00  8.00000000E-01
  8.00000000E-01  1.50000000E+00  1.50000000E+00  8.00000000E-01  8.00000000E-01
  1.50000000E+00  1.50000000E+00  8.00000000E-01  8.00000000E-01  1.50000000E+00
  1.50000000E+00  8.00000000E-01  8.00000000E-01  1.50000000E+00  1.50000000E+00
  8.00000000E-01  8.00000000E-01  1.50000000E+00  1.50000000E+00  8.00000000E-01
  8.00000000E-01  1.50000000E+00  1.50000000E+00  8.00000000E-01  8.00000000E-01
  1.50000000E+00  1.50000000E+00  8.00000000E-01  8.00000000E-01  1.50000000E+00
  1.50000000E+00  8.00000000E-01  8.00000000E-01  1.50000000E+00  1.50000000E+00
  8.00000000E-01  8.00000000E-01  1.50000000E+00  1.50000000E+00  8.00000000E-01
  8.00000000E-01  1.50000000E+00  1.50000000E+00  8.00000000E-01  8.00000000E-01
  1.50000000E+00  1.50000000E+00  8.00000000E-01  8.00000000E-01  1.50000000E+00
  1.50000000E+00  8.00000000E-01  8.00000000E-01  1.50000000E+00  1.50000000E+00
  8.00000000E-01  8.00000000E-01  1.50000000E+00  1.50000000E+00  8.00000000E-01
  8.00000000E-01  1.50000000E+00  1.50000000E+00  8.00000000E-01  8.00000000E-01
  1.50000000E+00  1.50000000E+00  8.00000000E-01  8.00000000E-01  1.50000000E+00
  1.50000000E+00  8.00000000E-01  8.00000000E-01  1.50000000E+00  1.50000000E+00
  8.00000000E-01  8.00000000E-01  1.50000000E+00  1.50000000E+00  8.00000000E-01
  8.00000000E-01  1.50000000E+00  1.50000000E+00  8.00000000E-01  8.00000000E-01
  1.50000000E+00  1.50000000E+00  8.00000000E-01  8.00000000E-01  1.50000000E+00
  1.50000000E+00  8.00000000E-01  8.00000000E-01  1.50000000E+00  1.50000000E+00
  8.00000000E-01  8.00000000E-01  1.50000000E+00  1.50000000E+00  8.00000000E-01
  8.00000000E-01  1.50000000E+00  1.50000000E+00  8.00000000E-01  8.00000000E-01
  1.50000000E+00  1.50000000E+00  8.00000000E-01  8.00000000E-01  1.50000000E+00
  1.50000000E+00  8.00000000E-01  8.00000000E-01  1.50000000E+00  1.50000000E+00
  8.00000000E-01  8.00000000E-01  1.50000000E+00  1.50000000E+00  8.00000000E-01
  8.00000000E-01  1.50000000E+00  1.50000000E+00  8.00000000E-01  8.00000000E-01
  1.50000000E+00  1.50000000E+00  8.00000000E-01  8.00000000E-01  1.50000000E+00
  1.50000000E+00  8.00000000E-01  8.00000000E-01  1.50000000E+00  1.50000000E+00
  8.00000000E-01  8.00000000E-01  1.50000000E+00  1.50000000E+00  8.00000000E-01
  8.00000000E-01  1.50000000E+00  1.50000000E+00  8.00000000E-01  8.00000000E-01
  1.50000000E+00  1.50000000E+00  8.00000000E-01  8.00000000E-01  1.50000000E+00
  1.50000000E+00  8.00000000E-01  8.00000000E-01  1.50000000E+00  1.50000000E+00
  8.00000000E-01  8.00000000E-01  1.50000000E+00  1.50000000E+00  8.00000000E-01
  8.00000000E-01  1.50000000E+00  1.50000000E+00  8.00000000E-01  8.00000000E-01
  1.50000000E+00  1.50000000E+00  8.00000000E-01  8.00000000E-01  1.50000000E+00
  1.50000000E+00  8.00000000E-01  8.00000000E-01  1.50000000E+00  1.50000000E+00
  8.00000000E-01  8.00000000E-01  1.50000000E+00  1.50000000E+00  8.00000000E-01
  8.00000000E-01  1.50000000E+00  1.50000000E+00  8.00000000E-01  8.00000000E-01
  1.50000000E+00  1.50000000E+00  8.00000000E-01  8.00000000E-01  1.50000000E+00
  1.50000000E+00  8.00000000E-01  8.00000000E-01  1.50000000E+00  1.50000000E+00
  8.00000000E-01  8.00000000E-01  1.50000000E+00  1.50000000E+00  8.00000000E-01
  8.00000000E-01  1.50000000E+00  1.50000000E+00  8.00000000E-01  8.00000000E-01
  1.50000000E+00  1.50000000E+00  8.00000000E-01  8.00000000E-01  1.50000000E+00
  1.50000000E+00  8.00000000E-01  8.00000000E-01  1.50000000E+00  1.50000000E+00
  8.00000000E-01  8.00000000E-01  1.50000000E+00  1.50000000E+00  8.00000000E-01
  8.00000000E-01  1.50000000E+00  1.50000000E+00  8.00000000E-01  8.00000000E-01
  1.50000000E+00  1.50000000E+00  8.00000000E-01  8.00000000E-01  1.50000000E+00
  1.50000000E+00  8.00000000E-01  8.00000000E-01  1.50000000E+00  1.50000000E+00
  8.00000000E-01  8.00000000E-01  1.50000000E+00  1.50000000E+00  8.00000000E-01
  8.00000000E-01  1.50000000E+00  1.50000000E+00  8.00000000E-01  8.00000000E-01
  1.50000000E+00  1.50000000E+00  8.00000000E-01  8.00000000E-01  1.50000000E+00
  1.50000000E+00  8.00000000E-01  8.00000000E-01  1.50000000E+00  1.50000000E+00
  8.00000000E-01  8.00000000E-01  1.50000000E+00  1.50000000E+00  8.00000000E-01
  8.00000000E-01  1.50000000E+00  1.50000000E+00  8.00000000E-01  8.00000000E-01
  1.50000000E+00  1.50000000E+00  8.00000000E-01  8.00000000E-01  1.50000000E+00
  1.50000000E+00  8.00000000E-01  8.00000000E-01  1.50000000E+00  1.50000000E+00
  8.00000000E-01  8.00000000E-01  1.50000000E+00  1.50000000E+00  8.00000000E-01
  8.00000000E-01  1.50000000E+00  1.50000000E+00  8.00000000E-01  8.00000000E-01
  1.50000000E+00  1.50000000E+00  8.00000000E-01  8.00000000E-01  1.50000000E+00
  1.50000000E+00  8.00000000E-01  8.00000000E-01  1.50000000E+00  1.50000000E+00
  8.00000000E-01  8.00000000E-01  1.50000000E+00  1.50000000E+00  8.00000000E-01
  8.00000000E-01  1.50000000E+00  1.50000000E+00  8.00000000E-01  8.00000000E-01
  1.50000000E+00  1.50000000E+00  8.00000000E-01  8.00000000E-01  1.50000000E+00
  1.50000000E+00  8.00000000E-01  8.00000000E-01  1.50000000E+00  1.50000000E+00
  8.00000000E-01  8.00000000E-01  1.50000000E+00  1.50000000E+00  8.00000000E-01
  8.00000000E-01  1.50000000E+00  1.50000000E+00  8.00000000E-01  8.00000000E-01
  1.50000000E+00  1.50000000E+00  8.00000000E-01  8.00000000E-01  1.50000000E+00
  1.50000000E+00  8.00000000E-01  8.00000000E-01  1.50000000E+00  1.50000000E+00
  8.00000000E-01  8.00000000E-01  1.50000000E+00  1.50000000E+00  8.00000000E-01
  8.00000000E-01  1.50000000E+00  1.50000000E+00  8.00000000E-01  8.00000000E-01
  1.50000000E+00  1.50000000E+00  8.00000000E-01  8.00000000E-01  1.50000000E+00
  1.50000000E+00  8.00000000E-01  8.00000000E-01  1.50000000E+00  1.50000000E+00
  8.00000000E-01  8.00000000E-01  1.50000000E+00  1.50000000E+00  8.00000000E-01
  8.00000000E-01  1.50000000E+00  1.50000000E+00  8.00000000E-01  8.00000000E-01
  1.50000000E+00  1.50000000E+00  8.00000000E-01  8.00000000E-01  1.50000000E+00
  1.50000000E+00  8.00000000E-01  8.00000000E-01  1.50000000E+00  1.50000000E+00
  8.00000000E-01  8.00000000E-01  1.50000000E+00  1.50000000E+00  8.00000000E-01
  8.00000000E-01  1.50000000E+00  1.50000000E+00  8.00000000E-01  8.00000000E-01
  1.50000000E+00  1.50000000E+00  8.00000000E-01  8.00000000E-01  1.50000000E+00
  1.50000000E+00  8.00000000E-01  8.00000000E-01  1.50000000E+00  1.50000000E+00
  8.00000000E-01  8.00000000E-01  1.50000000E+00  1.50000000E+00  8.00000000E-01
  8.00000000E-01  1.50000000E+00  1.50000000E+00  8.00000000E-01  8.00000000E-01
  1.50000000E+00  1.50000000E+00  8.00000000E-01  8.00000000E-01  1.50000000E+00
  1.50000000E+00  8.00000000E-01  8.00000000E-01  1.50000000E+00  1.50000000E+00
  8.00000000E-01  8.00000000E-01  1.50000000E+00  1.50000000E+00  8.00000000E-01
  8.00000000E-01  1.50000000E+00  1.50000000E+00  8.00000000E-01  8.00000000E-01
  1.50000000E+00  1.50000000E+00  8.00000000E-01  8.00000000E-01  1.50000000E+00
  1.50000000E+00  8.00000000E-01  8.00000000E-01  1.50000000E+00  1.50000000E+00
  8.00000000E-01  8.00000000E-01  1.50000000E+00  1.50000000E+00  8.00000000E-01
  8.00000000E-01  1.50000000E+00  1.50000000E+00  8.00000000E-01  8.00000000E-01
  1.50000000E+00  1.50000000E+00  8.00000000E-01  8.00000000E-01  1.50000000E+00
  1.50000000E+00  8.00000000E-01  8.00000000E-01  1.50000000E+00  1.50000000E+00
  8.00000000E-01  8.00000000E-01  1.50000000E+00  1.50000000E+00  8.00000000E-01
  8.00000000E-01  1.50000000E+00  1.50000000E+00  8.00000000E-01  8.00000000E-01
  1.50000000E+00  1.50000000E+00  8.00000000E-01  8.00000000E-01  1.50000000E+00
  1.50000000E+00  8.00000000E-01  8.00000000E-01  1.50000000E+00  1.50000000E+00
  8.00000000E-01  8.00000000E-01  1.50000000E+00  1.50000000E+00  8.00000000E-01
  8.00000000E-01  1.50000000E+00  1.50000000E+00  8.00000000E-01  8.00000000E-01
  1.50000000E+00  1.50000000E+00  8.00000000E-01  8.00000000E-01  1.50000000E+00
  1.50000000E+00  8.00000000E-01  8.00000000E-01  1.50000000E+00  1.50000000E+00
  8.00000000E-01  8.00000000E-01  1.50000000E+00  1.50000000E+00  8.00000000E-01
  8.00000000E-01  1.50000000E+00  1.50000000E+00  8.00000000E-01  8.00000000E-01
  1.50000000E+00  1.50000000E+00  8.00000000E-01  8.00000000E-01  1.50000000E+00
  1.50000000E+00  8.00000000E-01  8.00000000E-01  1.50000000E+00  1.50000000E+00
  8.00000000E-01  8.00000000E-01  1.50000000E+00  1.50000000E+00  8.00000000E-01
  8.00000000E-01  1.50000000E+00  1.50000000E+00  8.00000000E-01  8.00000000E-01
  1.50000000E+00  1.50000000E+00  8.00000000E-01  8.00000000E-01  1.50000000E+00
  1.50000000E+00  8.00000000E-01  8.00000000E-01  1.50000000E+00  1.50000000E+00
  8.00000000E-01  8.00000000E-01  1.50000000E+00  1.50000000E+00  8.00000000E-01
  8.00000000E-01  1.50000000E+00  1.50000000E+00  8.00000000E-01  8.00000000E-01
  1.50000000E+00  1.50000000E+00  8.00000000E-01  8.00000000E-01  1.50000000E+00
  1.50000000E+00  8.00000000E-01  8.00000000E-01  1.50000000E+00  1.50000000E+00
  8.00000000E-01  8.00000000E-01  1.50000000E+00  1.50000000E+00  8.00000000E-01
  8.00000000E-01  1.50000000E+00  1.50000000E+00  8.00000000E-01  8.00000000E-01
  1.50000000E+00  1.50000000E+00  8.00000000E-01  8.00000000E-01  1.50000000E+00
  1.50000000E+00  8.00000000E-01  8.00000000E-01  1.50000000E+00  1.50000000E+00
  8.00000000E-01  8.00000000E-01  1.50000000E+00  1.50000000E+00  8.00000000E-01
  8.00000000E-01  1.50000000E+00  1.50000000E+00  8.00000000E-01  8.00000000E-01
  1.50000000E+00  1.50000000E+00  8.00000000E-01  8.00000000E-01  1.50000000E+00
  1.50000000E+00  8.00000000E-01  8.00000000E-01  1.50000000E+00  1.50000000E+00
  8.00000000E-01  8.00000000E-01  1.50000000E+00  1.50000000E+00  8.00000000E-01
  8.00000000E-01  1.50000000E+00  1.50000000E+00  8.00000000E-01  8.00000000E-01
  1.50000000E+00  1.50000000E+00  8.00000000E-01  8.00000000E-01  1.50000000E+00
  1.50000000E+00  8.00000000E-01  8.00000000E-01  1.50000000E+00  1.50000000E+00
  8.00000000E-01  8.00000000E-01  1.50000000E+00  1.50000000E+00  8.00000000E-01
  8.00000000E-01  1.50000000E+00  1.50000000E+00  8.00000000E-01  8.00000000E-01
  1.50000000E+00  1.50000000E+00  8.00000000E-01  8.00000000E-01  1.50000000E+00
  1.50000000E+00  8.00000000E-01  8.00000000E-01  1.50000000E+00  1.50000000E+00
  8.00000000E-01  8.00000000E-01  1.50000000E+00  1.50000000E+00  8.00000000E-01
  8.00000000E-01  1.50000000E+00  1.50000000E+00  8.00000000E-01  8.00000000E-01
  1.50000000E+00  1.50000000E+00  8.00000000E-01  8.00000000E-01  1.50000000E+00
  1.50000000E+00  8.00000000E-01  8.00000000E-01  1.50000000E+00  1.50000000E+00
  8.00000000E-01  8.00000000E-01  1.50000000E+00  1.50000000E+00  8.00000000E-01
  8.00000000E-01  1.50000000E+00  1.50000000E+00  8.00000000E-01  8.00000000E-01
  1.50000000E+00  1.50000000E+00  8.00000000E-01  8.00000000E-01  1.50000000E+00
  1.50000000E+00  8.00000000E-01  8.00000000E-01  1.50000000E+00  1.50000000E+00
  8.00000000E-01  8.00000000E-01  1.50000000E+00  1.50000000E+00  8.00000000E-01
  8.00000000E-01  1.50000000E+00  1.50000000E+00  8.00000000E-01  8.00000000E-01
  1.50000000E+00  1.50000000E+00  8.00000000E-01  8.00000000E-01  1.50000000E+00
  1.50000000E+00  8.00000000E-01  8.00000000E-01  1.50000000E+00  1.50000000E+00
  8.00000000E-01  8.00000000E-01  1.50000000E+00  1.50000000E+00  8.00000000E-01
  8.00000000E-01  1.50000000E+00  1.50000000E+00  8.00000000E-01  8.00000000E-01
  1.50000000E+00  1.50000000E+00  8.00000000E-01  8.00000000E-01  1.50000000E+00
  1.50000000E+00  8.00000000E-01  8.00000000E-01  1.50000000E+00  1.50000000E+00
  8.00000000E-01  8.00000000E-01  1.50000000E+00  1.50000000E+00  8.00000000E-01
  8.00000000E-01  1.50000000E+00  1.50000000E+00  8.00000000E-01  8.00000000E-01
  1.50000000E+00  1.50000000E+00  8.00000000E-01  8.00000000E-01  1.50000000E+00
  1.50000000E+00  8.00000000E-01  8.00000000E-01  1.50000000E+00  1.50000000E+00
  8.00000000E-01  8.00000000E-01  1.50000000E+00  1.50000000E+00  8.00000000E-01
  8.00000000E-01  1.50000000E+00  1.50000000E+00  8.00000000E-01  8.00000000E-01
  1.50000000E+00  1.50000000E+00  8.00000000E-01  8.00000000E-01  1.50000000E+00
  1.50000000E+00  8.00000000E-01  8.00000000E-01  1.50000000E+00  1.50000000E+00
  8.00000000E-01  8.00000000E-01  1.50000000E+00  1.50000000E+00  8.00000000E-01
  8.00000000E-01  1.50000000E+00  1.50000000E+00  8.00000000E-01  8.00000000E-01
  1.50000000E+00  1.50000000E+00  8.00000000E-01  8.00000000E-01  1.50000000E+00
  1.50000000E+00  8.00000000E-01  8.00000000E-01  1.50000000E+00  1.50000000E+00
  8.00000000E-01  8.00000000E-01  1.50000000E+00  1.50000000E+00  8.00000000E-01
  8.00000000E-01  1.50000000E+00  1.50000000E+00  8.00000000E-01  8.00000000E-01
  1.50000000E+00  1.50000000E+00  8.00000000E-01  8.00000000E-01  1.50000000E+00
  1.50000000E+00  8.00000000E-01  8.00000000E-01  1.50000000E+00  1.50000000E+00
  8.00000000E-01  8.00000000E-01  1.50000000E+00  1.50000000E+00  8.00000000E-01
  8.00000000E-01  1.50000000E+00  1.50000000E+00  8.00000000E-01  8.00000000E-01
  1.50000000E+00
%FLAG SCREEN                                                                    
%FORMAT(5E16.8)                                                                 
  8.50000000E-01  7.20000000E-01  8.50000000E-01  8.50000000E-01  7.20000000E-01
  8.50000000E-01  7.90000000E-01  8.50000000E-01  7.20000000E-01  8.50000000E-01
  7.20000000E-01  8.50000000E-01  8.50000000E-01  7.20000000E-01  7.20000000E-01
  8.50000000E-01  7.90000000E-01  8.50000000E-01  7.20000000E-01  7.20000000E-01
  8.50000000E-01  7.20000000E-01  8.50000000E-01  7.20000000E-01  8.50000000E-01
  7.20000000E-01  8.50000000E-01  7.20000000E-01  7.20000000E-01  8.50000000E-01
  7.90000000E-01  8.50000000E-01  7.20000000E-01  8.50000000E-01  7.20000000E-01
  8.50000000E-01  7.20000000E-01  8.50000000E-01  8.50000000E-01  8.50000000E-01
  7.20000000E-01  8.50000000E-01  8.50000000E-01  8.50000000E-01  7.20000000E-01
  8.50000000E-01  7.90000000E-01  8.50000000E-01  7.20000000E-01  8.50000000E-01
  7.20000000E-01  8.50000000E-01  7.20000000E-01  8.50000000E-01  8.50000000E-01
  8.50000000E-01  8.50000000E-01  8.50000000E-01  7.20000000E-01  8.50000000E-01
  7.90000000E-01  8.50000000E-01  7.20000000E-01  8.50000000E-01  7.20000000E-01
  8.50000000E-01  8.50000000E-01  7.20000000E-01  7.90000000E-01  8.50000000E-01
  7.20000000E-01  8.50000000E-01  7.90000000E-01  7.20000000E-01  8.50000000E-01
  7.20000000E-01  8.50000000E-01  7.90000000E-01  8.50000000E-01  7.20000000E-01
  8.50000000E-01  7.20000000E-01  8.50000000E-01  8.50000000E-01  7.20000000E-01
  8.50000000E-01  8.50000000E-01  7.20000000E-01  8.50000000E-01  8.50000000E-01
  7.90000000E-01  8.50000000E-01  7.20000000E-01  7.90000000E-01  8.50000000E-01
  8.50000000E-01  7.90000000E-01  8.50000000E-01  8.50000000E-01  7.20000000E-01
  8.50000000E-01  7.20000000E-01  8.50000000E-01  7.20000000E-01  8.00000000E-01
  8.00000000E-01  8.00000000E-01  8.00000000E-01  7.20000000E-01  7.20000000E-01
  8.00000000E-01  7.90000000E-01  8.50000000E-01  8.50000000E-01  8.50000000E-01
  8.50000000E-01  8.50000000E-01  8.50000000E-01  8.50000000E-01  8.50000000E-01
  8.50000000E-01  8.50000000E-01  8.50000000E-01  8.50000000E-01  8.50000000E-01
  8.50000000E-01  7.90000000E-01  8.50000000E-01  7.20000000E-01  8.50000000E-01
  7.20000000E-01  8.50000000E-01  8.50000000E-01  8.50000000E-01  7.20000000E-01
  8.50000000E-01  7.90000000E-01  8.50000000E-01  7.20000000E-01  8.50000000E-01
  8.50000000E-01  7.20000000E-01  8.50000000E-01  7.90000000E-01  8.50000000E-01
  7.20000000E-01  8.50000000E-01  7.20000000E-01  8.50000000E-01  8.50000000E-01
  7.20000000E-01  8.50000000E-01  7.20000000E-01  8.50000000E-01  8.50000000E-01
  8.50000000E-01  7.20000000E-01  8.50000000E-01  8.50000000E-01  8.50000000E-01
  7.20000000E-01  8.50000000E-01  7.20000000E-01  8.50000000E-01  7.20000000E-01
  8.00000000E-01  8.00000000E-01  8.00000000E-01  7.90000000E-01  8.50000000E-01
  8.50000000E-01  8.50000000E-01  8.50000000E-01  8.50000000E-01  8.50000000E-01
  8.50000000E-01  8.50000000E-01  7.90000000E-01  8.50000000E-01  7.20000000E-01
  8.50000000E-01  7.20000000E-01  8.50000000E-01  8.50000000E-01  8.50000000E-01
  8.50000000E-01  7.20000000E-01  8.50000000E-01  7.90000000E-01  8.50000000E-01
  7.20000000E-01  8.50000000E-01  7.20000000E-01  8.50000000E-01  8.50000000E-01
  7.20000000E-01  8.50000000E-01  8.50000000E-01  7.20000000E-01  8.50000000E-01
  8.50000000E-01  7.90000000E-01  8.50000000E-01  7.20000000E-01  7.90000000E-01
  8.50000000E-01  8.50000000E-01  7.90000000E-01  8.50000000E-01  8.50000000E-01
  7.20000000E-01  8.50000000E-01  7.90000000E-01  8.50000000E-01  7.20000000E-01
  8.50000000E-01  7.20000000E-01  8.50000000E-01  8.50000000E-01  8.50000000E-01
  8.50000000E-01  7.20000000E-01  8.50000000E-01  7.90000000E-01  8.50000000E-01
  7.20000000E-01  8.50000000E-01  8.50000000E-01  7.20000000E-01  8.50000000E-01
  7.90000000E-01  8.50000000E-01  7.20000000E-01  8.50000000E-01  8.50000000E-01
  7.20000000E-01  8.50000000E-01  7.90000000E-01  8.50000000E-01  7.20000000E-01
  8.50000000E-01  7.20000000E-01  8.50000000E-01  7.20000000E-01  8.50000000E-01
  8.50000000E-01  8.50000000E-01  7.20000000E-01  8.50000000E-01  8.50000000E-01
  8.50000000E-01  7.20000000E-01  8.50000000E-01  7.90000000E-01  8.50000000E-01
  7.20000000E-01  8.50000000E-01  7.20000000E-01  8.50000000E-01  7.20000000E-01
  8.50000000E-01  8.50000000E-01  8.50000000E-01  7.20000000E-01  8.50000000E-01
  8.50000000E-01  8.50000000E-01  7.20000000E-01  8.50000000E-01  7.90000000E-01
  8.50000000E-01  7.20000000E-01  8.50000000E-01  7.20000000E-01  8.50000000E-01
  8.50000000E-01  7.20000000E-01  8.50000000E-01  8.50000000E-01  7.20000000E-01
  8.50000000E-01  8.50000000E-01  7.20000000E-01  8.50000000E-01  8.50000000E-01
  7.90000000E-01  8.50000000E-01  8.50000000E-01  8.50000000E-01  7.20000000E-01
  8.50000000E-01  7.90000000E-01  8.50000000E-01  7.20000000E-01  8.50000000E-01
  7.20000000E-01  8.50000000E-01  8.50000000E-01  7.20000000E-01  8.50000000E-01
  7.90000000E-01  8.50000000E-01  8.50000000E-01  7.20000000E-01  8.50000000E-01
  7.90000000E-01  8.50000000E-01  7.20000000E-01  8.50000000E-01  7.20000000E-01
  8.50000000E-01  8.50000000E-01  7.20000000E-01  8.50000000E-01  7.90000000E-01
  8.50000000E-01  8.50000000E-01  7.20000000E-01  8.50000000E-01  7.90000000E-01
  8.50000000E-01  7.20000000E-01  8.50000000E-01  7.20000000E-01  8.50000000E-01
  8.50000000E-01  7.20000000E-01  7.20000000E-01  8.50000000E-01  7.20000000E-01
  8.50000000E-01  7.20000000E-01  8.50000000E-01  7.20000000E-01  8.50000000E-01
  7.20000000E-01  8.50000000E-01  7.20000000E-01  8.50000000E-01  7.90000000E-01
  8.50000000E-01  7.20000000E-01  8.50000000E-01  7.20000000E-01  8.50000000E-01
  7.20000000E-01  8.50000000E-01  8.50000000E-01  8.50000000E-01  7.20000000E-01
  8.50000000E-01  8.50000000E-01  8.50000000E-01  7.20000000E-01  8.50000000E-01
  7.90000000E-01  7.20000000E-01  8.50000000E-01  8.50000000E-01  7.20000000E-01
  8.50000000E-01  8.50000000E-01  7.20000000E-01  8.50000000E-01  8.50000000E-01
  7.20000000E-01  8.50000000E-01  7.20000000E-01  8.50000000E-01  7.90000000E-01
  8.50000000E-01  7.20000000E-01  8.50000000E-01  7.20000000E-01  8.50000000E-01
  7.20000000E-01  8.50000000E-01  8.50000000E-01  8.50000000E-01  8.50000000E-01
  8.50000000E-01  7.20000000E-01  8.50000000E-01  7.90000000E-01  8.50000000E-01
  7.20000000E-01  8.50000000E-01  7.20000000E-01  8.50000000E-01  8.50000000E-01
  7.20000000E-01  8.50000000E-01  8.50000000E-01  7.20000000E-01  8.50000000E-01
  7.90000000E-01  8.50000000E-01  7.20000000E-01  8.50000000E-01  7.20000000E-01
  8.50000000E-01  7.20000000E-01  8.50000000E-01  8.50000000E-01  8.50000000E-01
  7.20000000E-01  8.50000000E-01  8.50000000E-01  8.50000000E-01  7.20000000E-01
  8.50000000E-01  7.90000000E-01  8.50000000E-01  7.20000000E-01  8.50000000E-01
  8.50000000E-01  7.20000000E-01  8.50000000E-01  7.90000000E-01  7.20000000E-01
  8.50000000E-01  8.50000000E-01  7.20000000E-01  8.50000000E-01  8.50000000E-01
  7.20000000E-01  8.50000000E-01  8.50000000E-01  7.20000000E-01  8.50000000E-01
  7.20000000E-01  8.50000000E-01  7.90000000E-01  8.50000000E-01  7.20000000E-01
  8.50000000E-01  7.20000000E-01  8.50000000E-01  8.50000000E-01  7.20000000E-01
  7.20000000E-01  8.50000000E-01  7.20000000E-01  8.50000000E-01  7.20000000E-01
  8.50000000E-01  7.20000000E-01  8.50000000E-01  7.20000000E-01  8.50000000E-01
  7.20000000E-01  8.50000000E-01  7.90000000E-01  8.50000000E-01  7.20000000E-01
  8.50000000E-01  7.20000000E-01  8.50000000E-01  8.50000000E-01  8.50000000E-01
  7.20000000E-01  8.50000000E-01  7.90000000E-01  8.50000000E-01  7.20000000E-01
  8.50000000E-01  7.20000000E-01  8.50000000E-01  8.50000000E-01  7.20000000E-01
  7.20000000E-01  8.50000000E-01  7.20000000E-01  8.50000000E-01  7.20000000E-01
  8.50000000E-01  7.20000000E-01  8.50000000E-01  7.20000000E-01  8.50000000E-01
  7.20000000E-01  8.50000000E-01  7.90000000E-01  8.50000000E-01  8.50000000E-01
  8.00000000E-01  8.00000000E-01  8.00000000E-01  8.00000000E-01  8.00000000E-01
  8.00000000E-01  8.00000000E-01  8.00000000E-01  8.00000000E-01  8.00000000E-01
  8.00000000E-01  8.00000000E-01  8.00000000E-01  8.00000000E-01  8.00000000E-01
  8.00000000E-01  8.00000000E-01  8.00000000E-01  8.00000000E-01  8.00000000E-01
  8.00000000E-01  8.00000000E-01  8.00000000E-01  8.00000000E-01  8.00000000E-01
  8.00000000E-01  8.00000000E-01  8.00000000E-01  8.00000000E-01  8.00000000E-01
  8.00000000E-01  8.00000000E-01  8.00000000E-01  8.00000000E-01  8.00000000E-01
  8.00000000E-01  8.00000000E-01  8.00000000E-01  8.00000000E-01  8.00000000E-01
  8.00000000E-01  8.00000000E-01  8.50000000E-01  8.50000000E-01  8.50000000E-01
  8.00000000E-01  8.50000000E-01  8.50000000E-01  8.50000000E-01  8.00000000E-01
  8.50000000E-01  8.50000000E-01  8.50000000E-01  8.00000000E-01  8.50000000E-01
  8.50000000E-01  8.50000000E-01  8.00000000E-01  8.50000000E-01  8.50000000E-01
  8.50000000E-01  8.00000000E-01  8.50000000E-01  8.50000000E-01  8.50000000E-01
  8.00000000E-01  8.50000000E-01  8.50000000E-01  8.50000000E-01  8.00000000E-01
  8.50000000E-01  8.50000000E-01  8.50000000E-01  8.00000000E-01  8.50000000E-01
  8.50000000E-01  8.50000000E-01  8.00000000E-01  8.50000000E-01  8.50000000E-01
  8.50000000E-01  8.00000000E-01  8.50000000E-01  8.50000000E-01  8.50000000E-01
  8.00000000E-01  8.50000000E-01  8.50000000E-01  8.50000000E-01  8.00000000E-01
  8.50000000E-01  8.50000000E-01  8.50000000E-01  8.00000000E-01  8.50000000E-01
  8.50000000E-01  8.50000000E-01  8.00000000E-01  8.50000000E-01  8.50000000E-01
  8.50000000E-01  8.00000000E-01  8.50000000E-01  8.50000000E-01  8.50000000E-01
  8.00000000E-01  8.50000000E-01  8.50000000E-01  8.50000000E-01  8.00000000E-01
  8.50000000E-01  8.50000000E-01  8.50000000E-01  8.00000000E-01  8.50000000E-01
  8.50000000E-01  8.50000000E-01  8.00000000E-01  8.50000000E-01  8.50000000E-01
  8.50000000E-01  8.00000000E-01  8.50000000E-01  8.50000000E-01  8.50000000E-01
  8.00000000E-01  8.50000000E-01  8.50000000E-01  8.50000000E-01  8.00000000E-01
  8.50000000E-01  8.50000000E-01  8.50000000E-01  8.00000000E-01  8.50000000E-01
  8.50000000E-01  8.50000000E-01  8.00000000E-01  8.50000000E-01  8.50000000E-01
  8.50000000E-01  8.00000000E-01  8.50000000E-01  8.50000000E-01  8.50000000E-01
  8.00000000E-01  8.50000000E-01  8.50000000E-01  8.50000000E-01  8.00000000E-01
  8.50000000E-01  8.50000000E-01  8.50000000E-01  8.00000000E-01  8.50000000E-01
  8.50000000E-01  8.50000000E-01  8.00000000E-01  8.50000000E-01  8.50000000E-01
  8.50000000E-01  8.00000000E-01  8.50000000E-01  8.50000000E-01  8.50000000E-01
  8.00000000E-01  8.50000000E-01  8.50000000E-01  8.50000000E-01  8.00000000E-01
  8.50000000E-01  8.50000000E-01  8.50000000E-01  8.00000000E-01  8.50000000E-01
  8.50000000E-01  8.50000000E-01  8.00000000E-01  8.50000000E-01  8.50000000E-01
  8.50000000E-01  8.00000000E-01  8.50000000E-01  8.50000000E-01  8.50000000E-01
  8.00000000E-01  8.50000000E-01  8.50000000E-01  8.50000000E-01  8.00000000E-01
  8.50000000E-01  8.50000000E-01  8.50000000E-01  8.00000000E-01  8.50000000E-01
  8.50000000E-01  8.50000000E-01  8.00000000E-01  8.50000000E-01  8.50000000E-01
  8.50000000E-01  8.00000000E-01  8.50000000E-01  8.50000000E-01  8.50000000E-01
  8.00000000E-01  8.50000000E-01  8.50000000E-01  8.50000000E-01  8.00000000E-01
  8.50000000E-01  8.50000000E-01  8.50000000E-01  8.00000000E-01  8.50000000E-01
  8.50000000E-01  8.50000000E-01  8.00000000E-01  8.50000000E-01  8.50000000E-01
  8.50000000E-01  8.00000000E-01  8.50000000E-01  8.50000000E-01  8.50000000E-01
  8.00000000E-01  8.50000000E-01  8.50000000E-01  8.50000000E-01  8.00000000E-01
  8.50000000E-01  8.50000000E-01  8.50000000E-01  8.00000000E-01  8.50000000E-01
  8.50000000E-01  8.50000000E-01  8.00000000E-01  8.50000000E-01  8.50000000E-01
  8.50000000E-01  8.00000000E-01  8.50000000E-01  8.50000000E-01  8.50000000E-01
  8.00000000E-01  8.50000000E-01  8.50000000E-01  8.50000000E-01  8.00000000E-01
  8.50000000E-01  8.50000000E-01  8.50000000E-01  8.00000000E-01  8.50000000E-01
  8.50000000E-01  8.50000000E-01  8.00000000E-01  8.50000000E-01  8.50000000E-01
  8.50000000E-01  8.00000000E-01  8.50000000E-01  8.50000000E-01  8.50000000E-01
  8.00000000E-01  8.50000000E-01  8.50000000E-01  8.50000000E-01  8.00000000E-01
  8.50000000E-01  8.50000000E-01  8.50000000E-01  8.00000000E-01  8.50000000E-01
  8.50000000E-01  8.50000000E-01  8.00000000E-01  8.50000000E-01  8.50000000E-01
  8.50000000E-01  8.00000000E-01  8.50000000E-01  8.50000000E-01  8.50000000E-01
  8.00000000E-01  8.50000000E-01  8.50000000E-01  8.50000000E-01  8.00000000E-01
  8.50000000E-01  8.50000000E-01  8.50000000E-01  8.00000000E-01  8.50000000E-01
  8.50000000E-01  8.50000000E-01  8.00000000E-01  8.50000000E-01  8.50000000E-01
  8.50000000E-01  8.00000000E-01  8.50000000E-01  8.50000000E-01  8.50000000E-01
  8.00000000E-01  8.50000000E-01  8.50000000E-01  8.50000000E-01  8.00000000E-01
  8.50000000E-01  8.50000000E-01  8.50000000E-01  8.00000000E-01  8.50000000E-01
  8.50000000E-01  8.50000000E-01  8.00000000E-01  8.50000000E-01  8.50000000E-01
  8.50000000E-01  8.00000000E-01  8.50000000E-01  8.50000000E-01  8.50000000E-01
  8.00000000E-01  8.50000000E-01  8.50000000E-01  8.50000000E-01  8.00000000E-01
  8.50000000E-01  8.50000000E-01  8.50000000E-01  8.00000000E-01  8.50000000E-01
  8.50000000E-01  8.50000000E-01  8.00000000E-01  8.50000000E-01  8.50000000E-01
  8.50000000E-01  8.00000000E-01  8.50000000E-01  8.50000000E-01  8.50000000E-01
  8.00000000E-01  8.50000000E-01  8.50000000E-01  8.50000000E-01  8.00000000E-01
  8.50000000E-01  8.50000000E-01  8.50000000E-01  8.00000000E-01  8.50000000E-01
  8.50000000E-01  8.50000000E-01  8.00000000E-01  8.50000000E-01  8.50000000E-01
  8.50000000E-01  8.00000000E-01  8.50000000E-01  8.50000000E-01  8.50000000E-01
  8.00000000E-01  8.50000000E-01  8.50000000E-01  8.50000000E-01  8.00000000E-01
  8.50000000E-01  8.50000000E-01  8.50000000E-01  8.00000000E-01  8.50000000E-01
  8.50000000E-01  8.50000000E-01  8.00000000E-01  8.50000000E-01  8.50000000E-01
  8.50000000E-01  8.00000000E-01  8.50000000E-01  8.50000000E-01  8.50000000E-01
  8.00000000E-01  8.50000000E-01  8.50000000E-01  8.50000000E-01  8.00000000E-01
  8.50000000E-01  8.50000000E-01  8.50000000E-01  8.00000000E-01  8.50000000E-01
  8.50000000E-01  8.50000000E-01  8.00000000E-01  8.50000000E-01  8.50000000E-01
  8.50000000E-01  8.00000000E-01  8.50000000E-01  8.50000000E-01  8.50000000E-01
  8.00000000E-01  8.50000000E-01  8.50000000E-01  8.50000000E-01  8.00000000E-01
  8.50000000E-01  8.50000000E-01  8.50000000E-01  8.00000000E-01  8.50000000E-01
  8.50000000E-01  8.50000000E-01  8.00000000E-01  8.50000000E-01  8.50000000E-01
  8.50000000E-01  8.00000000E-01  8.50000000E-01  8.50000000E-01  8.50000000E-01
  8.00000000E-01  8.50000000E-01  8.50000000E-01  8.50000000E-01  8.00000000E-01
  8.50000000E-01  8.50000000E-01  8.50000000E-01  8.00000000E-01  8.50000000E-01
  8.50000000E-01  8.50000000E-01  8.00000000E-01  8.50000000E-01  8.50000000E-01
  8.50000000E-01  8.00000000E-01  8.50000000E-01  8.50000000E-01  8.50000000E-01
  8.00000000E-01  8.50000000E-01  8.50000000E-01  8.50000000E-01  8.00000000E-01
  8.50000000E-01  8.50000000E-01  8.50000000E-01  8.00000000E-01  8.50000000E-01
  8.50000000E-01  8.50000000E-01  8.00000000E-01  8.50000000E-01  8.50000000E-01
  8.50000000E-01  8.00000000E-01  8.50000000E-01  8.50000000E-01  8.50000000E-01
  8.00000000E-01  8.50000000E-01  8.50000000E-01  8.50000000E-01  8.00000000E-01
  8.50000000E-01  8.50000000E-01  8.50000000E-01  8.00000000E-01  8.50000000E-01
  8.50000000E-01  8.50000000E-01  8.00000000E-01  8.50000000E-01  8.50000000E-01
  8.50000000E-01  8.00000000E-01  8.50000000E-01  8.50000000E-01  8.50000000E-01
  8.00000000E-01  8.50000000E-01  8.50000000E-01  8.50000000E-01  8.00000000E-01
  8.50000000E-01  8.50000000E-01  8.50000000E-01  8.00000000E-01  8.50000000E-01
  8.50000000E-01  8.50000000E-01  8.00000000E-01  8.50000000E-01  8.50000000E-01
  8.50000000E-01  8.00000000E-01  8.50000000E-01  8.50000000E-01  8.50000000E-01
  8.00000000E-01  8.50000000E-01  8.50000000E-01  8.50000000E-01  8.00000000E-01
  8.50000000E-01  8.50000000E-01  8.50000000E-01  8.00000000E-01  8.50000000E-01
  8.50000000E-01  8.50000000E-01  8.00000000E-01  8.50000000E-01  8.50000000E-01
  8.50000000E-01  8.00000000E-01  8.50000000E-01  8.50000000E-01  8.50000000E-01
  8.00000000E-01  8.50000000E-01  8.50000000E-01  8.50000000E-01  8.00000000E-01
  8.50000000E-01  8.50000000E-01  8.50000000E-01  8.00000000E-01  8.50000000E-01
  8.50000000E-01  8.50000000E-01  8.00000000E-01  8.50000000E-01  8.50000000E-01
  8.50000000E-01  8.00000000E-01  8.50000000E-01  8.50000000E-01  8.50000000E-01
  8.00000000E-01  8.50000000E-01  8.50000000E-01  8.50000000E-01  8.00000000E-01
  8.50000000E-01  8.50000000E-01  8.50000000E-01  8.00000000E-01  8.50000000E-01
  8.50000000E-01  8.50000000E-01  8.00000000E-01  8.50000000E-01  8.50000000E-01
  8.50000000E-01  8.00000000E-01  8.50000000E-01  8.50000000E-01  8.50000000E-01
  8.00000000E-01  8.50000000E-01  8.50000000E-01  8.50000000E-01  8.00000000E-01
  8.50000000E-01  8.50000000E-01  8.50000000E-01  8.00000000E-01  8.50000000E-01
  8.50000000E-01  8.50000000E-01  8.00000000E-01  8.50000000E-01  8.50000000E-01
  8.50000000E-01  8.00000000E-01  8.50000000E-01  8.50000000E-01  8.50000000E-01
  8.00000000E-01  8.50000000E-01  8.50000000E-01  8.50000000E-01  8.00000000E-01
  8.50000000E-01  8.50000000E-01  8.50000000E-01  8.00000000E-01  8.50000000E-01
  8.50000000E-01  8.50000000E-01  8.00000000E-01  8.50000000E-01  8.50000000E-01
  8.50000000E-01  8.00000000E-01  8.50000000E-01  8.50000000E-01  8.50000000E-01
  8.00000000E-01  8.50000000E-01  8.50000000E-01  8.50000000E-01  8.00000000E-01
  8.50000000E-01  8.50000000E-01  8.50000000E-01  8.00000000E-01  8.50000000E-01
  8.50000000E-01  8.50000000E-01  8.00000000E-01  8.50000000E-01  8.50000000E-01
  8.50000000E-01  8.00000000E-01  8.50000000E-01  8.50000000E-01  8.50000000E-01
  8.00000000E-01  8.50000000E-01  8.50000000E-01  8.50000000E-01  8.00000000E-01
  8.50000000E-01  8.50000000E-01  8.50000000E-01  8.00000000E-01  8.50000000E-01
  8.50000000E-01  8.50000000E-01  8.00000000E-01  8.50000000E-01  8.50000000E-01
  8.50000000E-01  8.00000000E-01  8.50000000E-01  8.50000000E-01  8.50000000E-01
  8.00000000E-01  8.50000000E-01  8.50000000E-01  8.50000000E-01  8.00000000E-01
  8.50000000E-01  8.50000000E-01  8.50000000E-01  8.00000000E-01  8.50000000E-01
  8.50000000E-01  8.50000000E-01  8.00000000E-01  8.50000000E-01  8.50000000E-01
  8.50000000E-01  8.00000000E-01  8.50000000E-01  8.50000000E-01  8.50000000E-01
  8.00000000E-01  8.50000000E-01  8.50000000E-01  8.50000000E-01  8.00000000E-01
  8.50000000E-01  8.50000000E-01  8.50000000E-01  8.00000000E-01  8.50000000E-01
  8.50000000E-01  8.50000000E-01  8.00000000E-01  8.50000000E-01  8.50000000E-01
  8.50000000E-01  8.00000000E-01  8.50000000E-01  8.50000000E-01  8.50000000E-01
  8.00000000E-01  8.50000000E-01  8.50000000E-01  8.50000000E-01  8.00000000E-01
  8.50000000E-01  8.50000000E-01  8.50000000E-01  8.00000000E-01  8.50000000E-01
  8.50000000E-01  8.50000000E-01  8.00000000E-01  8.50000000E-01  8.50000000E-01
  8.50000000E-01  8.00000000E-01  8.50000000E-01  8.50000000E-01  8.50000000E-01
  8.00000000E-01  8.50000000E-01  8.50000000E-01  8.50000000E-01  8.00000000E-01
  8.50000000E-01  8.50000000E-01  8.50000000E-01  8.00000000E-01  8.50000000E-01
  8.50000000E-01  8.50000000E-01  8.00000000E-01  8.50000000E-01  8.50000000E-01
  8.50000000E-01  8.00000000E-01  8.50000000E-01  8.50000000E-01  8.50000000E-01
  8.00000000E-01  8.50000000E-01  8.50000000E-01  8.50000000E-01  8.00000000E-01
  8.50000000E-01  8.50000000E-01  8.50000000E-01  8.00000000E-01  8.50000000E-01
  8.50000000E-01  8.50000000E-01  8.00000000E-01  8.50000000E-01  8.50000000E-01
  8.50000000E-01  8.00000000E-01  8.50000000E-01  8.50000000E-01  8.50000000E-01
  8.00000000E-01  8.50000000E-01  8.50000000E-01  8.50000000E-01  8.00000000E-01
  8.50000000E-01  8.50000000E-01  8.50000000E-01  8.00000000E-01  8.50000000E-01
  8.50000000E-01  8.50000000E-01  8.00000000E-01  8.50000000E-01  8.50000000E-01
  8.50000000E-01  8.00000000E-01  8.50000000E-01  8.50000000E-01  8.50000000E-01
  8.00000000E-01  8.50000000E-01  8.50000000E-01  8.50000000E-01  8.00000000E-01
  8.50000000E-01  8.50000000E-01  8.50000000E-01  8.00000000E-01  8.50000000E-01
  8.50000000E-01  8.50000000E-01  8.00000000E-01  8.50000000E-01  8.50000000E-01
  8.50000000E-01  8.00000000E-01  8.50000000E-01  8.50000000E-01  8.50000000E-01
  8.00000000E-01  8.50000000E-01  8.50000000E-01  8.50000000E-01  8.00000000E-01
  8.50000000E-01  8.50000000E-01  8.50000000E-01  8.00000000E-01  8.50000000E-01
  8.50000000E-01  8.50000000E-01  8.00000000E-01  8.50000000E-01  8.50000000E-01
  8.50000000E-01  8.00000000E-01  8.50000000E-01  8.50000000E-01  8.50000000E-01
  8.00000000E-01  8.50000000E-01  8.50000000E-01  8.50000000E-01  8.00000000E-01
  8.50000000E-01  8.50000000E-01  8.50000000E-01  8.00000000E-01  8.50000000E-01
  8.50000000E-01  8.50000000E-01  8.00000000E-01  8.50000000E-01  8.50000000E-01
  8.50000000E-01  8.00000000E-01  8.50000000E-01  8.50000000E-01  8.50000000E-01
  8.00000000E-01  8.50000000E-01  8.50000000E-01  8.50000000E-01  8.00000000E-01
  8.50000000E-01  8.50000000E-01  8.50000000E-01  8.00000000E-01  8.50000000E-01
  8.50000000E-01  8.50000000E-01  8.00000000E-01  8.50000000E-01  8.50000000E-01
  8.50000000E-01  8.00000000E-01  8.50000000E-01  8.50000000E-01  8.50000000E-01
  8.00000000E-01  8.50000000E-01  8.50000000E-01  8.50000000E-01  8.00000000E-01
  8.50000000E-01  8.50000000E-01  8.50000000E-01  8.00000000E-01  8.50000000E-01
  8.50000000E-01  8.50000000E-01  8.00000000E-01  8.50000000E-01  8.50000000E-01
  8.50000000E-01  8.00000000E-01  8.50000000E-01  8.50000000E-01  8.50000000E-01
  8.00000000E-01  8.50000000E-01  8.50000000E-01  8.50000000E-01  8.00000000E-01
  8.50000000E-01  8.50000000E-01  8.50000000E-01  8.00000000E-01  8.50000000E-01
  8.50000000E-01  8.50000000E-01  8.00000000E-01  8.50000000E-01  8.50000000E-01
  8.50000000E-01  8.00000000E-01  8.50000000E-01  8.50000000E-01  8.50000000E-01
  8.00000000E-01  8.50000000E-01  8.50000000E-01  8.50000000E-01  8.00000000E-01
  8.50000000E-01  8.50000000E-01  8.50000000E-01  8.00000000E-01  8.50000000E-01
  8.50000000E-01  8.50000000E-01  8.00000000E-01  8.50000000E-01  8.50000000E-01
  8.50000000E-01  8.00000000E-01  8.50000000E-01  8.50000000E-01  8.50000000E-01
  8.00000000E-01  8.50000000E-01  8.50000000E-01  8.50000000E-01  8.00000000E-01
  8.50000000E-01  8.50000000E-01  8.50000000E-01  8.00000000E-01  8.50000000E-01
  8.50000000E-01  8.50000000E-01  8.00000000E-01  8.50000000E-01  8.50000000E-01
  8.50000000E-01  8.00000000E-01  8.50000000E-01  8.50000000E-01  8.50000000E-01
  8.00000000E-01  8.50000000E-01  8.50000000E-01  8.50000000E-01  8.00000000E-01
  8.50000000E-01  8.50000000E-01  8.50000000E-01  8.00000000E-01  8.50000000E-01
  8.50000000E-01  8.50000000E-01  8.00000000E-01  8.50000000E-01  8.50000000E-01
  8.50000000E-01  8.00000000E-01  8.50000000E-01  8.50000000E-01  8.50000000E-01
  8.00000000E-01  8.50000000E-01  8.50000000E-01  8.50000000E-01  8.00000000E-01
  8.50000000E-01  8.50000000E-01  8.50000000E-01  8.00000000E-01  8.50000000E-01
  8.50000000E-01  8.50000000E-01  8.00000000E-01  8.50000000E-01  8.50000000E-01
  8.50000000E-01  8.00000000E-01  8.50000000E-01  8.50000000E-01  8.50000000E-01
  8.00000000E-01  8.50000000E-01  8.50000000E-01  8.50000000E-01  8.00000000E-01
  8.50000000E-01  8.50000000E-01  8.50000000E-01  8.00000000E-01  8.50000000E-01
  8.50000000E-01  8.50000000E-01  8.00000000E-01  8.50000000E-01  8.50000000E-01
  8.50000000E-01  8.00000000E-01  8.50000000E-01  8.50000000E-01  8.50000000E-01
  8.00000000E-01  8.50000000E-01  8.50000000E-01  8.50000000E-01  8.00000000E-01
  8.50000000E-01  8.50000000E-01  8.50000000E-01  8.00000000E-01  8.50000000E-01
  8.50000000E-01  8.50000000E-01  8.00000000E-01  8.50000000E-01  8.50000000E-01
  8.50000000E-01  8.00000000E-01  8.50000000E-01  8.50000000E-01  8.50000000E-01
  8.00000000E-01  8.50000000E-01  8.50000000E-01  8.50000000E-01  8.00000000E-01
  8.50000000E-01  8.50000000E-01  8.50000000E-01  8.00000000E-01  8.50000000E-01
  8.50000000E-01  8.50000000E-01  8.00000000E-01  8.50000000E-01  8.50000000E-01
  8.50000000E-01  8.00000000E-01  8.50000000E-01  8.50000000E-01  8.50000000E-01
  8.00000000E-01  8.50000000E-01  8.50000000E-01  8.50000000E-01  8.00000000E-01
  8.50000000E-01  8.50000000E-01  8.50000000E-01  8.00000000E-01  8.50000000E-01
  8.50000000E-01  8.50000000E-01  8.00000000E-01  8.50000000E-01  8.50000000E-01
  8.50000000E-01  8.00000000E-01  8.50000000E-01  8.50000000E-01  8.50000000E-01
  8.00000000E-01  8.50000000E-01  8.50000000E-01  8.50000000E-01  8.00000000E-01
  8.50000000E-01  8.50000000E-01  8.50000000E-01  8.00000000E-01  8.50000000E-01
  8.50000000E-01  8.50000000E-01  8.00000000E-01  8.50000000E-01  8.50000000E-01
  8.50000000E-01  8.00000000E-01  8.50000000E-01  8.50000000E-01  8.50000000E-01
  8.00000000E-01  8.50000000E-01  8.50000000E-01  8.50000000E-01  8.00000000E-01
  8.50000000E-01  8.50000000E-01  8.50000000E-01  8.00000000E-01  8.50000000E-01
  8.50000000E-01  8.50000000E-01  8.00000000E-01  8.50000000E-01  8.50000000E-01
  8.50000000E-01  8.00000000E-01  8.50000000E-01  8.50000000E-01  8.50000000E-01
  8.00000000E-01  8.50000000E-01  8.50000000E-01  8.50000000E-01  8.00000000E-01
  8.50000000E-01  8.50000000E-01  8.50000000E-01  8.00000000E-01  8.50000000E-01
  8.50000000E-01  8.50000000E-01  8.00000000E-01  8.50000000E-01  8.50000000E-01
  8.50000000E-01  8.00000000E-01  8.50000000E-01  8.50000000E-01  8.50000000E-01
  8.00000000E-01  8.50000000E-01  8.50000000E-01  8.50000000E-01  8.00000000E-01
  8.50000000E-01  8.50000000E-01  8.50000000E-01  8.00000000E-01  8.50000000E-01
  8.50000000E-01  8.50000000E-01  8.00000000E-01  8.50000000E-01  8.50000000E-01
  8.50000000E-01  8.00000000E-01  8.50000000E-01  8.50000000E-01  8.50000000E-01
  8.00000000E-01  8.50000000E-01  8.50000000E-01  8.50000000E-01  8.00000000E-01
  8.50000000E-01  8.50000000E-01  8.50000000E-01  8.00000000E-01  8.50000000E-01
  8.50000000E-01  8.50000000E-01  8.00000000E-01  8.50000000E-01  8.50000000E-01
  8.50000000E-01  8.00000000E-01  8.50000000E-01  8.50000000E-01  8.50000000E-01
  8.00000000E-01  8.50000000E-01  8.50000000E-01  8.50000000E-01  8.00000000E-01
  8.50000000E-01  8.50000000E-01  8.50000000E-01  8.00000000E-01  8.50000000E-01
  8.50000000E-01  8.50000000E-01  8.00000000E-01  8.50000000E-01  8.50000000E-01
  8.50000000E-01  8.00000000E-01  8.50000000E-01  8.50000000E-01  8.50000000E-01
  8.00000000E-01  8.50000000E-01  8.50000000E-01  8.50000000E-01  8.00000000E-01
  8.50000000E-01  8.50000000E-01  8.50000000E-01  8.00000000E-01  8.50000000E-01
  8.50000000E-01  8.50000000E-01  8.00000000E-01  8.50000000E-01  8.50000000E-01
  8.50000000E-01  8.00000000E-01  8.50000000E-01  8.50000000E-01  8.50000000E-01
  8.00000000E-01  8.50000000E-01  8.50000000E-01  8.50000000E-01  8.00000000E-01
  8.50000000E-01  8.50000000E-01  8.50000000E-01  8.00000000E-01  8.50000000E-01
  8.50000000E-01  8.50000000E-01  8.00000000E-01  8.50000000E-01  8.50000000E-01
  8.50000000E-01  8.00000000E-01  8.50000000E-01  8.50000000E-01  8.50000000E-01
  8.00000000E-01  8.50000000E-01  8.50000000E-01  8.50000000E-01  8.00000000E-01
  8.50000000E-01  8.50000000E-01  8.50000000E-01  8.00000000E-01  8.50000000E-01
  8.50000000E-01  8.50000000E-01  8.00000000E-01  8.50000000E-01  8.50000000E-01
  8.50000000E-01  8.00000000E-01  8.50000000E-01  8.50000000E-01  8.50000000E-01
  8.00000000E-01  8.50000000E-01  8.50000000E-01  8.50000000E-01  8.00000000E-01
  8.50000000E-01  8.50000000E-01  8.50000000E-01  8.00000000E-01  8.50000000E-01
  8.50000000E-01  8.50000000E-01  8.00000000E-01  8.50000000E-01  8.50000000E-01
  8.50000000E-01  8.00000000E-01  8.50000000E-01  8.50000000E-01  8.50000000E-01
  8.00000000E-01  8.50000000E-01  8.50000000E-01  8.50000000E-01  8.00000000E-01
  8.50000000E-01  8.50000000E-01  8.50000000E-01  8.00000000E-01  8.50000000E-01
  8.50000000E-01  8.50000000E-01  8.00000000E-01  8.50000000E-01  8.50000000E-01
  8.50000000E-01  8.00000000E-01  8.50000000E-01  8.50000000E-01  8.50000000E-01
  8.00000000E-01  8.50000000E-01  8.50000000E-01  8.50000000E-01  8.00000000E-01
  8.50000000E-01  8.50000000E-01  8.50000000E-01  8.00000000E-01  8.50000000E-01
  8.50000000E-01  8.50000000E-01  8.00000000E-01  8.50000000E-01  8.50000000E-01
  8.50000000E-01  8.00000000E-01  8.50000000E-01  8.50000000E-01  8.50000000E-01
  8.00000000E-01  8.50000000E-01  8.50000000E-01  8.50000000E-01  8.00000000E-01
  8.50000000E-01  8.50000000E-01  8.50000000E-01  8.00000000E-01  8.50000000E-01
  8.50000000E-01  8.50000000E-01  8.00000000E-01  8.50000000E-01  8.50000000E-01
  8.50000000E-01  8.00000000E-01  8.50000000E-01  8.50000000E-01  8.50000000E-01
  8.00000000E-01  8.50000000E-01  8.50000000E-01  8.50000000E-01  8.00000000E-01
  8.50000000E-01  8.50000000E-01  8.50000000E-01  8.00000000E-01  8.50000000E-01
  8.50000000E-01  8.50000000E-01  8.00000000E-01  8.50000000E-01  8.50000000E-01
  8.50000000E-01  8.00000000E-01  8.50000000E-01  8.50000000E-01  8.50000000E-01
  8.00000000E-01  8.50000000E-01  8.50000000E-01  8.50000000E-01  8.00000000E-01
  8.50000000E-01  8.50000000E-01  8.50000000E-01  8.00000000E-01  8.50000000E-01
  8.50000000E-01  8.50000000E-01  8.00000000E-01  8.50000000E-01  8.50000000E-01
  8.50000000E-01  8.00000000E-01  8.50000000E-01  8.50000000E-01  8.50000000E-01
  8.00000000E-01  8.50000000E-01  8.50000000E-01  8.50000000E-01  8.00000000E-01
  8.50000000E-01  8.50000000E-01  8.50000000E-01  8.00000000E-01  8.50000000E-01
  8.50000000E-01  8.50000000E-01  8.00000000E-01  8.50000000E-01  8.50000000E-01
  8.50000000E-01  8.00000000E-01  8.50000000E-01  8.50000000E-01  8.50000000E-01
  8.00000000E-01  8.50000000E-01  8.50000000E-01  8.50000000E-01  8.00000000E-01
  8.50000000E-01  8.50000000E-01  8.50000000E-01  8.00000000E-01  8.50000000E-01
  8.50000000E-01  8.50000000E-01  8.00000000E-01  8.50000000E-01  8.50000000E-01
  8.50000000E-01  8.00000000E-01  8.50000000E-01  8.50000000E-01  8.50000000E-01
  8.00000000E-01  8.50000000E-01  8.50000000E-01  8.50000000E-01  8.00000000E-01
  8.50000000E-01  8.50000000E-01  8.50000000E-01  8.00000000E-01  8.50000000E-01
  8.50000000E-01  8.50000000E-01  8.00000000E-01  8.50000000E-01  8.50000000E-01
  8.50000000E-01  8.00000000E-01  8.50000000E-01  8.50000000E-01  8.50000000E-01
  8.00000000E-01  8.50000000E-01  8.50000000E-01  8.50000000E-01  8.00000000E-01
  8.50000000E-01  8.50000000E-01  8.50000000E-01  8.00000000E-01  8.50000000E-01
  8.50000000E-01  8.50000000E-01  8.00000000E-01  8.50000000E-01  8.50000000E-01
  8.50000000E-01  8.00000000E-01  8.50000000E-01  8.50000000E-01  8.50000000E-01
  8.00000000E-01  8.50000000E-01  8.50000000E-01  8.50000000E-01  8.00000000E-01
  8.50000000E-01  8.50000000E-01  8.50000000E-01  8.00000000E-01  8.50000000E-01
  8.50000000E-01  8.50000000E-01  8.00000000E-01  8.50000000E-01  8.50000000E-01
  8.50000000E-01  8.00000000E-01  8.50000000E-01  8.50000000E-01  8.50000000E-01
  8.00000000E-01  8.50000000E-01  8.50000000E-01  8.50000000E-01  8.00000000E-01
  8.50000000E-01  8.50000000E-01  8.50000000E-01  8.00000000E-01  8.50000000E-01
  8.50000000E-01  8.50000000E-01  8.00000000E-01  8.50000000E-01  8.50000000E-01
  8.50000000E-01  8.00000000E-01  8.50000000E-01  8.50000000E-01  8.50000000E-01
  8.00000000E-01  8.50000000E-01  8.50000000E-01  8.50000000E-01  8.00000000E-01
  8.50000000E-01  8.50000000E-01  8.50000000E-01  8.00000000E-01  8.50000000E-01
  8.50000000E-01  8.50000000E-01  8.00000000E-01  8.50000000E-01  8.50000000E-01
  8.50000000E-01  8.00000000E-01  8.50000000E-01  8.50000000E-01  8.50000000E-01
  8.00000000E-01  8.50000000E-01  8.50000000E-01  8.50000000E-01  8.00000000E-01
  8.50000000E-01  8.50000000E-01  8.50000000E-01  8.00000000E-01  8.50000000E-01
  8.50000000E-01  8.50000000E-01  8.00000000E-01  8.50000000E-01  8.50000000E-01
  8.50000000E-01  8.00000000E-01  8.50000000E-01  8.50000000E-01  8.50000000E-01
  8.00000000E-01  8.50000000E-01  8.50000000E-01  8.50000000E-01  8.00000000E-01
  8.50000000E-01  8.50000000E-01  8.50000000E-01  8.00000000E-01  8.50000000E-01
  8.50000000E-01  8.50000000E-01  8.00000000E-01  8.50000000E-01  8.50000000E-01
  8.50000000E-01  8.00000000E-01  8.50000000E-01  8.50000000E-01  8.50000000E-01
  8.00000000E-01  8.50000000E-01  8.50000000E-01  8.50000000E-01  8.00000000E-01
  8.50000000E-01  8.50000000E-01  8.50000000E-01  8.00000000E-01  8.50000000E-01
  8.50000000E-01  8.50000000E-01  8.00000000E-01  8.50000000E-01  8.50000000E-01
  8.50000000E-01  8.00000000E-01  8.50000000E-01  8.50000000E-01  8.50000000E-01
  8.00000000E-01  8.50000000E-01  8.50000000E-01  8.50000000E-01  8.00000000E-01
  8.50000000E-01  8.50000000E-01  8.50000000E-01  8.00000000E-01  8.50000000E-01
  8.50000000E-01  8.50000000E-01  8.00000000E-01  8.50000000E-01  8.50000000E-01
  8.50000000E-01  8.00000000E-01  8.50000000E-01  8.50000000E-01  8.50000000E-01
  8.00000000E-01  8.50000000E-01  8.50000000E-01  8.50000000E-01  8.00000000E-01
  8.50000000E-01  8.50000000E-01  8.50000000E-01  8.00000000E-01  8.50000000E-01
  8.50000000E-01  8.50000000E-01  8.00000000E-01  8.50000000E-01  8.50000000E-01
  8.50000000E-01  8.00000000E-01  8.50000000E-01  8.50000000E-01  8.50000000E-01
  8.00000000E-01  8.50000000E-01  8.50000000E-01  8.50000000E-01  8.00000000E-01
  8.50000000E-01  8.50000000E-01  8.50000000E-01  8.00000000E-01  8.50000000E-01
  8.50000000E-01  8.50000000E-01  8.00000000E-01  8.50000000E-01  8.50000000E-01
  8.50000000E-01  8.00000000E-01  8.50000000E-01  8.50000000E-01  8.50000000E-01
  8.00000000E-01  8.50000000E-01  8.50000000E-01  8.50000000E-01  8.00000000E-01
  8.50000000E-01  8.50000000E-01  8.50000000E-01  8.00000000E-01  8.50000000E-01
  8.50000000E-01  8.50000000E-01  8.00000000E-01  8.50000000E-01  8.50000000E-01
  8.50000000E-01  8.00000000E-01  8.50000000E-01  8.50000000E-01  8.50000000E-01
  8.00000000E-01  8.50000000E-01  8.50000000E-01  8.50000000E-01  8.00000000E-01
  8.50000000E-01  8.50000000E-01  8.50000000E-01  8.00000000E-01  8.50000000E-01
  8.50000000E-01  8.50000000E-01  8.00000000E-01  8.50000000E-01  8.50000000E-01
  8.50000000E-01  8.00000000E-01  8.50000000E-01  8.50000000E-01  8.50000000E-01
  8.00000000E-01  8.50000000E-01  8.50000000E-01  8.50000000E-01  8.00000000E-01
  8.50000000E-01  8.50000000E-01  8.50000000E-01  8.00000000E-01  8.50000000E-01
  8.50000000E-01  8.50000000E-01  8.00000000E-01  8.50000000E-01  8.50000000E-01
  8.50000000E-01  8.00000000E-01  8.50000000E-01  8.50000000E-01  8.50000000E-01
  8.00000000E-01  8.50000000E-01  8.50000000E-01  8.50000000E-01  8.00000000E-01
  8.50000000E-01  8.50000000E-01  8.50000000E-01  8.00000000E-01  8.50000000E-01
  8.50000000E-01  8.50000000E-01  8.00000000E-01  8.50000000E-01  8.50000000E-01
  8.50000000E-01  8.00000000E-01  8.50000000E-01  8.50000000E-01  8.50000000E-01
  8.00000000E-01  8.50000000E-01  8.50000000E-01  8.50000000E-01  8.00000000E-01
  8.50000000E-01  8.50000000E-01  8.50000000E-01  8.00000000E-01  8.50000000E-01
  8.50000000E-01  8.50000000E-01  8.00000000E-01  8.50000000E-01  8.50000000E-01
  8.50000000E-01  8.00000000E-01  8.50000000E-01  8.50000000E-01  8.50000000E-01
  8.00000000E-01  8.50000000E-01  8.50000000E-01  8.50000000E-01  8.00000000E-01
  8.50000000E-01  8.50000000E-01  8.50000000E-01  8.00000000E-01  8.50000000E-01
  8.50000000E-01  8.50000000E-01  8.00000000E-01  8.50000000E-01  8.50000000E-01
  8.50000000E-01  8.00000000E-01  8.50000000E-01  8.50000000E-01  8.50000000E-01
  8.00000000E-01  8.50000000E-01  8.50000000E-01  8.50000000E-01  8.00000000E-01
  8.50000000E-01  8.50000000E-01  8.50000000E-01  8.00000000E-01  8.50000000E-01
  8.50000000E-01  8.50000000E-01  8.00000000E-01  8.50000000E-01  8.50000000E-01
  8.50000000E-01  8.00000000E-01  8.50000000E-01  8.50000000E-01  8.50000000E-01
  8.00000000E-01  8.50000000E-01  8.50000000E-01  8.50000000E-01  8.00000000E-01
  8.50000000E-01  8.50000000E-01  8.50000000E-01  8.00000000E-01  8.50000000E-01
  8.50000000E-01  8.50000000E-01  8.00000000E-01  8.50000000E-01  8.50000000E-01
  8.50000000E-01  8.00000000E-01  8.50000000E-01  8.50000000E-01  8.50000000E-01
  8.00000000E-01  8.50000000E-01  8.50000000E-01  8.50000000E-01  8.00000000E-01
  8.50000000E-01  8.50000000E-01  8.50000000E-01  8.00000000E-01  8.50000000E-01
  8.50000000E-01  8.50000000E-01  8.00000000E-01  8.50000000E-01  8.50000000E-01
  8.50000000E-01  8.00000000E-01  8.50000000E-01  8.50000000E-01  8.50000000E-01
  8.00000000E-01  8.50000000E-01  8.50000000E-01  8.50000000E-01  8.00000000E-01
  8.50000000E-01  8.50000000E-01  8.50000000E-01  8.00000000E-01  8.50000000E-01
  8.50000000E-01  8.50000000E-01  8.00000000E-01  8.50000000E-01  8.50000000E-01
  8.50000000E-01  8.00000000E-01  8.50000000E-01  8.50000000E-01  8.50000000E-01
  8.00000000E-01  8.50000000E-01  8.50000000E-01  8.50000000E-01  8.00000000E-01
  8.50000000E-01  8.50000000E-01  8.50000000E-01  8.00000000E-01  8.50000000E-01
  8.50000000E-01  8.50000000E-01  8.00000000E-01  8.50000000E-01  8.50000000E-01
  8.50000000E-01  8.00000000E-01  8.50000000E-01  8.50000000E-01  8.50000000E-01
  8.00000000E-01  8.50000000E-01  8.50000000E-01  8.50000000E-01  8.00000000E-01
  8.50000000E-01  8.50000000E-01  8.50000000E-01  8.00000000E-01  8.50000000E-01
  8.50000000E-01  8.50000000E-01  8.00000000E-01  8.50000000E-01  8.50000000E-01
  8.50000000E-01  8.00000000E-01  8.50000000E-01  8.50000000E-01  8.50000000E-01
  8.00000000E-01  8.50000000E-01  8.50000000E-01  8.50000000E-01  8.00000000E-01
  8.50000000E-01  8.50000000E-01  8.50000000E-01  8.00000000E-01  8.50000000E-01
  8.50000000E-01  8.50000000E-01  8.00000000E-01  8.50000000E-01  8.50000000E-01
  8.50000000E-01  8.00000000E-01  8.50000000E-01  8.50000000E-01  8.50000000E-01
  8.00000000E-01  8.50000000E-01  8.50000000E-01  8.50000000E-01  8.00000000E-01
  8.50000000E-01  8.50000000E-01  8.50000000E-01  8.00000000E-01  8.50000000E-01
  8.50000000E-01  8.50000000E-01  8.00000000E-01  8.50000000E-01  8.50000000E-01
  8.50000000E-01  8.00000000E-01  8.50000000E-01  8.50000000E-01  8.50000000E-01
  8.00000000E-01  8.50000000E-01  8.50000000E-01  8.50000000E-01  8.00000000E-01
  8.50000000E-01  8.50000000E-01  8.50000000E-01  8.00000000E-01  8.50000000E-01
  8.50000000E-01  8.50000000E-01  8.00000000E-01  8.50000000E-01  8.50000000E-01
  8.50000000E-01  8.00000000E-01  8.50000000E-01  8.50000000E-01  8.50000000E-01
  8.00000000E-01  8.50000000E-01  8.50000000E-01  8.50000000E-01  8.00000000E-01
  8.50000000E-01  8.50000000E-01  8.50000000E-01  8.00000000E-01  8.50000000E-01
  8.50000000E-01  8.50000000E-01  8.00000000E-01  8.50000000E-01  8.50000000E-01
  8.50000000E-01  8.00000000E-01  8.50000000E-01  8.50000000E-01  8.50000000E-01
  8.00000000E-01  8.50000000E-01  8.50000000E-01  8.50000000E-01  8.00000000E-01
  8.50000000E-01  8.50000000E-01  8.50000000E-01  8.00000000E-01  8.50000000E-01
  8.50000000E-01  8.50000000E-01  8.00000000E-01  8.50000000E-01  8.50000000E-01
  8.50000000E-01  8.00000000E-01  8.50000000E-01  8.50000000E-01  8.50000000E-01
  8.00000000E-01  8.50000000E-01  8.50000000E-01  8.50000000E-01  8.00000000E-01
  8.50000000E-01  8.50000000E-01  8.50000000E-01  8.00000000E-01  8.50000000E-01
  8.50000000E-01  8.50000000E-01  8.00000000E-01  8.50000000E-01  8.50000000E-01
  8.50000000E-01  8.00000000E-01  8.50000000E-01  8.50000000E-01  8.50000000E-01
  8.00000000E-01  8.50000000E-01  8.50000000E-01  8.50000000E-01  8.00000000E-01
  8.50000000E-01  8.50000000E-01  8.50000000E-01  8.00000000E-01  8.50000000E-01
  8.50000000E-01  8.50000000E-01  8.00000000E-01  8.50000000E-01  8.50000000E-01
  8.50000000E-01  8.00000000E-01  8.50000000E-01  8.50000000E-01  8.50000000E-01
  8.00000000E-01  8.50000000E-01  8.50000000E-01  8.50000000E-01  8.00000000E-01
  8.50000000E-01  8.50000000E-01  8.50000000E-01  8.00000000E-01  8.50000000E-01
  8.50000000E-01  8.50000000E-01  8.00000000E-01  8.50000000E-01  8.50000000E-01
  8.50000000E-01  8.00000000E-01  8.50000000E-01  8.50000000E-01  8.50000000E-01
  8.00000000E-01  8.50000000E-01  8.50000000E-01  8.50000000E-01  8.00000000E-01
  8.50000000E-01  8.50000000E-01  8.50000000E-01  8.00000000E-01  8.50000000E-01
  8.50000000E-01  8.50000000E-01  8.00000000E-01  8.50000000E-01  8.50000000E-01
  8.50000000E-01  8.00000000E-01  8.50000000E-01  8.50000000E-01  8.50000000E-01
  8.00000000E-01  8.50000000E-01  8.50000000E-01  8.50000000E-01  8.00000000E-01
  8.50000000E-01  8.50000000E-01  8.50000000E-01  8.00000000E-01  8.50000000E-01
  8.50000000E-01  8.50000000E-01  8.00000000E-01  8.50000000E-01  8.50000000E-01
  8.50000000E-01  8.00000000E-01  8.50000000E-01  8.50000000E-01  8.50000000E-01
  8.00000000E-01  8.50000000E-01  8.50000000E-01  8.50000000E-01  8.00000000E-01
  8.50000000E-01  8.50000000E-01  8.50000000E-01  8.00000000E-01  8.50000000E-01
  8.50000000E-01  8.50000000E-01  8.00000000E-01  8.50000000E-01  8.50000000E-01
  8.50000000E-01  8.00000000E-01  8.50000000E-01  8.50000000E-01  8.50000000E-01
  8.00000000E-01  8.50000000E-01  8.50000000E-01  8.50000000E-01  8.00000000E-01
  8.50000000E-01  8.50000000E-01  8.50000000E-01  8.00000000E-01  8.50000000E-01
  8.50000000E-01  8.50000000E-01  8.00000000E-01  8.50000000E-01  8.50000000E-01
  8.50000000E-01  8.00000000E-01  8.50000000E-01  8.50000000E-01  8.50000000E-01
  8.00000000E-01  8.50000000E-01  8.50000000E-01  8.50000000E-01  8.00000000E-01
  8.50000000E-01  8.50000000E-01  8.50000000E-01  8.00000000E-01  8.50000000E-01
  8.50000000E-01  8.50000000E-01  8.00000000E-01  8.50000000E-01  8.50000000E-01
  8.50000000E-01  8.00000000E-01  8.50000000E-01  8.50000000E-01  8.50000000E-01
  8.00000000E-01  8.50000000E-01  8.50000000E-01  8.50000000E-01  8.00000000E-01
  8.50000000E-01  8.50000000E-01  8.50000000E-01  8.00000000E-01  8.50000000E-01
  8.50000000E-01  8.50000000E-01  8.00000000E-01  8.50000000E-01  8.50000000E-01
  8.50000000E-01  8.00000000E-01  8.50000000E-01  8.50000000E-01  8.50000000E-01
  8.00000000E-01  8.50000000E-01  8.50000000E-01  8.50000000E-01  8.00000000E-01
  8.50000000E-01  8.50000000E-01  8.50000000E-01  8.00000000E-01  8.50000000E-01
  8.50000000E-01  8.50000000E-01  8.00000000E-01  8.50000000E-01  8.50000000E-01
  8.50000000E-01  8.00000000E-01  8.50000000E-01  8.50000000E-01  8.50000000E-01
  8.00000000E-01  8.50000000E-01  8.50000000E-01  8.50000000E-01  8.00000000E-01
  8.50000000E-01  8.50000000E-01  8.50000000E-01  8.00000000E-01  8.50000000E-01
  8.50000000E-01  8.50000000E-01  8.00000000E-01  8.50000000E-01  8.50000000E-01
  8.50000000E-01  8.00000000E-01  8.50000000E-01  8.50000000E-01  8.50000000E-01
  8.00000000E-01  8.50000000E-01  8.50000000E-01  8.50000000E-01  8.00000000E-01
  8.50000000E-01  8.50000000E-01  8.50000000E-01  8.00000000E-01  8.50000000E-01
  8.50000000E-01  8.50000000E-01  8.00000000E-01  8.50000000E-01  8.50000000E-01
  8.50000000E-01  8.00000000E-01  8.50000000E-01  8.50000000E-01  8.50000000E-01
  8.00000000E-01  8.50000000E-01  8.50000000E-01  8.50000000E-01  8.00000000E-01
  8.50000000E-01  8.50000000E-01  8.50000000E-01  8.00000000E-01  8.50000000E-01
  8.50000000E-01  8.50000000E-01  8.00000000E-01  8.50000000E-01  8.50000000E-01
  8.50000000E-01  8.00000000E-01  8.50000000E-01  8.50000000E-01  8.50000000E-01
  8.00000000E-01  8.50000000E-01  8.50000000E-01  8.50000000E-01  8.00000000E-01
  8.50000000E-01  8.50000000E-01  8.50000000E-01  8.00000000E-01  8.50000000E-01
  8.50000000E-01  8.50000000E-01  8.00000000E-01  8.50000000E-01  8.50000000E-01
  8.50000000E-01  8.00000000E-01  8.50000000E-01  8.50000000E-01  8.50000000E-01
  8.00000000E-01  8.50000000E-01  8.50000000E-01  8.50000000E-01  8.00000000E-01
  8.50000000E-01  8.50000000E-01  8.50000000E-01  8.00000000E-01  8.50000000E-01
  8.50000000E-01  8.50000000E-01  8.00000000E-01  8.50000000E-01  8.50000000E-01
  8.50000000E-01  8.00000000E-01  8.50000000E-01  8.50000000E-01  8.50000000E-01
  8.00000000E-01  8.50000000E-01  8.50000000E-01  8.50000000E-01  8.00000000E-01
  8.50000000E-01  8.50000000E-01  8.50000000E-01  8.00000000E-01  8.50000000E-01
  8.50000000E-01  8.50000000E-01  8.00000000E-01  8.50000000E-01  8.50000000E-01
  8.50000000E-01  8.00000000E-01  8.50000000E-01  8.50000000E-01  8.50000000E-01
  8.00000000E-01  8.50000000E-01  8.50000000E-01  8.50000000E-01  8.00000000E-01
  8.50000000E-01  8.50000000E-01  8.50000000E-01  8.00000000E-01  8.50000000E-01
  8.50000000E-01  8.50000000E-01  8.00000000E-01  8.50000000E-01  8.50000000E-01
  8.50000000E-01  8.00000000E-01  8.50000000E-01  8.50000000E-01  8.50000000E-01
  8.00000000E-01  8.50000000E-01  8.50000000E-01  8.50000000E-01  8.00000000E-01
  8.50000000E-01  8.50000000E-01  8.50000000E-01  8.00000000E-01  8.50000000E-01
  8.50000000E-01  8.50000000E-01  8.00000000E-01  8.50000000E-01  8.50000000E-01
  8.50000000E-01  8.00000000E-01  8.50000000E-01  8.50000000E-01  8.50000000E-01
  8.00000000E-01  8.50000000E-01  8.50000000E-01  8.50000000E-01  8.00000000E-01
  8.50000000E-01  8.50000000E-01  8.50000000E-01  8.00000000E-01  8.50000000E-01
  8.50000000E-01  8.50000000E-01  8.00000000E-01  8.50000000E-01  8.50000000E-01
  8.50000000E-01  8.00000000E-01  8.50000000E-01  8.50000000E-01  8.50000000E-01
  8.00000000E-01  8.50000000E-01  8.50000000E-01  8.50000000E-01  8.00000000E-01
  8.50000000E-01  8.50000000E-01  8.50000000E-01  8.00000000E-01  8.50000000E-01
  8.50000000E-01  8.50000000E-01  8.00000000E-01  8.50000000E-01  8.50000000E-01
  8.50000000E-01  8.00000000E-01  8.50000000E-01  8.50000000E-01  8.50000000E-01
  8.00000000E-01  8.50000000E-01  8.50000000E-01  8.50000000E-01  8.00000000E-01
  8.50000000E-01  8.50000000E-01  8.50000000E-01  8.00000000E-01  8.50000000E-01
  8.50000000E-01  8.50000000E-01  8.00000000E-01  8.50000000E-01  8.50000000E-01
  8.50000000E-01  8.00000000E-01  8.50000000E-01  8.50000000E-01  8.50000000E-01
  8.00000000E-01  8.50000000E-01  8.50000000E-01  8.50000000E-01  8.00000000E-01
  8.50000000E-01  8.50000000E-01  8.50000000E-01  8.00000000E-01  8.50000000E-01
  8.50000000E-01  8.50000000E-01  8.00000000E-01  8.50000000E-01  8.50000000E-01
  8.50000000E-01  8.00000000E-01  8.50000000E-01  8.50000000E-01  8.50000000E-01
  8.00000000E-01  8.50000000E-01  8.50000000E-01  8.50000000E-01  8.00000000E-01
  8.50000000E-01  8.50000000E-01  8.50000000E-01  8.00000000E-01  8.50000000E-01
  8.50000000E-01  8.50000000E-01  8.00000000E-01  8.50000000E-01  8.50000000E-01
  8.50000000E-01  8.00000000E-01  8.50000000E-01  8.50000000E-01  8.50000000E-01
  8.00000000E-01  8.50000000E-01  8.50000000E-01  8.50000000E-01  8.00000000E-01
  8.50000000E-01  8.50000000E-01  8.50000000E-01  8.00000000E-01  8.50000000E-01
  8.50000000E-01  8.50000000E-01  8.00000000E-01  8.50000000E-01  8.50000000E-01
  8.50000000E-01  8.00000000E-01  8.50000000E-01  8.50000000E-01  8.50000000E-01
  8.00000000E-01  8.50000000E-01  8.50000000E-01  8.50000000E-01  8.00000000E-01
  8.50000000E-01  8.50000000E-01  8.50000000E-01  8.00000000E-01  8.50000000E-01
  8.50000000E-01  8.50000000E-01  8.00000000E-01  8.50000000E-01  8.50000000E-01
  8.50000000E-01  8.00000000E-01  8.50000000E-01  8.50000000E-01  8.50000000E-01
  8.00000000E-01  8.50000000E-01  8.50000000E-01  8.50000000E-01  8.00000000E-01
  8.50000000E-01  8.50000000E-01  8.50000000E-01  8.00000000E-01  8.50000000E-01
  8.50000000E-01  8.50000000E-01  8.00000000E-01  8.50000000E-01  8.50000000E-01
  8.50000000E-01  8.00000000E-01  8.50000000E-01  8.50000000E-01  8.50000000E-01
  8.00000000E-01  8.50000000E-01  8.50000000E-01  8.50000000E-01  8.00000000E-01
  8.50000000E-01  8.50000000E-01  8.50000000E-01  8.00000000E-01  8.50000000E-01
  8.50000000E-01  8.50000000E-01  8.00000000E-01  8.50000000E-01  8.50000000E-01
  8.50000000E-01  8.00000000E-01  8.50000000E-01  8.50000000E-01  8.50000000E-01
  8.00000000E-01  8.50000000E-01  8.50000000E-01  8.50000000E-01  8.00000000E-01
  8.50000000E-01  8.50000000E-01  8.50000000E-01  8.00000000E-01  8.50000000E-01
  8.50000000E-01  8.50000000E-01  8.00000000E-01  8.50000000E-01  8.50000000E-01
  8.50000000E-01  8.00000000E-01  8.50000000E-01  8.50000000E-01  8.50000000E-01
  8.00000000E-01  8.50000000E-01  8.50000000E-01  8.50000000E-01  8.00000000E-01
  8.50000000E-01  8.50000000E-01  8.50000000E-01  8.00000000E-01  8.50000000E-01
  8.50000000E-01  8.50000000E-01  8.00000000E-01  8.50000000E-01  8.50000000E-01
  8.50000000E-01  8.00000000E-01  8.50000000E-01  8.50000000E-01  8.50000000E-01
  8.00000000E-01  8.50000000E-01  8.50000000E-01  8.50000000E-01  8.00000000E-01
  8.50000000E-01  8.50000000E-01  8.50000000E-01  8.00000000E-01  8.50000000E-01
  8.50000000E-01  8.50000000E-01  8.00000000E-01  8.50000000E-01  8.50000000E-01
  8.50000000E-01  8.00000000E-01  8.50000000E-01  8.50000000E-01  8.50000000E-01
  8.00000000E-01  8.50000000E-01  8.50000000E-01  8.50000000E-01  8.00000000E-01
  8.50000000E-01  8.50000000E-01  8.50000000E-01  8.00000000E-01  8.50000000E-01
  8.50000000E-01  8.50000000E-01  8.00000000E-01  8.50000000E-01  8.50000000E-01
  8.50000000E-01  8.00000000E-01  8.50000000E-01  8.50000000E-01  8.50000000E-01
  8.00000000E-01  8.50000000E-01  8.50000000E-01  8.50000000E-01  8.00000000E-01
  8.50000000E-01  8.50000000E-01  8.50000000E-01  8.00000000E-01  8.50000000E-01
  8.50000000E-01  8.50000000E-01  8.00000000E-01  8.50000000E-01  8.50000000E-01
  8.50000000E-01  8.00000000E-01  8.50000000E-01  8.50000000E-01  8.50000000E-01
  8.00000000E-01  8.50000000E-01  8.50000000E-01  8.50000000E-01  8.00000000E-01
  8.50000000E-01  8.50000000E-01  8.50000000E-01  8.00000000E-01  8.50000000E-01
  8.50000000E-01  8.50000000E-01  8.00000000E-01  8.50000000E-01  8.50000000E-01
  8.50000000E-01  8.00000000E-01  8.50000000E-01  8.50000000E-01  8.50000000E-01
  8.00000000E-01  8.50000000E-01  8.50000000E-01  8.50000000E-01  8.00000000E-01
  8.50000000E-01  8.50000000E-01  8.50000000E-01  8.00000000E-01  8.50000000E-01
  8.50000000E-01  8.50000000E-01  8.00000000E-01  8.50000000E-01  8.50000000E-01
  8.50000000E-01  8.00000000E-01  8.50000000E-01  8.50000000E-01  8.50000000E-01
  8.00000000E-01  8.50000000E-01  8.50000000E-01  8.50000000E-01  8.00000000E-01
  8.50000000E-01  8.50000000E-01  8.50000000E-01  8.00000000E-01  8.50000000E-01
  8.50000000E-01  8.50000000E-01  8.00000000E-01  8.50000000E-01  8.50000000E-01
  8.50000000E-01  8.00000000E-01  8.50000000E-01  8.50000000E-01  8.50000000E-01
  8.00000000E-01  8.50000000E-01  8.50000000E-01  8.50000000E-01  8.00000000E-01
  8.50000000E-01  8.50000000E-01  8.50000000E-01  8.00000000E-01  8.50000000E-01
  8.50000000E-01  8.50000000E-01  8.00000000E-01  8.50000000E-01  8.50000000E-01
  8.50000000E-01  8.00000000E-01  8.50000000E-01  8.50000000E-01  8.50000000E-01
  8.00000000E-01  8.50000000E-01  8.50000000E-01  8.50000000E-01  8.00000000E-01
  8.50000000E-01  8.50000000E-01  8.50000000E-01  8.00000000E-01  8.50000000E-01
  8.50000000E-01  8.50000000E-01  8.00000000E-01  8.50000000E-01  8.50000000E-01
  8.50000000E-01  8.00000000E-01  8.50000000E-01  8.50000000E-01  8.50000000E-01
  8.00000000E-01  8.50000000E-01  8.50000000E-01  8.50000000E-01  8.00000000E-01
  8.50000000E-01  8.50000000E-01  8.50000000E-01  8.00000000E-01  8.50000000E-01
  8.50000000E-01  8.50000000E-01  8.00000000E-01  8.50000000E-01  8.50000000E-01
  8.50000000E-01  8.00000000E-01  8.50000000E-01  8.50000000E-01  8.50000000E-01
  8.00000000E-01  8.50000000E-01  8.50000000E-01  8.50000000E-01  8.00000000E-01
  8.50000000E-01  8.50000000E-01  8.50000000E-01  8.00000000E-01  8.50000000E-01
  8.50000000E-01  8.50000000E-01  8.00000000E-01  8.50000000E-01  8.50000000E-01
  8.50000000E-01  8.00000000E-01  8.50000000E-01  8.50000000E-01  8.50000000E-01
  8.00000000E-01  8.50000000E-01  8.50000000E-01  8.50000000E-01  8.00000000E-01
  8.50000000E-01  8.50000000E-01  8.50000000E-01  8.00000000E-01  8.50000000E-01
  8.50000000E-01  8.50000000E-01  8.00000000E-01  8.50000000E-01  8.50000000E-01
  8.50000000E-01  8.00000000E-01  8.50000000E-01  8.50000000E-01  8.50000000E-01
  8.00000000E-01  8.50000000E-01  8.50000000E-01  8.50000000E-01  8.00000000E-01
  8.50000000E-01  8.50000000E-01  8.50000000E-01  8.00000000E-01  8.50000000E-01
  8.50000000E-01  8.50000000E-01  8.00000000E-01  8.50000000E-01  8.50000000E-01
  8.50000000E-01  8.00000000E-01  8.50000000E-01  8.50000000E-01  8.50000000E-01
  8.00000000E-01  8.50000000E-01  8.50000000E-01  8.50000000E-01  8.00000000E-01
  8.50000000E-01  8.50000000E-01  8.50000000E-01  8.00000000E-01  8.50000000E-01
  8.50000000E-01  8.50000000E-01  8.00000000E-01  8.50000000E-01  8.50000000E-01
  8.50000000E-01  8.00000000E-01  8.50000000E-01  8.50000000E-01  8.50000000E-01
  8.00000000E-01  8.50000000E-01  8.50000000E-01  8.50000000E-01  8.00000000E-01
  8.50000000E-01  8.50000000E-01  8.50000000E-01  8.00000000E-01  8.50000000E-01
  8.50000000E-01  8.50000000E-01  8.00000000E-01  8.50000000E-01  8.50000000E-01
  8.50000000E-01  8.00000000E-01  8.50000000E-01  8.50000000E-01  8.50000000E-01
  8.00000000E-01  8.50000000E-01  8.50000000E-01  8.50000000E-01  8.00000000E-01
  8.50000000E-01  8.50000000E-01  8.50000000E-01  8.00000000E-01  8.50000000E-01
  8.50000000E-01  8.50000000E-01  8.00000000E-01  8.50000000E-01  8.50000000E-01
  8.50000000E-01  8.00000000E-01  8.50000000E-01  8.50000000E-01  8.50000000E-01
  8.00000000E-01  8.50000000E-01  8.50000000E-01  8.50000000E-01  8.00000000E-01
  8.50000000E-01  8.50000000E-01  8.50000000E-01  8.00000000E-01  8.50000000E-01
  8.50000000E-01  8.50000000E-01  8.00000000E-01  8.50000000E-01  8.50000000E-01
  8.50000000E-01  8.00000000E-01  8.50000000E-01  8.50000000E-01  8.50000000E-01
  8.00000000E-01  8.50000000E-01  8.50000000E-01  8.50000000E-01  8.00000000E-01
  8.50000000E-01  8.50000000E-01  8.50000000E-01  8.00000000E-01  8.50000000E-01
  8.50000000E-01  8.50000000E-01  8.00000000E-01  8.50000000E-01  8.50000000E-01
  8.50000000E-01  8.00000000E-01  8.50000000E-01  8.50000000E-01  8.50000000E-01
  8.00000000E-01  8.50000000E-01  8.50000000E-01  8.50000000E-01  8.00000000E-01
  8.50000000E-01  8.50000000E-01  8.50000000E-01  8.00000000E-01  8.50000000E-01
  8.50000000E-01  8.50000000E-01  8.00000000E-01  8.50000000E-01  8.50000000E-01
  8.50000000E-01  8.00000000E-01  8.50000000E-01  8.50000000E-01  8.50000000E-01
  8.00000000E-01  8.50000000E-01  8.50000000E-01  8.50000000E-01  8.00000000E-01
  8.50000000E-01  8.50000000E-01  8.50000000E-01  8.00000000E-01  8.50000000E-01
  8.50000000E-01  8.50000000E-01  8.00000000E-01  8.50000000E-01  8.50000000E-01
  8.50000000E-01  8.00000000E-01  8.50000000E-01  8.50000000E-01  8.50000000E-01
  8.00000000E-01  8.50000000E-01  8.50000000E-01  8.50000000E-01  8.00000000E-01
  8.50000000E-01  8.50000000E-01  8.50000000E-01  8.00000000E-01  8.50000000E-01
  8.50000000E-01  8.50000000E-01  8.00000000E-01  8.50000000E-01  8.50000000E-01
  8.50000000E-01  8.00000000E-01  8.50000000E-01  8.50000000E-01  8.50000000E-01
  8.00000000E-01  8.50000000E-01  8.50000000E-01  8.50000000E-01  8.00000000E-01
  8.50000000E-01  8.50000000E-01  8.50000000E-01  8.00000000E-01  8.50000000E-01
  8.50000000E-01  8.50000000E-01  8.00000000E-01  8.50000000E-01  8.50000000E-01
  8.50000000E-01  8.00000000E-01  8.50000000E-01  8.50000000E-01  8.50000000E-01
  8.00000000E-01  8.50000000E-01  8.50000000E-01  8.50000000E-01  8.00000000E-01
  8.50000000E-01  8.50000000E-01  8.50000000E-01  8.00000000E-01  8.50000000E-01
  8.50000000E-01  8.50000000E-01  8.00000000E-01  8.50000000E-01  8.50000000E-01
  8.50000000E-01  8.00000000E-01  8.50000000E-01  8.50000000E-01  8.50000000E-01
  8.00000000E-01  8.50000000E-01  8.50000000E-01  8.50000000E-01  8.00000000E-01
  8.50000000E-01  8.50000000E-01  8.50000000E-01  8.00000000E-01  8.50000000E-01
  8.50000000E-01  8.50000000E-01  8.00000000E-01  8.50000000E-01  8.50000000E-01
  8.50000000E-01  8.00000000E-01  8.50000000E-01  8.50000000E-01  8.50000000E-01
  8.00000000E-01  8.50000000E-01  8.50000000E-01  8.50000000E-01  8.00000000E-01
  8.50000000E-01  8.50000000E-01  8.50000000E-01  8.00000000E-01  8.50000000E-01
  8.50000000E-01  8.50000000E-01  8.00000000E-01  8.50000000E-01  8.50000000E-01
  8.50000000E-01  8.00000000E-01  8.50000000E-01  8.50000000E-01  8.50000000E-01
  8.00000000E-01  8.50000000E-01  8.50000000E-01  8.50000000E-01  8.00000000E-01
  8.50000000E-01  8.50000000E-01  8.50000000E-01  8.00000000E-01  8.50000000E-01
  8.50000000E-01  8.50000000E-01  8.00000000E-01  8.50000000E-01  8.50000000E-01
  8.50000000E-01  8.00000000E-01  8.50000000E-01  8.50000000E-01  8.50000000E-01
  8.00000000E-01  8.50000000E-01  8.50000000E-01  8.50000000E-01  8.00000000E-01
  8.50000000E-01  8.50000000E-01  8.50000000E-01  8.00000000E-01  8.50000000E-01
  8.50000000E-01  8.50000000E-01  8.00000000E-01  8.50000000E-01  8.50000000E-01
  8.50000000E-01  8.00000000E-01  8.50000000E-01  8.50000000E-01  8.50000000E-01
  8.00000000E-01  8.50000000E-01  8.50000000E-01  8.50000000E-01  8.00000000E-01
  8.50000000E-01  8.50000000E-01  8.50000000E-01  8.00000000E-01  8.50000000E-01
  8.50000000E-01  8.50000000E-01  8.00000000E-01  8.50000000E-01  8.50000000E-01
  8.50000000E-01  8.00000000E-01  8.50000000E-01  8.50000000E-01  8.50000000E-01
  8.00000000E-01  8.50000000E-01  8.50000000E-01  8.50000000E-01  8.00000000E-01
  8.50000000E-01  8.50000000E-01  8.50000000E-01  8.00000000E-01  8.50000000E-01
  8.50000000E-01  8.50000000E-01  8.00000000E-01  8.50000000E-01  8.50000000E-01
  8.50000000E-01  8.00000000E-01  8.50000000E-01  8.50000000E-01  8.50000000E-01
  8.00000000E-01  8.50000000E-01  8.50000000E-01  8.50000000E-01  8.00000000E-01
  8.50000000E-01  8.50000000E-01  8.50000000E-01  8.00000000E-01  8.50000000E-01
  8.50000000E-01  8.50000000E-01  8.00000000E-01  8.50000000E-01  8.50000000E-01
  8.50000000E-01  8.00000000E-01  8.50000000E-01  8.50000000E-01  8.50000000E-01
  8.00000000E-01  8.50000000E-01  8.50000000E-01  8.50000000E-01  8.00000000E-01
  8.50000000E-01  8.50000000E-01  8.50000000E-01  8.00000000E-01  8.50000000E-01
  8.50000000E-01  8.50000000E-01  8.00000000E-01  8.50000000E-01  8.50000000E-01
  8.50000000E-01  8.00000000E-01  8.50000000E-01  8.50000000E-01  8.50000000E-01
  8.00000000E-01  8.50000000E-01  8.50000000E-01  8.50000000E-01  8.00000000E-01
  8.50000000E-01  8.50000000E-01  8.50000000E-01  8.00000000E-01  8.50000000E-01
  8.50000000E-01  8.50000000E-01  8.00000000E-01  8.50000000E-01  8.50000000E-01
  8.50000000E-01  8.00000000E-01  8.50000000E-01  8.50000000E-01  8.50000000E-01
  8.00000000E-01  8.50000000E-01  8.50000000E-01  8.50000000E-01  8.00000000E-01
  8.50000000E-01  8.50000000E-01  8.50000000E-01  8.00000000E-01  8.50000000E-01
  8.50000000E-01  8.50000000E-01  8.00000000E-01  8.50000000E-01  8.50000000E-01
  8.50000000E-01  8.00000000E-01  8.50000000E-01  8.50000000E-01  8.50000000E-01
  8.00000000E-01  8.50000000E-01  8.50000000E-01  8.50000000E-01  8.00000000E-01
  8.50000000E-01  8.50000000E-01  8.50000000E-01  8.00000000E-01  8.50000000E-01
  8.50000000E-01  8.50000000E-01  8.00000000E-01  8.50000000E-01  8.50000000E-01
  8.50000000E-01  8.00000000E-01  8.50000000E-01  8.50000000E-01  8.50000000E-01
  8.00000000E-01  8.50000000E-01  8.50000000E-01  8.50000000E-01  8.00000000E-01
  8.50000000E-01  8.50000000E-01  8.50000000E-01  8.00000000E-01  8.50000000E-01
  8.50000000E-01  8.50000000E-01  8.00000000E-01  8.50000000E-01  8.50000000E-01
  8.50000000E-01  8.00000000E-01  8.50000000E-01  8.50000000E-01  8.50000000E-01
  8.00000000E-01  8.50000000E-01  8.50000000E-01  8.50000000E-01  8.00000000E-01
  8.50000000E-01  8.50000000E-01  8.50000000E-01  8.00000000E-01  8.50000000E-01
  8.50000000E-01  8.50000000E-01  8.00000000E-01  8.50000000E-01  8.50000000E-01
  8.50000000E-01  8.00000000E-01  8.50000000E-01  8.50000000E-01  8.50000000E-01
  8.00000000E-01  8.50000000E-01  8.50000000E-01  8.50000000E-01  8.00000000E-01
  8.50000000E-01  8.50000000E-01  8.50000000E-01  8.00000000E-01  8.50000000E-01
  8.50000000E-01  8.50000000E-01  8.00000000E-01  8.50000000E-01  8.50000000E-01
  8.50000000E-01  8.00000000E-01  8.50000000E-01  8.50000000E-01  8.50000000E-01
  8.00000000E-01  8.50000000E-01  8.50000000E-01  8.50000000E-01  8.00000000E-01
  8.50000000E-01  8.50000000E-01  8.50000000E-01  8.00000000E-01  8.50000000E-01
  8.50000000E-01  8.50000000E-01  8.00000000E-01  8.50000000E-01  8.50000000E-01
  8.50000000E-01  8.00000000E-01  8.50000000E-01  8.50000000E-01  8.50000000E-01
  8.00000000E-01  8.50000000E-01  8.50000000E-01  8.50000000E-01  8.00000000E-01
  8.50000000E-01  8.50000000E-01  8.50000000E-01  8.00000000E-01  8.50000000E-01
  8.50000000E-01  8.50000000E-01  8.00000000E-01  8.50000000E-01  8.50000000E-01
  8.50000000E-01  8.00000000E-01  8.50000000E-01  8.50000000E-01  8.50000000E-01
  8.00000000E-01  8.50000000E-01  8.50000000E-01  8.50000000E-01  8.00000000E-01
  8.50000000E-01  8.50000000E-01  8.50000000E-01  8.00000000E-01  8.50000000E-01
  8.50000000E-01  8.50000000E-01  8.00000000E-01  8.50000000E-01  8.50000000E-01
  8.50000000E-01  8.00000000E-01  8.50000000E-01  8.50000000E-01  8.50000000E-01
  8.00000000E-01  8.50000000E-01  8.50000000E-01  8.50000000E-01  8.00000000E-01
  8.50000000E-01  8.50000000E-01  8.50000000E-01  8.00000000E-01  8.50000000E-01
  8.50000000E-01  8.50000000E-01  8.00000000E-01  8.50000000E-01  8.50000000E-01
  8.50000000E-01  8.00000000E-01  8.50000000E-01  8.50000000E-01  8.50000000E-01
  8.00000000E-01  8.50000000E-01  8.50000000E-01  8.50000000E-01  8.00000000E-01
  8.50000000E-01  8.50000000E-01  8.50000000E-01  8.00000000E-01  8.50000000E-01
  8.50000000E-01  8.50000000E-01  8.00000000E-01  8.50000000E-01  8.50000000E-01
  8.50000000E-01  8.00000000E-01  8.50000000E-01  8.50000000E-01  8.50000000E-01
  8.00000000E-01  8.50000000E-01  8.50000000E-01  8.50000000E-01  8.00000000E-01
  8.50000000E-01  8.50000000E-01  8.50000000E-01  8.00000000E-01  8.50000000E-01
  8.50000000E-01  8.50000000E-01  8.00000000E-01  8.50000000E-01  8.50000000E-01
  8.50000000E-01  8.00000000E-01  8.50000000E-01  8.50000000E-01  8.50000000E-01
  8.00000000E-01  8.50000000E-01  8.50000000E-01  8.50000000E-01  8.00000000E-01
  8.50000000E-01  8.50000000E-01  8.50000000E-01  8.00000000E-01  8.50000000E-01
  8.50000000E-01  8.50000000E-01  8.00000000E-01  8.50000000E-01  8.50000000E-01
  8.50000000E-01  8.00000000E-01  8.50000000E-01  8.50000000E-01  8.50000000E-01
  8.00000000E-01  8.50000000E-01  8.50000000E-01  8.50000000E-01  8.00000000E-01
  8.50000000E-01  8.50000000E-01  8.50000000E-01  8.00000000E-01  8.50000000E-01
  8.50000000E-01  8.50000000E-01  8.00000000E-01  8.50000000E-01  8.50000000E-01
  8.50000000E-01  8.00000000E-01  8.50000000E-01  8.50000000E-01  8.50000000E-01
  8.00000000E-01  8.50000000E-01  8.50000000E-01  8.50000000E-01  8.00000000E-01
  8.50000000E-01  8.50000000E-01  8.50000000E-01  8.00000000E-01  8.50000000E-01
  8.50000000E-01  8.50000000E-01  8.00000000E-01  8.50000000E-01  8.50000000E-01
  8.50000000E-01  8.00000000E-01  8.50000000E-01  8.50000000E-01  8.50000000E-01
  8.00000000E-01  8.50000000E-01  8.50000000E-01  8.50000000E-01  8.00000000E-01
  8.50000000E-01  8.50000000E-01  8.50000000E-01  8.00000000E-01  8.50000000E-01
  8.50000000E-01  8.50000000E-01  8.00000000E-01  8.50000000E-01  8.50000000E-01
  8.50000000E-01  8.00000000E-01  8.50000000E-01  8.50000000E-01  8.50000000E-01
  8.00000000E-01  8.50000000E-01  8.50000000E-01  8.50000000E-01  8.00000000E-01
  8.50000000E-01  8.50000000E-01  8.50000000E-01  8.00000000E-01  8.50000000E-01
  8.50000000E-01  8.50000000E-01  8.00000000E-01  8.50000000E-01  8.50000000E-01
  8.50000000E-01  8.00000000E-01  8.50000000E-01  8.50000000E-01  8.50000000E-01
  8.00000000E-01  8.50000000E-01  8.50000000E-01  8.50000000E-01  8.00000000E-01
  8.50000000E-01  8.50000000E-01  8.50000000E-01  8.00000000E-01  8.50000000E-01
  8.50000000E-01  8.50000000E-01  8.00000000E-01  8.50000000E-01  8.50000000E-01
  8.50000000E-01  8.00000000E-01  8.50000000E-01  8.50000000E-01  8.50000000E-01
  8.00000000E-01  8.50000000E-01  8.50000000E-01  8.50000000E-01  8.00000000E-01
  8.50000000E-01  8.50000000E-01  8.50000000E-01  8.00000000E-01  8.50000000E-01
  8.50000000E-01  8.50000000E-01  8.00000000E-01  8.50000000E-01  8.50000000E-01
  8.50000000E-01  8.00000000E-01  8.50000000E-01  8.50000000E-01  8.50000000E-01
  8.00000000E-01  8.50000000E-01  8.50000000E-01  8.50000000E-01  8.00000000E-01
  8.50000000E-01  8.50000000E-01  8.50000000E-01  8.00000000E-01  8.50000000E-01
  8.50000000E-01  8.50000000E-01  8.00000000E-01  8.50000000E-01  8.50000000E-01
  8.50000000E-01  8.00000000E-01  8.50000000E-01  8.50000000E-01  8.50000000E-01
  8.00000000E-01  8.50000000E-01  8.50000000E-01  8.50000000E-01  8.00000000E-01
  8.50000000E-01  8.50000000E-01  8.50000000E-01  8.00000000E-01  8.50000000E-01
  8.50000000E-01  8.50000000E-01  8.00000000E-01  8.50000000E-01  8.50000000E-01
  8.50000000E-01  8.00000000E-01  8.50000000E-01  8.50000000E-01  8.50000000E-01
  8.00000000E-01  8.50000000E-01  8.50000000E-01  8.50000000E-01  8.00000000E-01
  8.50000000E-01  8.50000000E-01  8.50000000E-01  8.00000000E-01  8.50000000E-01
  8.50000000E-01  8.50000000E-01  8.00000000E-01  8.50000000E-01  8.50000000E-01
  8.50000000E-01  8.00000000E-01  8.50000000E-01  8.50000000E-01  8.50000000E-01
  8.00000000E-01  8.50000000E-01  8.50000000E-01  8.50000000E-01  8.00000000E-01
  8.50000000E-01  8.50000000E-01  8.50000000E-01  8.00000000E-01  8.50000000E-01
  8.50000000E-01  8.50000000E-01  8.00000000E-01  8.50000000E-01  8.50000000E-01
  8.50000000E-01  8.00000000E-01  8.50000000E-01  8.50000000E-01  8.50000000E-01
  8.00000000E-01  8.50000000E-01  8.50000000E-01  8.50000000E-01  8.00000000E-01
  8.50000000E-01  8.50000000E-01  8.50000000E-01  8.00000000E-01  8.50000000E-01
  8.50000000E-01  8.50000000E-01  8.00000000E-01  8.50000000E-01  8.50000000E-01
  8.50000000E-01  8.00000000E-01  8.50000000E-01  8.50000000E-01  8.50000000E-01
  8.00000000E-01  8.50000000E-01  8.50000000E-01  8.50000000E-01  8.00000000E-01
  8.50000000E-01  8.50000000E-01  8.50000000E-01  8.00000000E-01  8.50000000E-01
  8.50000000E-01  8.50000000E-01  8.00000000E-01  8.50000000E-01  8.50000000E-01
  8.50000000E-01  8.00000000E-01  8.50000000E-01  8.50000000E-01  8.50000000E-01
  8.00000000E-01  8.50000000E-01  8.50000000E-01  8.50000000E-01  8.00000000E-01
  8.50000000E-01  8.50000000E-01  8.50000000E-01  8.00000000E-01  8.50000000E-01
  8.50000000E-01  8.50000000E-01  8.00000000E-01  8.50000000E-01  8.50000000E-01
  8.50000000E-01  8.00000000E-01  8.50000000E-01  8.50000000E-01  8.50000000E-01
  8.00000000E-01  8.50000000E-01  8.50000000E-01  8.50000000E-01  8.00000000E-01
  8.50000000E-01  8.50000000E-01  8.50000000E-01  8.00000000E-01  8.50000000E-01
  8.50000000E-01  8.50000000E-01  8.00000000E-01  8.50000000E-01  8.50000000E-01
  8.50000000E-01  8.00000000E-01  8.50000000E-01  8.50000000E-01  8.50000000E-01
  8.00000000E-01  8.50000000E-01  8.50000000E-01  8.50000000E-01  8.00000000E-01
  8.50000000E-01  8.50000000E-01  8.50000000E-01  8.00000000E-01  8.50000000E-01
  8.50000000E-01  8.50000000E-01  8.00000000E-01  8.50000000E-01  8.50000000E-01
  8.50000000E-01  8.00000000E-01  8.50000000E-01  8.50000000E-01  8.50000000E-01
  8.00000000E-01  8.50000000E-01  8.50000000E-01  8.50000000E-01  8.00000000E-01
  8.50000000E-01  8.50000000E-01  8.50000000E-01  8.00000000E-01  8.50000000E-01
  8.50000000E-01  8.50000000E-01  8.00000000E-01  8.50000000E-01  8.50000000E-01
  8.50000000E-01  8.00000000E-01  8.50000000E-01  8.50000000E-01  8.50000000E-01
  8.00000000E-01  8.50000000E-01  8.50000000E-01  8.50000000E-01  8.00000000E-01
  8.50000000E-01  8.50000000E-01  8.50000000E-01  8.00000000E-01  8.50000000E-01
  8.50000000E-01  8.50000000E-01  8.00000000E-01  8.50000000E-01  8.50000000E-01
  8.50000000E-01  8.00000000E-01  8.50000000E-01  8.50000000E-01  8.50000000E-01
  8.00000000E-01  8.50000000E-01  8.50000000E-01  8.50000000E-01  8.00000000E-01
  8.50000000E-01  8.50000000E-01  8.50000000E-01  8.00000000E-01  8.50000000E-01
  8.50000000E-01  8.50000000E-01  8.00000000E-01  8.50000000E-01  8.50000000E-01
  8.50000000E-01  8.00000000E-01  8.50000000E-01  8.50000000E-01  8.50000000E-01
  8.00000000E-01  8.50000000E-01  8.50000000E-01  8.50000000E-01  8.00000000E-01
  8.50000000E-01  8.50000000E-01  8.50000000E-01  8.00000000E-01  8.50000000E-01
  8.50000000E-01  8.50000000E-01  8.00000000E-01  8.50000000E-01  8.50000000E-01
  8.50000000E-01  8.00000000E-01  8.50000000E-01  8.50000000E-01  8.50000000E-01
  8.00000000E-01  8.50000000E-01  8.50000000E-01  8.50000000E-01  8.00000000E-01
  8.50000000E-01  8.50000000E-01  8.50000000E-01  8.00000000E-01  8.50000000E-01
  8.50000000E-01  8.50000000E-01  8.00000000E-01  8.50000000E-01  8.50000000E-01
  8.50000000E-01  8.00000000E-01  8.50000000E-01  8.50000000E-01  8.50000000E-01
  8.00000000E-01  8.50000000E-01  8.50000000E-01  8.50000000E-01  8.00000000E-01
  8.50000000E-01  8.50000000E-01  8.50000000E-01  8.00000000E-01  8.50000000E-01
  8.50000000E-01  8.50000000E-01  8.00000000E-01  8.50000000E-01  8.50000000E-01
  8.50000000E-01  8.00000000E-01  8.50000000E-01  8.50000000E-01  8.50000000E-01
  8.00000000E-01  8.50000000E-01  8.50000000E-01  8.50000000E-01  8.00000000E-01
  8.50000000E-01  8.50000000E-01  8.50000000E-01  8.00000000E-01  8.50000000E-01
  8.50000000E-01  8.50000000E-01  8.00000000E-01  8.50000000E-01  8.50000000E-01
  8.50000000E-01  8.00000000E-01  8.50000000E-01  8.50000000E-01  8.50000000E-01
  8.00000000E-01  8.50000000E-01  8.50000000E-01  8.50000000E-01  8.00000000E-01
  8.50000000E-01  8.50000000E-01  8.50000000E-01  8.00000000E-01  8.50000000E-01
  8.50000000E-01  8.50000000E-01  8.00000000E-01  8.50000000E-01  8.50000000E-01
  8.50000000E-01  8.00000000E-01  8.50000000E-01  8.50000000E-01  8.50000000E-01
  8.00000000E-01  8.50000000E-01  8.50000000E-01  8.50000000E-01  8.00000000E-01
  8.50000000E-01  8.50000000E-01  8.50000000E-01  8.00000000E-01  8.50000000E-01
  8.50000000E-01  8.50000000E-01  8.00000000E-01  8.50000000E-01  8.50000000E-01
  8.50000000E-01  8.00000000E-01  8.50000000E-01  8.50000000E-01  8.50000000E-01
  8.00000000E-01  8.50000000E-01  8.50000000E-01  8.50000000E-01  8.00000000E-01
  8.50000000E-01  8.50000000E-01  8.50000000E-01  8.00000000E-01  8.50000000E-01
  8.50000000E-01  8.50000000E-01  8.00000000E-01  8.50000000E-01  8.50000000E-01
  8.50000000E-01  8.00000000E-01  8.50000000E-01  8.50000000E-01  8.50000000E-01
  8.00000000E-01  8.50000000E-01  8.50000000E-01  8.50000000E-01  8.00000000E-01
  8.50000000E-01  8.50000000E-01  8.50000000E-01  8.00000000E-01  8.50000000E-01
  8.50000000E-01  8.50000000E-01  8.00000000E-01  8.50000000E-01  8.50000000E-01
  8.50000000E-01  8.00000000E-01  8.50000000E-01  8.50000000E-01  8.50000000E-01
  8.00000000E-01  8.50000000E-01  8.50000000E-01  8.50000000E-01  8.00000000E-01
  8.50000000E-01  8.50000000E-01  8.50000000E-01  8.00000000E-01  8.50000000E-01
  8.50000000E-01  8.50000000E-01  8.00000000E-01  8.50000000E-01  8.50000000E-01
  8.50000000E-01  8.00000000E-01  8.50000000E-01  8.50000000E-01  8.50000000E-01
  8.00000000E-01  8.50000000E-01  8.50000000E-01  8.50000000E-01  8.00000000E-01
  8.50000000E-01  8.50000000E-01  8.50000000E-01  8.00000000E-01  8.50000000E-01
  8.50000000E-01  8.50000000E-01  8.00000000E-01  8.50000000E-01  8.50000000E-01
  8.50000000E-01  8.00000000E-01  8.50000000E-01  8.50000000E-01  8.50000000E-01
  8.00000000E-01  8.50000000E-01  8.50000000E-01  8.50000000E-01  8.00000000E-01
  8.50000000E-01  8.50000000E-01  8.50000000E-01  8.00000000E-01  8.50000000E-01
  8.50000000E-01  8.50000000E-01  8.00000000E-01  8.50000000E-01  8.50000000E-01
  8.50000000E-01  8.00000000E-01  8.50000000E-01  8.50000000E-01  8.50000000E-01
  8.00000000E-01  8.50000000E-01  8.50000000E-01  8.50000000E-01  8.00000000E-01
  8.50000000E-01  8.50000000E-01  8.50000000E-01  8.00000000E-01  8.50000000E-01
  8.50000000E-01  8.50000000E-01  8.00000000E-01  8.50000000E-01  8.50000000E-01
  8.50000000E-01  8.00000000E-01  8.50000000E-01  8.50000000E-01  8.50000000E-01
  8.00000000E-01  8.50000000E-01  8.50000000E-01  8.50000000E-01  8.00000000E-01
  8.50000000E-01  8.50000000E-01  8.50000000E-01  8.00000000E-01  8.50000000E-01
  8.50000000E-01  8.50000000E-01  8.00000000E-01  8.50000000E-01  8.50000000E-01
  8.50000000E-01  8.00000000E-01  8.50000000E-01  8.50000000E-01  8.50000000E-01
  8.00000000E-01  8.50000000E-01  8.50000000E-01  8.50000000E-01  8.00000000E-01
  8.50000000E-01  8.50000000E-01  8.50000000E-01  8.00000000E-01  8.50000000E-01
  8.50000000E-01  8.50000000E-01  8.00000000E-01  8.50000000E-01  8.50000000E-01
  8.50000000E-01  8.00000000E-01  8.50000000E-01  8.50000000E-01  8.50000000E-01
  8.00000000E-01  8.50000000E-01  8.50000000E-01  8.50000000E-01  8.00000000E-01
  8.50000000E-01  8.50000000E-01  8.50000000E-01  8.00000000E-01  8.50000000E-01
  8.50000000E-01  8.50000000E-01  8.00000000E-01  8.50000000E-01  8.50000000E-01
  8.50000000E-01  8.00000000E-01  8.50000000E-01  8.50000000E-01  8.50000000E-01
  8.00000000E-01  8.50000000E-01  8.50000000E-01  8.50000000E-01  8.00000000E-01
  8.50000000E-01  8.50000000E-01  8.50000000E-01  8.00000000E-01  8.50000000E-01
  8.50000000E-01  8.50000000E-01  8.00000000E-01  8.50000000E-01  8.50000000E-01
  8.50000000E-01  8.00000000E-01  8.50000000E-01  8.50000000E-01  8.50000000E-01
  8.00000000E-01  8.50000000E-01  8.50000000E-01  8.50000000E-01  8.00000000E-01
  8.50000000E-01  8.50000000E-01  8.50000000E-01  8.00000000E-01  8.50000000E-01
  8.50000000E-01  8.50000000E-01  8.00000000E-01  8.50000000E-01  8.50000000E-01
  8.50000000E-01  8.00000000E-01  8.50000000E-01  8.50000000E-01  8.50000000E-01
  8.00000000E-01  8.50000000E-01  8.50000000E-01  8.50000000E-01  8.00000000E-01
  8.50000000E-01  8.50000000E-01  8.50000000E-01  8.00000000E-01  8.50000000E-01
  8.50000000E-01  8.50000000E-01  8.00000000E-01  8.50000000E-01  8.50000000E-01
  8.50000000E-01  8.00000000E-01  8.50000000E-01  8.50000000E-01  8.50000000E-01
  8.00000000E-01  8.50000000E-01  8.50000000E-01  8.50000000E-01  8.00000000E-01
  8.50000000E-01  8.50000000E-01  8.50000000E-01  8.00000000E-01  8.50000000E-01
  8.50000000E-01  8.50000000E-01  8.00000000E-01  8.50000000E-01  8.50000000E-01
  8.50000000E-01  8.00000000E-01  8.50000000E-01  8.50000000E-01  8.50000000E-01
  8.00000000E-01  8.50000000E-01  8.50000000E-01  8.50000000E-01  8.00000000E-01
  8.50000000E-01  8.50000000E-01  8.50000000E-01  8.00000000E-01  8.50000000E-01
  8.50000000E-01  8.50000000E-01  8.00000000E-01  8.50000000E-01  8.50000000E-01
  8.50000000E-01  8.00000000E-01  8.50000000E-01  8.50000000E-01  8.50000000E-01
  8.00000000E-01  8.50000000E-01  8.50000000E-01  8.50000000E-01  8.00000000E-01
  8.50000000E-01  8.50000000E-01  8.50000000E-01  8.00000000E-01  8.50000000E-01
  8.50000000E-01  8.50000000E-01  8.00000000E-01  8.50000000E-01  8.50000000E-01
  8.50000000E-01  8.00000000E-01  8.50000000E-01  8.50000000E-01  8.50000000E-01
  8.00000000E-01  8.50000000E-01  8.50000000E-01  8.50000000E-01  8.00000000E-01
  8.50000000E-01  8.50000000E-01  8.50000000E-01  8.00000000E-01  8.50000000E-01
  8.50000000E-01  8.50000000E-01  8.00000000E-01  8.50000000E-01  8.50000000E-01
  8.50000000E-01  8.00000000E-01  8.50000000E-01  8.50000000E-01  8.50000000E-01
  8.00000000E-01  8.50000000E-01  8.50000000E-01  8.50000000E-01  8.00000000E-01
  8.50000000E-01  8.50000000E-01  8.50000000E-01  8.00000000E-01  8.50000000E-01
  8.50000000E-01  8.50000000E-01  8.00000000E-01  8.50000000E-01  8.50000000E-01
  8.50000000E-01  8.00000000E-01  8.50000000E-01  8.50000000E-01  8.50000000E-01
  8.00000000E-01  8.50000000E-01  8.50000000E-01  8.50000000E-01  8.00000000E-01
  8.50000000E-01  8.50000000E-01  8.50000000E-01  8.00000000E-01  8.50000000E-01
  8.50000000E-01  8.50000000E-01  8.00000000E-01  8.50000000E-01  8.50000000E-01
  8.50000000E-01  8.00000000E-01  8.50000000E-01  8.50000000E-01  8.50000000E-01
  8.00000000E-01  8.50000000E-01  8.50000000E-01  8.50000000E-01  8.00000000E-01
  8.50000000E-01  8.50000000E-01  8.50000000E-01  8.00000000E-01  8.50000000E-01
  8.50000000E-01  8.50000000E-01  8.00000000E-01  8.50000000E-01  8.50000000E-01
  8.50000000E-01  8.00000000E-01  8.50000000E-01  8.50000000E-01  8.50000000E-01
  8.00000000E-01  8.50000000E-01  8.50000000E-01  8.50000000E-01  8.00000000E-01
  8.50000000E-01  8.50000000E-01  8.50000000E-01  8.00000000E-01  8.50000000E-01
  8.50000000E-01  8.50000000E-01  8.00000000E-01  8.50000000E-01  8.50000000E-01
  8.50000000E-01  8.00000000E-01  8.50000000E-01  8.50000000E-01  8.50000000E-01
  8.00000000E-01  8.50000000E-01  8.50000000E-01  8.50000000E-01  8.00000000E-01
  8.50000000E-01  8.50000000E-01  8.50000000E-01  8.00000000E-01  8.50000000E-01
  8.50000000E-01  8.50000000E-01  8.00000000E-01  8.50000000E-01  8.50000000E-01
  8.50000000E-01  8.00000000E-01  8.50000000E-01  8.50000000E-01  8.50000000E-01
  8.00000000E-01  8.50000000E-01  8.50000000E-01  8.50000000E-01  8.00000000E-01
  8.50000000E-01  8.50000000E-01  8.50000000E-01  8.00000000E-01  8.50000000E-01
  8.50000000E-01  8.50000000E-01  8.00000000E-01  8.50000000E-01  8.50000000E-01
  8.50000000E-01  8.00000000E-01  8.50000000E-01  8.50000000E-01  8.50000000E-01
  8.00000000E-01  8.50000000E-01  8.50000000E-01  8.50000000E-01  8.00000000E-01
  8.50000000E-01  8.50000000E-01  8.50000000E-01  8.00000000E-01  8.50000000E-01
  8.50000000E-01  8.50000000E-01  8.00000000E-01  8.50000000E-01  8.50000000E-01
  8.50000000E-01  8.00000000E-01  8.50000000E-01  8.50000000E-01  8.50000000E-01
  8.00000000E-01  8.50000000E-01  8.50000000E-01  8.50000000E-01  8.00000000E-01
  8.50000000E-01  8.50000000E-01  8.50000000E-01  8.00000000E-01  8.50000000E-01
  8.50000000E-01  8.50000000E-01  8.00000000E-01  8.50000000E-01  8.50000000E-01
  8.50000000E-01  8.00000000E-01  8.50000000E-01  8.50000000E-01  8.50000000E-01
  8.00000000E-01  8.50000000E-01  8.50000000E-01  8.50000000E-01  8.00000000E-01
  8.50000000E-01  8.50000000E-01  8.50000000E-01  8.00000000E-01  8.50000000E-01
  8.50000000E-01  8.50000000E-01  8.00000000E-01  8.50000000E-01  8.50000000E-01
  8.50000000E-01  8.00000000E-01  8.50000000E-01  8.50000000E-01  8.50000000E-01
  8.00000000E-01  8.50000000E-01  8.50000000E-01  8.50000000E-01  8.00000000E-01
  8.50000000E-01  8.50000000E-01  8.50000000E-01  8.00000000E-01  8.50000000E-01
  8.50000000E-01  8.50000000E-01  8.00000000E-01  8.50000000E-01  8.50000000E-01
  8.50000000E-01  8.00000000E-01  8.50000000E-01  8.50000000E-01  8.50000000E-01
  8.00000000E-01  8.50000000E-01  8.50000000E-01  8.50000000E-01  8.00000000E-01
  8.50000000E-01  8.50000000E-01  8.50000000E-01  8.00000000E-01  8.50000000E-01
  8.50000000E-01  8.50000000E-01  8.00000000E-01  8.50000000E-01  8.50000000E-01
  8.50000000E-01  8.00000000E-01  8.50000000E-01  8.50000000E-01  8.50000000E-01
  8.00000000E-01  8.50000000E-01  8.50000000E-01  8.50000000E-01  8.00000000E-01
  8.50000000E-01  8.50000000E-01  8.50000000E-01  8.00000000E-01  8.50000000E-01
  8.50000000E-01  8.50000000E-01  8.00000000E-01  8.50000000E-01  8.50000000E-01
  8.50000000E-01  8.00000000E-01  8.50000000E-01  8.50000000E-01  8.50000000E-01
  8.00000000E-01  8.50000000E-01  8.50000000E-01  8.50000000E-01  8.00000000E-01
  8.50000000E-01  8.50000000E-01  8.50000000E-01  8.00000000E-01  8.50000000E-01
  8.50000000E-01  8.50000000E-01  8.00000000E-01  8.50000000E-01  8.50000000E-01
  8.50000000E-01  8.00000000E-01  8.50000000E-01  8.50000000E-01  8.50000000E-01
  8.00000000E-01  8.50000000E-01  8.50000000E-01  8.50000000E-01  8.00000000E-01
  8.50000000E-01  8.50000000E-01  8.50000000E-01  8.00000000E-01  8.50000000E-01
  8.50000000E-01  8.50000000E-01  8.00000000E-01  8.50000000E-01  8.50000000E-01
  8.50000000E-01  8.00000000E-01  8.50000000E-01  8.50000000E-01  8.50000000E-01
  8.00000000E-01  8.50000000E-01  8.50000000E-01  8.50000000E-01  8.00000000E-01
  8.50000000E-01  8.50000000E-01  8.50000000E-01  8.00000000E-01  8.50000000E-01
  8.50000000E-01  8.50000000E-01  8.00000000E-01  8.50000000E-01  8.50000000E-01
  8.50000000E-01  8.00000000E-01  8.50000000E-01  8.50000000E-01  8.50000000E-01
  8.00000000E-01  8.50000000E-01  8.50000000E-01  8.50000000E-01  8.00000000E-01
  8.50000000E-01  8.50000000E-01  8.50000000E-01  8.00000000E-01  8.50000000E-01
  8.50000000E-01  8.50000000E-01  8.00000000E-01  8.50000000E-01  8.50000000E-01
  8.50000000E-01  8.00000000E-01  8.50000000E-01  8.50000000E-01  8.50000000E-01
  8.00000000E-01  8.50000000E-01  8.50000000E-01  8.50000000E-01  8.00000000E-01
  8.50000000E-01  8.50000000E-01  8.50000000E-01  8.00000000E-01  8.50000000E-01
  8.50000000E-01  8.50000000E-01  8.00000000E-01  8.50000000E-01  8.50000000E-01
  8.50000000E-01  8.00000000E-01  8.50000000E-01  8.50000000E-01  8.50000000E-01
  8.00000000E-01  8.50000000E-01  8.50000000E-01  8.50000000E-01  8.00000000E-01
  8.50000000E-01  8.50000000E-01  8.50000000E-01  8.00000000E-01  8.50000000E-01
  8.50000000E-01  8.50000000E-01  8.00000000E-01  8.50000000E-01  8.50000000E-01
  8.50000000E-01  8.00000000E-01  8.50000000E-01  8.50000000E-01  8.50000000E-01
  8.00000000E-01  8.50000000E-01  8.50000000E-01  8.50000000E-01  8.00000000E-01
  8.50000000E-01  8.50000000E-01  8.50000000E-01  8.00000000E-01  8.50000000E-01
  8.50000000E-01  8.50000000E-01  8.00000000E-01  8.50000000E-01  8.50000000E-01
  8.50000000E-01  8.00000000E-01  8.50000000E-01  8.50000000E-01  8.50000000E-01
  8.00000000E-01  8.50000000E-01  8.50000000E-01  8.50000000E-01  8.00000000E-01
  8.50000000E-01  8.50000000E-01  8.50000000E-01  8.00000000E-01  8.50000000E-01
  8.50000000E-01  8.50000000E-01  8.00000000E-01  8.50000000E-01  8.50000000E-01
  8.50000000E-01  8.00000000E-01  8.50000000E-01  8.50000000E-01  8.50000000E-01
  8.00000000E-01  8.50000000E-01  8.50000000E-01  8.50000000E-01  8.00000000E-01
  8.50000000E-01  8.50000000E-01  8.50000000E-01  8.00000000E-01  8.50000000E-01
  8.50000000E-01  8.50000000E-01  8.00000000E-01  8.50000000E-01  8.50000000E-01
  8.50000000E-01  8.00000000E-01  8.50000000E-01  8.50000000E-01  8.50000000E-01
  8.00000000E-01  8.50000000E-01  8.50000000E-01  8.50000000E-01  8.00000000E-01
  8.50000000E-01  8.50000000E-01  8.50000000E-01  8.00000000E-01  8.50000000E-01
  8.50000000E-01  8.50000000E-01  8.00000000E-01  8.50000000E-01  8.50000000E-01
  8.50000000E-01  8.00000000E-01  8.50000000E-01  8.50000000E-01  8.50000000E-01
  8.00000000E-01  8.50000000E-01  8.50000000E-01  8.50000000E-01  8.00000000E-01
  8.50000000E-01  8.50000000E-01  8.50000000E-01  8.00000000E-01  8.50000000E-01
  8.50000000E-01  8.50000000E-01  8.00000000E-01  8.50000000E-01  8.50000000E-01
  8.50000000E-01  8.00000000E-01  8.50000000E-01  8.50000000E-01  8.50000000E-01
  8.00000000E-01  8.50000000E-01  8.50000000E-01  8.50000000E-01  8.00000000E-01
  8.50000000E-01  8.50000000E-01  8.50000000E-01  8.00000000E-01  8.50000000E-01
  8.50000000E-01  8.50000000E-01  8.00000000E-01  8.50000000E-01  8.50000000E-01
  8.50000000E-01  8.00000000E-01  8.50000000E-01  8.50000000E-01  8.50000000E-01
  8.00000000E-01  8.50000000E-01  8.50000000E-01  8.50000000E-01  8.00000000E-01
  8.50000000E-01  8.50000000E-01  8.50000000E-01  8.00000000E-01  8.50000000E-01
  8.50000000E-01  8.50000000E-01  8.00000000E-01  8.50000000E-01  8.50000000E-01
  8.50000000E-01  8.00000000E-01  8.50000000E-01  8.50000000E-01  8.50000000E-01
  8.00000000E-01  8.50000000E-01  8.50000000E-01  8.50000000E-01  8.00000000E-01
  8.50000000E-01  8.50000000E-01  8.50000000E-01  8.00000000E-01  8.50000000E-01
  8.50000000E-01  8.50000000E-01  8.00000000E-01  8.50000000E-01  8.50000000E-01
  8.50000000E-01  8.00000000E-01  8.50000000E-01  8.50000000E-01  8.50000000E-01
  8.00000000E-01  8.50000000E-01  8.50000000E-01  8.50000000E-01  8.00000000E-01
  8.50000000E-01  8.50000000E-01  8.50000000E-01  8.00000000E-01  8.50000000E-01
  8.50000000E-01  8.50000000E-01  8.00000000E-01  8.50000000E-01  8.50000000E-01
  8.50000000E-01  8.00000000E-01  8.50000000E-01  8.50000000E-01  8.50000000E-01
  8.00000000E-01  8.50000000E-01  8.50000000E-01  8.50000000E-01  8.00000000E-01
  8.50000000E-01  8.50000000E-01  8.50000000E-01  8.00000000E-01  8.50000000E-01
  8.50000000E-01  8.50000000E-01  8.00000000E-01  8.50000000E-01  8.50000000E-01
  8.50000000E-01  8.00000000E-01  8.50000000E-01  8.50000000E-01  8.50000000E-01
  8.00000000E-01  8.50000000E-01  8.50000000E-01  8.50000000E-01  8.00000000E-01
  8.50000000E-01  8.50000000E-01  8.50000000E-01  8.00000000E-01  8.50000000E-01
  8.50000000E-01  8.50000000E-01  8.00000000E-01  8.50000000E-01  8.50000000E-01
  8.50000000E-01  8.00000000E-01  8.50000000E-01  8.50000000E-01  8.50000000E-01
  8.00000000E-01  8.50000000E-01  8.50000000E-01  8.50000000E-01  8.00000000E-01
  8.50000000E-01  8.50000000E-01  8.50000000E-01  8.00000000E-01  8.50000000E-01
  8.50000000E-01  8.50000000E-01  8.00000000E-01  8.50000000E-01  8.50000000E-01
  8.50000000E-01  8.00000000E-01  8.50000000E-01  8.50000000E-01  8.50000000E-01
  8.00000000E-01  8.50000000E-01  8.50000000E-01  8.50000000E-01  8.00000000E-01
  8.50000000E-01  8.50000000E-01  8.50000000E-01  8.00000000E-01  8.50000000E-01
  8.50000000E-01  8.50000000E-01  8.00000000E-01  8.50000000E-01  8.50000000E-01
  8.50000000E-01  8.00000000E-01  8.50000000E-01  8.50000000E-01  8.50000000E-01
  8.00000000E-01  8.50000000E-01  8.50000000E-01  8.50000000E-01  8.00000000E-01
  8.50000000E-01  8.50000000E-01  8.50000000E-01  8.00000000E-01  8.50000000E-01
  8.50000000E-01  8.50000000E-01  8.00000000E-01  8.50000000E-01  8.50000000E-01
  8.50000000E-01  8.00000000E-01  8.50000000E-01  8.50000000E-01  8.50000000E-01
  8.00000000E-01  8.50000000E-01  8.50000000E-01  8.50000000E-01  8.00000000E-01
  8.50000000E-01  8.50000000E-01  8.50000000E-01  8.00000000E-01  8.50000000E-01
  8.50000000E-01  8.50000000E-01  8.00000000E-01  8.50000000E-01  8.50000000E-01
  8.50000000E-01  8.00000000E-01  8.50000000E-01  8.50000000E-01  8.50000000E-01
  8.00000000E-01  8.50000000E-01  8.50000000E-01  8.50000000E-01  8.00000000E-01
  8.50000000E-01  8.50000000E-01  8.50000000E-01  8.00000000E-01  8.50000000E-01
  8.50000000E-01  8.50000000E-01  8.00000000E-01  8.50000000E-01  8.50000000E-01
  8.50000000E-01  8.00000000E-01  8.50000000E-01  8.50000000E-01  8.50000000E-01
  8.00000000E-01  8.50000000E-01  8.50000000E-01  8.50000000E-01  8.00000000E-01
  8.50000000E-01  8.50000000E-01  8.50000000E-01  8.00000000E-01  8.50000000E-01
  8.50000000E-01  8.50000000E-01  8.00000000E-01  8.50000000E-01  8.50000000E-01
  8.50000000E-01  8.00000000E-01  8.50000000E-01  8.50000000E-01  8.50000000E-01
  8.00000000E-01  8.50000000E-01  8.50000000E-01  8.50000000E-01  8.00000000E-01
  8.50000000E-01  8.50000000E-01  8.50000000E-01  8.00000000E-01  8.50000000E-01
  8.50000000E-01  8.50000000E-01  8.00000000E-01  8.50000000E-01  8.50000000E-01
  8.50000000E-01  8.00000000E-01  8.50000000E-01  8.50000000E-01  8.50000000E-01
  8.00000000E-01  8.50000000E-01  8.50000000E-01  8.50000000E-01  8.00000000E-01
  8.50000000E-01  8.50000000E-01  8.50000000E-01  8.00000000E-01  8.50000000E-01
  8.50000000E-01  8.50000000E-01  8.00000000E-01  8.50000000E-01  8.50000000E-01
  8.50000000E-01  8.00000000E-01  8.50000000E-01  8.50000000E-01  8.50000000E-01
  8.00000000E-01  8.50000000E-01  8.50000000E-01  8.50000000E-01  8.00000000E-01
  8.50000000E-01  8.50000000E-01  8.50000000E-01  8.00000000E-01  8.50000000E-01
  8.50000000E-01  8.50000000E-01  8.00000000E-01  8.50000000E-01  8.50000000E-01
  8.50000000E-01  8.00000000E-01  8.50000000E-01  8.50000000E-01  8.50000000E-01
  8.00000000E-01  8.50000000E-01  8.50000000E-01  8.50000000E-01  8.00000000E-01
  8.50000000E-01  8.50000000E-01  8.50000000E-01  8.00000000E-01  8.50000000E-01
  8.50000000E-01  8.50000000E-01  8.00000000E-01  8.50000000E-01  8.50000000E-01
  8.50000000E-01  8.00000000E-01  8.50000000E-01  8.50000000E-01  8.50000000E-01
  8.00000000E-01  8.50000000E-01  8.50000000E-01  8.50000000E-01  8.00000000E-01
  8.50000000E-01  8.50000000E-01  8.50000000E-01  8.00000000E-01  8.50000000E-01
  8.50000000E-01  8.50000000E-01  8.00000000E-01  8.50000000E-01  8.50000000E-01
  8.50000000E-01  8.00000000E-01  8.50000000E-01  8.50000000E-01  8.50000000E-01
  8.00000000E-01  8.50000000E-01  8.50000000E-01  8.50000000E-01  8.00000000E-01
  8.50000000E-01  8.50000000E-01  8.50000000E-01  8.00000000E-01  8.50000000E-01
  8.50000000E-01  8.50000000E-01  8.00000000E-01  8.50000000E-01  8.50000000E-01
  8.50000000E-01  8.00000000E-01  8.50000000E-01  8.50000000E-01  8.50000000E-01
  8.00000000E-01  8.50000000E-01  8.50000000E-01  8.50000000E-01  8.00000000E-01
  8.50000000E-01  8.50000000E-01  8.50000000E-01  8.00000000E-01  8.50000000E-01
  8.50000000E-01  8.50000000E-01  8.00000000E-01  8.50000000E-01  8.50000000E-01
  8.50000000E-01  8.00000000E-01  8.50000000E-01  8.50000000E-01  8.50000000E-01
  8.00000000E-01  8.50000000E-01  8.50000000E-01  8.50000000E-01  8.00000000E-01
  8.50000000E-01  8.50000000E-01  8.50000000E-01  8.00000000E-01  8.50000000E-01
  8.50000000E-01  8.50000000E-01  8.00000000E-01  8.50000000E-01  8.50000000E-01
  8.50000000E-01  8.00000000E-01  8.50000000E-01  8.50000000E-01  8.50000000E-01
  8.00000000E-01  8.50000000E-01  8.50000000E-01  8.50000000E-01  8.00000000E-01
  8.50000000E-01  8.50000000E-01  8.50000000E-01  8.00000000E-01  8.50000000E-01
  8.50000000E-01  8.50000000E-01  8.00000000E-01  8.50000000E-01  8.50000000E-01
  8.50000000E-01  8.00000000E-01  8.50000000E-01  8.50000000E-01  8.50000000E-01
  8.00000000E-01  8.50000000E-01  8.50000000E-01  8.50000000E-01  8.00000000E-01
  8.50000000E-01  8.50000000E-01  8.50000000E-01  8.00000000E-01  8.50000000E-01
  8.50000000E-01  8.50000000E-01  8.00000000E-01  8.50000000E-01  8.50000000E-01
  8.50000000E-01  8.00000000E-01  8.50000000E-01  8.50000000E-01  8.50000000E-01
  8.00000000E-01  8.50000000E-01  8.50000000E-01  8.50000000E-01  8.00000000E-01
  8.50000000E-01  8.50000000E-01  8.50000000E-01  8.00000000E-01  8.50000000E-01
  8.50000000E-01  8.50000000E-01  8.00000000E-01  8.50000000E-01  8.50000000E-01
  8.50000000E-01  8.00000000E-01  8.50000000E-01  8.50000000E-01  8.50000000E-01
  8.00000000E-01  8.50000000E-01  8.50000000E-01  8.50000000E-01  8.00000000E-01
  8.50000000E-01  8.50000000E-01  8.50000000E-01  8.00000000E-01  8.50000000E-01
  8.50000000E-01  8.50000000E-01  8.00000000E-01  8.50000000E-01  8.50000000E-01
  8.50000000E-01  8.00000000E-01  8.50000000E-01  8.50000000E-01  8.50000000E-01
  8.00000000E-01  8.50000000E-01  8.50000000E-01  8.50000000E-01  8.00000000E-01
  8.50000000E-01  8.50000000E-01  8.50000000E-01  8.00000000E-01  8.50000000E-01
  8.50000000E-01  8.50000000E-01  8.00000000E-01  8.50000000E-01  8.50000000E-01
  8.50000000E-01  8.00000000E-01  8.50000000E-01  8.50000000E-01  8.50000000E-01
  8.00000000E-01  8.50000000E-01  8.50000000E-01  8.50000000E-01  8.00000000E-01
  8.50000000E-01  8.50000000E-01  8.50000000E-01  8.00000000E-01  8.50000000E-01
  8.50000000E-01  8.50000000E-01  8.00000000E-01  8.50000000E-01  8.50000000E-01
  8.50000000E-01  8.00000000E-01  8.50000000E-01  8.50000000E-01  8.50000000E-01
  8.00000000E-01  8.50000000E-01  8.50000000E-01  8.50000000E-01  8.00000000E-01
  8.50000000E-01  8.50000000E-01  8.50000000E-01  8.00000000E-01  8.50000000E-01
  8.50000000E-01  8.50000000E-01  8.00000000E-01  8.50000000E-01  8.50000000E-01
  8.50000000E-01  8.00000000E-01  8.50000000E-01  8.50000000E-01  8.50000000E-01
  8.00000000E-01  8.50000000E-01  8.50000000E-01  8.50000000E-01  8.00000000E-01
  8.50000000E-01  8.50000000E-01  8.50000000E-01  8.00000000E-01  8.50000000E-01
  8.50000000E-01  8.50000000E-01  8.00000000E-01  8.50000000E-01  8.50000000E-01
  8.50000000E-01  8.00000000E-01  8.50000000E-01  8.50000000E-01  8.50000000E-01
  8.00000000E-01  8.50000000E-01  8.50000000E-01  8.50000000E-01  8.00000000E-01
  8.50000000E-01  8.50000000E-01  8.50000000E-01  8.00000000E-01  8.50000000E-01
  8.50000000E-01  8.50000000E-01  8.00000000E-01  8.50000000E-01  8.50000000E-01
  8.50000000E-01  8.00000000E-01  8.50000000E-01  8.50000000E-01  8.50000000E-01
  8.00000000E-01  8.50000000E-01  8.50000000E-01  8.50000000E-01  8.00000000E-01
  8.50000000E-01  8.50000000E-01  8.50000000E-01  8.00000000E-01  8.50000000E-01
  8.50000000E-01  8.50000000E-01  8.00000000E-01  8.50000000E-01  8.50000000E-01
  8.50000000E-01  8.00000000E-01  8.50000000E-01  8.50000000E-01  8.50000000E-01
  8.00000000E-01  8.50000000E-01  8.50000000E-01  8.50000000E-01  8.00000000E-01
  8.50000000E-01  8.50000000E-01  8.50000000E-01  8.00000000E-01  8.50000000E-01
  8.50000000E-01  8.50000000E-01  8.00000000E-01  8.50000000E-01  8.50000000E-01
  8.50000000E-01  8.00000000E-01  8.50000000E-01  8.50000000E-01  8.50000000E-01
  8.00000000E-01  8.50000000E-01  8.50000000E-01  8.50000000E-01  8.00000000E-01
  8.50000000E-01  8.50000000E-01  8.50000000E-01  8.00000000E-01  8.50000000E-01
  8.50000000E-01  8.50000000E-01  8.00000000E-01  8.50000000E-01  8.50000000E-01
  8.50000000E-01  8.00000000E-01  8.50000000E-01  8.50000000E-01  8.50000000E-01
  8.00000000E-01  8.50000000E-01  8.50000000E-01  8.50000000E-01  8.00000000E-01
  8.50000000E-01  8.50000000E-01  8.50000000E-01  8.00000000E-01  8.50000000E-01
  8.50000000E-01  8.50000000E-01  8.00000000E-01  8.50000000E-01  8.50000000E-01
  8.50000000E-01  8.00000000E-01  8.50000000E-01  8.50000000E-01  8.50000000E-01
  8.00000000E-01  8.50000000E-01  8.50000000E-01  8.50000000E-01  8.00000000E-01
  8.50000000E-01  8.50000000E-01  8.50000000E-01  8.00000000E-01  8.50000000E-01
  8.50000000E-01  8.50000000E-01  8.00000000E-01  8.50000000E-01  8.50000000E-01
  8.50000000E-01  8.00000000E-01  8.50000000E-01  8.50000000E-01  8.50000000E-01
  8.00000000E-01  8.50000000E-01  8.50000000E-01  8.50000000E-01  8.00000000E-01
  8.50000000E-01  8.50000000E-01  8.50000000E-01  8.00000000E-01  8.50000000E-01
  8.50000000E-01  8.50000000E-01  8.00000000E-01  8.50000000E-01  8.50000000E-01
  8.50000000E-01  8.00000000E-01  8.50000000E-01  8.50000000E-01  8.50000000E-01
  8.00000000E-01  8.50000000E-01  8.50000000E-01  8.50000000E-01  8.00000000E-01
  8.50000000E-01  8.50000000E-01  8.50000000E-01  8.00000000E-01  8.50000000E-01
  8.50000000E-01  8.50000000E-01  8.00000000E-01  8.50000000E-01  8.50000000E-01
  8.50000000E-01  8.00000000E-01  8.50000000E-01  8.50000000E-01  8.50000000E-01
  8.00000000E-01  8.50000000E-01  8.50000000E-01  8.50000000E-01  8.00000000E-01
  8.50000000E-01  8.50000000E-01  8.50000000E-01  8.00000000E-01  8.50000000E-01
  8.50000000E-01  8.50000000E-01  8.00000000E-01  8.50000000E-01  8.50000000E-01
  8.50000000E-01  8.00000000E-01  8.50000000E-01  8.50000000E-01  8.50000000E-01
  8.00000000E-01  8.50000000E-01  8.50000000E-01  8.50000000E-01  8.00000000E-01
  8.50000000E-01  8.50000000E-01  8.50000000E-01  8.00000000E-01  8.50000000E-01
  8.50000000E-01  8.50000000E-01  8.00000000E-01  8.50000000E-01  8.50000000E-01
  8.50000000E-01  8.00000000E-01  8.50000000E-01  8.50000000E-01  8.50000000E-01
  8.00000000E-01  8.50000000E-01  8.50000000E-01  8.50000000E-01  8.00000000E-01
  8.50000000E-01  8.50000000E-01  8.50000000E-01  8.00000000E-01  8.50000000E-01
  8.50000000E-01  8.50000000E-01  8.00000000E-01  8.50000000E-01  8.50000000E-01
  8.50000000E-01  8.00000000E-01  8.50000000E-01  8.50000000E-01  8.50000000E-01
  8.00000000E-01  8.50000000E-01  8.50000000E-01  8.50000000E-01  8.00000000E-01
  8.50000000E-01  8.50000000E-01  8.50000000E-01  8.00000000E-01  8.50000000E-01
  8.50000000E-01  8.50000000E-01  8.00000000E-01  8.50000000E-01  8.50000000E-01
  8.50000000E-01  8.00000000E-01  8.50000000E-01  8.50000000E-01  8.50000000E-01
  8.00000000E-01  8.50000000E-01  8.50000000E-01  8.50000000E-01  8.00000000E-01
  8.50000000E-01  8.50000000E-01  8.50000000E-01  8.00000000E-01  8.50000000E-01
  8.50000000E-01  8.50000000E-01  8.00000000E-01  8.50000000E-01  8.50000000E-01
  8.50000000E-01  8.00000000E-01  8.50000000E-01  8.50000000E-01  8.50000000E-01
  8.00000000E-01  8.50000000E-01  8.50000000E-01  8.50000000E-01  8.00000000E-01
  8.50000000E-01  8.50000000E-01  8.50000000E-01  8.00000000E-01  8.50000000E-01
  8.50000000E-01  8.50000000E-01  8.00000000E-01  8.50000000E-01  8.50000000E-01
  8.50000000E-01  8.00000000E-01  8.50000000E-01  8.50000000E-01  8.50000000E-01
  8.00000000E-01  8.50000000E-01  8.50000000E-01  8.50000000E-01  8.00000000E-01
  8.50000000E-01  8.50000000E-01  8.50000000E-01  8.00000000E-01  8.50000000E-01
  8.50000000E-01  8.50000000E-01  8.00000000E-01  8.50000000E-01  8.50000000E-01
  8.50000000E-01  8.00000000E-01  8.50000000E-01  8.50000000E-01  8.50000000E-01
  8.00000000E-01  8.50000000E-01  8.50000000E-01  8.50000000E-01  8.00000000E-01
  8.50000000E-01  8.50000000E-01  8.50000000E-01  8.00000000E-01  8.50000000E-01
  8.50000000E-01  8.50000000E-01  8.00000000E-01  8.50000000E-01  8.50000000E-01
  8.50000000E-01  8.00000000E-01  8.50000000E-01  8.50000000E-01  8.50000000E-01
  8.00000000E-01  8.50000000E-01  8.50000000E-01  8.50000000E-01  8.00000000E-01
  8.50000000E-01  8.50000000E-01  8.50000000E-01  8.00000000E-01  8.50000000E-01
  8.50000000E-01  8.50000000E-01  8.00000000E-01  8.50000000E-01  8.50000000E-01
  8.50000000E-01  8.00000000E-01  8.50000000E-01  8.50000000E-01  8.50000000E-01
  8.00000000E-01  8.50000000E-01  8.50000000E-01  8.50000000E-01  8.00000000E-01
  8.50000000E-01  8.50000000E-01  8.50000000E-01  8.00000000E-01  8.50000000E-01
  8.50000000E-01  8.50000000E-01  8.00000000E-01  8.50000000E-01  8.50000000E-01
  8.50000000E-01  8.00000000E-01  8.50000000E-01  8.50000000E-01  8.50000000E-01
  8.00000000E-01  8.50000000E-01  8.50000000E-01  8.50000000E-01  8.00000000E-01
  8.50000000E-01  8.50000000E-01  8.50000000E-01  8.00000000E-01  8.50000000E-01
  8.50000000E-01  8.50000000E-01  8.00000000E-01  8.50000000E-01  8.50000000E-01
  8.50000000E-01  8.00000000E-01  8.50000000E-01  8.50000000E-01  8.50000000E-01
  8.00000000E-01  8.50000000E-01  8.50000000E-01  8.50000000E-01  8.00000000E-01
  8.50000000E-01  8.50000000E-01  8.50000000E-01  8.00000000E-01  8.50000000E-01
  8.50000000E-01  8.50000000E-01  8.00000000E-01  8.50000000E-01  8.50000000E-01
  8.50000000E-01  8.00000000E-01  8.50000000E-01  8.50000000E-01  8.50000000E-01
  8.00000000E-01  8.50000000E-01  8.50000000E-01  8.50000000E-01  8.00000000E-01
  8.50000000E-01  8.50000000E-01  8.50000000E-01  8.00000000E-01  8.50000000E-01
  8.50000000E-01  8.50000000E-01  8.00000000E-01  8.50000000E-01  8.50000000E-01
  8.50000000E-01  8.00000000E-01  8.50000000E-01  8.50000000E-01  8.50000000E-01
  8.00000000E-01  8.50000000E-01  8.50000000E-01  8.50000000E-01  8.00000000E-01
  8.50000000E-01  8.50000000E-01  8.50000000E-01  8.00000000E-01  8.50000000E-01
  8.50000000E-01  8.50000000E-01  8.00000000E-01  8.50000000E-01  8.50000000E-01
  8.50000000E-01  8.00000000E-01  8.50000000E-01  8.50000000E-01  8.50000000E-01
  8.00000000E-01  8.50000000E-01  8.50000000E-01  8.50000000E-01  8.00000000E-01
  8.50000000E-01  8.50000000E-01  8.50000000E-01  8.00000000E-01  8.50000000E-01
  8.50000000E-01  8.50000000E-01  8.00000000E-01  8.50000000E-01  8.50000000E-01
  8.50000000E-01  8.00000000E-01  8.50000000E-01  8.50000000E-01  8.50000000E-01
  8.00000000E-01  8.50000000E-01  8.50000000E-01  8.50000000E-01  8.00000000E-01
  8.50000000E-01  8.50000000E-01  8.50000000E-01  8.00000000E-01  8.50000000E-01
  8.50000000E-01  8.50000000E-01  8.00000000E-01  8.50000000E-01  8.50000000E-01
  8.50000000E-01  8.00000000E-01  8.50000000E-01  8.50000000E-01  8.50000000E-01
  8.00000000E-01  8.50000000E-01  8.50000000E-01  8.50000000E-01  8.00000000E-01
  8.50000000E-01  8.50000000E-01  8.50000000E-01  8.00000000E-01  8.50000000E-01
  8.50000000E-01  8.50000000E-01  8.00000000E-01  8.50000000E-01  8.50000000E-01
  8.50000000E-01  8.00000000E-01  8.50000000E-01  8.50000000E-01  8.50000000E-01
  8.00000000E-01  8.50000000E-01  8.50000000E-01  8.50000000E-01  8.00000000E-01
  8.50000000E-01  8.50000000E-01  8.50000000E-01  8.00000000E-01  8.50000000E-01
  8.50000000E-01  8.50000000E-01  8.00000000E-01  8.50000000E-01  8.50000000E-01
  8.50000000E-01  8.00000000E-01  8.50000000E-01  8.50000000E-01  8.50000000E-01
  8.00000000E-01  8.50000000E-01  8.50000000E-01  8.50000000E-01  8.00000000E-01
  8.50000000E-01  8.50000000E-01  8.50000000E-01  8.00000000E-01  8.50000000E-01
  8.50000000E-01  8.50000000E-01  8.00000000E-01  8.50000000E-01  8.50000000E-01
  8.50000000E-01  8.00000000E-01  8.50000000E-01  8.50000000E-01  8.50000000E-01
  8.00000000E-01  8.50000000E-01  8.50000000E-01  8.50000000E-01  8.00000000E-01
  8.50000000E-01  8.50000000E-01  8.50000000E-01  8.00000000E-01  8.50000000E-01
  8.50000000E-01  8.50000000E-01  8.00000000E-01  8.50000000E-01  8.50000000E-01
  8.50000000E-01  8.00000000E-01  8.50000000E-01  8.50000000E-01  8.50000000E-01
  8.00000000E-01  8.50000000E-01  8.50000000E-01  8.50000000E-01  8.00000000E-01
  8.50000000E-01  8.50000000E-01  8.50000000E-01  8.00000000E-01  8.50000000E-01
  8.50000000E-01  8.50000000E-01  8.00000000E-01  8.50000000E-01  8.50000000E-01
  8.50000000E-01  8.00000000E-01  8.50000000E-01  8.50000000E-01  8.50000000E-01
  8.00000000E-01  8.50000000E-01  8.50000000E-01  8.50000000E-01  8.00000000E-01
  8.50000000E-01  8.50000000E-01  8.50000000E-01  8.00000000E-01  8.50000000E-01
  8.50000000E-01  8.50000000E-01  8.00000000E-01  8.50000000E-01  8.50000000E-01
  8.50000000E-01  8.00000000E-01  8.50000000E-01  8.50000000E-01  8.50000000E-01
  8.00000000E-01  8.50000000E-01  8.50000000E-01  8.50000000E-01  8.00000000E-01
  8.50000000E-01  8.50000000E-01  8.50000000E-01  8.00000000E-01  8.50000000E-01
  8.50000000E-01  8.50000000E-01  8.00000000E-01  8.50000000E-01  8.50000000E-01
  8.50000000E-01  8.00000000E-01  8.50000000E-01  8.50000000E-01  8.50000000E-01
  8.00000000E-01  8.50000000E-01  8.50000000E-01  8.50000000E-01  8.00000000E-01
  8.50000000E-01  8.50000000E-01  8.50000000E-01  8.00000000E-01  8.50000000E-01
  8.50000000E-01  8.50000000E-01  8.00000000E-01  8.50000000E-01  8.50000000E-01
  8.50000000E-01  8.00000000E-01  8.50000000E-01  8.50000000E-01  8.50000000E-01
  8.00000000E-01  8.50000000E-01  8.50000000E-01  8.50000000E-01  8.00000000E-01
  8.50000000E-01  8.50000000E-01  8.50000000E-01  8.00000000E-01  8.50000000E-01
  8.50000000E-01  8.50000000E-01  8.00000000E-01  8.50000000E-01  8.50000000E-01
  8.50000000E-01  8.00000000E-01  8.50000000E-01  8.50000000E-01  8.50000000E-01
  8.00000000E-01  8.50000000E-01  8.50000000E-01  8.50000000E-01  8.00000000E-01
  8.50000000E-01  8.50000000E-01  8.50000000E-01  8.00000000E-01  8.50000000E-01
  8.50000000E-01  8.50000000E-01  8.00000000E-01  8.50000000E-01  8.50000000E-01
  8.50000000E-01  8.00000000E-01  8.50000000E-01  8.50000000E-01  8.50000000E-01
  8.00000000E-01  8.50000000E-01  8.50000000E-01  8.50000000E-01  8.00000000E-01
  8.50000000E-01  8.50000000E-01  8.50000000E-01  8.00000000E-01  8.50000000E-01
  8.50000000E-01  8.50000000E-01  8.00000000E-01  8.50000000E-01  8.50000000E-01
  8.50000000E-01  8.00000000E-01  8.50000000E-01  8.50000000E-01  8.50000000E-01
  8.00000000E-01  8.50000000E-01  8.50000000E-01  8.50000000E-01  8.00000000E-01
  8.50000000E-01  8.50000000E-01  8.50000000E-01  8.00000000E-01  8.50000000E-01
  8.50000000E-01  8.50000000E-01  8.00000000E-01  8.50000000E-01  8.50000000E-01
  8.50000000E-01  8.00000000E-01  8.50000000E-01  8.50000000E-01  8.50000000E-01
  8.00000000E-01  8.50000000E-01  8.50000000E-01  8.50000000E-01  8.00000000E-01
  8.50000000E-01  8.50000000E-01  8.50000000E-01  8.00000000E-01  8.50000000E-01
  8.50000000E-01  8.50000000E-01  8.00000000E-01  8.50000000E-01  8.50000000E-01
  8.50000000E-01  8.00000000E-01  8.50000000E-01  8.50000000E-01  8.50000000E-01
  8.00000000E-01  8.50000000E-01  8.50000000E-01  8.50000000E-01  8.00000000E-01
  8.50000000E-01  8.50000000E-01  8.50000000E-01  8.00000000E-01  8.50000000E-01
  8.50000000E-01  8.50000000E-01  8.00000000E-01  8.50000000E-01  8.50000000E-01
  8.50000000E-01  8.00000000E-01  8.50000000E-01  8.50000000E-01  8.50000000E-01
  8.00000000E-01  8.50000000E-01  8.50000000E-01  8.50000000E-01  8.00000000E-01
  8.50000000E-01  8.50000000E-01  8.50000000E-01  8.00000000E-01  8.50000000E-01
  8.50000000E-01  8.50000000E-01  8.00000000E-01  8.50000000E-01  8.50000000E-01
  8.50000000E-01  8.00000000E-01  8.50000000E-01  8.50000000E-01  8.50000000E-01
  8.00000000E-01  8.50000000E-01  8.50000000E-01  8.50000000E-01  8.00000000E-01
  8.50000000E-01  8.50000000E-01  8.50000000E-01  8.00000000E-01  8.50000000E-01
  8.50000000E-01  8.50000000E-01  8.00000000E-01  8.50000000E-01  8.50000000E-01
  8.50000000E-01  8.00000000E-01  8.50000000E-01  8.50000000E-01  8.50000000E-01
  8.00000000E-01  8.50000000E-01  8.50000000E-01  8.50000000E-01  8.00000000E-01
  8.50000000E-01  8.50000000E-01  8.50000000E-01  8.00000000E-01  8.50000000E-01
  8.50000000E-01  8.50000000E-01  8.00000000E-01  8.50000000E-01  8.50000000E-01
  8.50000000E-01  8.00000000E-01  8.50000000E-01  8.50000000E-01  8.50000000E-01
  8.00000000E-01  8.50000000E-01  8.50000000E-01  8.50000000E-01  8.00000000E-01
  8.50000000E-01  8.50000000E-01  8.50000000E-01  8.00000000E-01  8.50000000E-01
  8.50000000E-01  8.50000000E-01  8.00000000E-01  8.50000000E-01  8.50000000E-01
  8.50000000E-01  8.00000000E-01  8.50000000E-01  8.50000000E-01  8.50000000E-01
  8.00000000E-01  8.50000000E-01  8.50000000E-01  8.50000000E-01  8.00000000E-01
  8.50000000E-01  8.50000000E-01  8.50000000E-01  8.00000000E-01  8.50000000E-01
  8.50000000E-01  8.50000000E-01  8.00000000E-01  8.50000000E-01  8.50000000E-01
  8.50000000E-01  8.00000000E-01  8.50000000E-01  8.50000000E-01  8.50000000E-01
  8.00000000E-01  8.50000000E-01  8.50000000E-01  8.50000000E-01  8.00000000E-01
  8.50000000E-01  8.50000000E-01  8.50000000E-01  8.00000000E-01  8.50000000E-01
  8.50000000E-01  8.50000000E-01  8.00000000E-01  8.50000000E-01  8.50000000E-01
  8.50000000E-01  8.00000000E-01  8.50000000E-01  8.50000000E-01  8.50000000E-01
  8.00000000E-01  8.50000000E-01  8.50000000E-01  8.50000000E-01  8.00000000E-01
  8.50000000E-01  8.50000000E-01  8.50000000E-01  8.00000000E-01  8.50000000E-01
  8.50000000E-01  8.50000000E-01  8.00000000E-01  8.50000000E-01  8.50000000E-01
  8.50000000E-01  8.00000000E-01  8.50000000E-01  8.50000000E-01  8.50000000E-01
  8.00000000E-01  8.50000000E-01  8.50000000E-01  8.50000000E-01  8.00000000E-01
  8.50000000E-01  8.50000000E-01  8.50000000E-01  8.00000000E-01  8.50000000E-01
  8.50000000E-01  8.50000000E-01  8.00000000E-01  8.50000000E-01  8.50000000E-01
  8.50000000E-01  8.00000000E-01  8.50000000E-01  8.50000000E-01  8.50000000E-01
  8.00000000E-01  8.50000000E-01  8.50000000E-01  8.50000000E-01  8.00000000E-01
  8.50000000E-01  8.50000000E-01  8.50000000E-01  8.00000000E-01  8.50000000E-01
  8.50000000E-01  8.50000000E-01  8.00000000E-01  8.50000000E-01  8.50000000E-01
  8.50000000E-01  8.00000000E-01  8.50000000E-01  8.50000000E-01  8.50000000E-01
  8.00000000E-01  8.50000000E-01  8.50000000E-01  8.50000000E-01  8.00000000E-01
  8.50000000E-01  8.50000000E-01  8.50000000E-01  8.00000000E-01  8.50000000E-01
  8.50000000E-01  8.50000000E-01  8.00000000E-01  8.50000000E-01  8.50000000E-01
  8.50000000E-01  8.00000000E-01  8.50000000E-01  8.50000000E-01  8.50000000E-01
  8.00000000E-01  8.50000000E-01  8.50000000E-01  8.50000000E-01  8.00000000E-01
  8.50000000E-01  8.50000000E-01  8.50000000E-01  8.00000000E-01  8.50000000E-01
  8.50000000E-01  8.50000000E-01  8.00000000E-01  8.50000000E-01  8.50000000E-01
  8.50000000E-01  8.00000000E-01  8.50000000E-01  8.50000000E-01  8.50000000E-01
  8.00000000E-01  8.50000000E-01  8.50000000E-01  8.50000000E-01  8.00000000E-01
  8.50000000E-01  8.50000000E-01  8.50000000E-01  8.00000000E-01  8.50000000E-01
  8.50000000E-01  8.50000000E-01  8.00000000E-01  8.50000000E-01  8.50000000E-01
  8.50000000E-01  8.00000000E-01  8.50000000E-01  8.50000000E-01  8.50000000E-01
  8.00000000E-01  8.50000000E-01  8.50000000E-01  8.50000000E-01  8.00000000E-01
  8.50000000E-01  8.50000000E-01  8.50000000E-01  8.00000000E-01  8.50000000E-01
  8.50000000E-01  8.50000000E-01  8.00000000E-01  8.50000000E-01  8.50000000E-01
  8.50000000E-01  8.00000000E-01  8.50000000E-01  8.50000000E-01  8.50000000E-01
  8.00000000E-01  8.50000000E-01  8.50000000E-01  8.50000000E-01  8.00000000E-01
  8.50000000E-01  8.50000000E-01  8.50000000E-01  8.00000000E-01  8.50000000E-01
  8.50000000E-01  8.50000000E-01  8.00000000E-01  8.50000000E-01  8.50000000E-01
  8.50000000E-01  8.00000000E-01  8.50000000E-01  8.50000000E-01  8.50000000E-01
  8.00000000E-01  8.50000000E-01  8.50000000E-01  8.50000000E-01  8.00000000E-01
  8.50000000E-01  8.50000000E-01  8.50000000E-01  8.00000000E-01  8.50000000E-01
  8.50000000E-01  8.50000000E-01  8.00000000E-01  8.50000000E-01  8.50000000E-01
  8.50000000E-01  8.00000000E-01  8.50000000E-01  8.50000000E-01  8.50000000E-01
  8.00000000E-01  8.50000000E-01  8.50000000E-01  8.50000000E-01  8.00000000E-01
  8.50000000E-01  8.50000000E-01  8.50000000E-01  8.00000000E-01  8.50000000E-01
  8.50000000E-01  8.50000000E-01  8.00000000E-01  8.50000000E-01  8.50000000E-01
  8.50000000E-01  8.00000000E-01  8.50000000E-01  8.50000000E-01  8.50000000E-01
  8.00000000E-01  8.50000000E-01  8.50000000E-01  8.50000000E-01  8.00000000E-01
  8.50000000E-01  8.50000000E-01  8.50000000E-01  8.00000000E-01  8.50000000E-01
  8.50000000E-01  8.50000000E-01  8.00000000E-01  8.50000000E-01  8.50000000E-01
  8.50000000E-01  8.00000000E-01  8.50000000E-01  8.50000000E-01  8.50000000E-01
  8.00000000E-01  8.50000000E-01  8.50000000E-01  8.50000000E-01  8.00000000E-01
  8.50000000E-01  8.50000000E-01  8.50000000E-01  8.00000000E-01  8.50000000E-01
  8.50000000E-01  8.50000000E-01  8.00000000E-01  8.50000000E-01  8.50000000E-01
  8.50000000E-01  8.00000000E-01  8.50000000E-01  8.50000000E-01  8.50000000E-01
  8.00000000E-01  8.50000000E-01  8.50000000E-01  8.50000000E-01  8.00000000E-01
  8.50000000E-01  8.50000000E-01  8.50000000E-01  8.00000000E-01  8.50000000E-01
  8.50000000E-01  8.50000000E-01  8.00000000E-01  8.50000000E-01  8.50000000E-01
  8.50000000E-01  8.00000000E-01  8.50000000E-01  8.50000000E-01  8.50000000E-01
  8.00000000E-01  8.50000000E-01  8.50000000E-01  8.50000000E-01  8.00000000E-01
  8.50000000E-01  8.50000000E-01  8.50000000E-01  8.00000000E-01  8.50000000E-01
  8.50000000E-01  8.50000000E-01  8.00000000E-01  8.50000000E-01  8.50000000E-01
  8.50000000E-01  8.00000000E-01  8.50000000E-01  8.50000000E-01  8.50000000E-01
  8.00000000E-01  8.50000000E-01  8.50000000E-01  8.50000000E-01  8.00000000E-01
  8.50000000E-01  8.50000000E-01  8.50000000E-01  8.00000000E-01  8.50000000E-01
  8.50000000E-01  8.50000000E-01  8.00000000E-01  8.50000000E-01  8.50000000E-01
  8.50000000E-01  8.00000000E-01  8.50000000E-01  8.50000000E-01  8.50000000E-01
  8.00000000E-01  8.50000000E-01  8.50000000E-01  8.50000000E-01  8.00000000E-01
  8.50000000E-01  8.50000000E-01  8.50000000E-01  8.00000000E-01  8.50000000E-01
  8.50000000E-01  8.50000000E-01  8.00000000E-01  8.50000000E-01  8.50000000E-01
  8.50000000E-01  8.00000000E-01  8.50000000E-01  8.50000000E-01  8.50000000E-01
  8.00000000E-01  8.50000000E-01  8.50000000E-01  8.50000000E-01  8.00000000E-01
  8.50000000E-01  8.50000000E-01  8.50000000E-01  8.00000000E-01  8.50000000E-01
  8.50000000E-01  8.50000000E-01  8.00000000E-01  8.50000000E-01  8.50000000E-01
  8.50000000E-01  8.00000000E-01  8.50000000E-01  8.50000000E-01  8.50000000E-01
  8.00000000E-01  8.50000000E-01  8.50000000E-01  8.50000000E-01  8.00000000E-01
  8.50000000E-01  8.50000000E-01  8.50000000E-01  8.00000000E-01  8.50000000E-01
  8.50000000E-01  8.50000000E-01  8.00000000E-01  8.50000000E-01  8.50000000E-01
  8.50000000E-01  8.00000000E-01  8.50000000E-01  8.50000000E-01  8.50000000E-01
  8.00000000E-01  8.50000000E-01  8.50000000E-01  8.50000000E-01  8.00000000E-01
  8.50000000E-01  8.50000000E-01  8.50000000E-01  8.00000000E-01  8.50000000E-01
  8.50000000E-01  8.50000000E-01  8.00000000E-01  8.50000000E-01  8.50000000E-01
  8.50000000E-01  8.00000000E-01  8.50000000E-01  8.50000000E-01  8.50000000E-01
  8.00000000E-01  8.50000000E-01  8.50000000E-01  8.50000000E-01  8.00000000E-01
  8.50000000E-01  8.50000000E-01  8.50000000E-01  8.00000000E-01  8.50000000E-01
  8.50000000E-01  8.50000000E-01  8.00000000E-01  8.50000000E-01  8.50000000E-01
  8.50000000E-01  8.00000000E-01  8.50000000E-01  8.50000000E-01  8.50000000E-01
  8.00000000E-01  8.50000000E-01  8.50000000E-01  8.50000000E-01  8.00000000E-01
  8.50000000E-01  8.50000000E-01  8.50000000E-01  8.00000000E-01  8.50000000E-01
  8.50000000E-01  8.50000000E-01  8.00000000E-01  8.50000000E-01  8.50000000E-01
  8.50000000E-01  8.00000000E-01  8.50000000E-01  8.50000000E-01  8.50000000E-01
  8.00000000E-01  8.50000000E-01  8.50000000E-01  8.50000000E-01  8.00000000E-01
  8.50000000E-01  8.50000000E-01  8.50000000E-01  8.00000000E-01  8.50000000E-01
  8.50000000E-01  8.50000000E-01  8.00000000E-01  8.50000000E-01  8.50000000E-01
  8.50000000E-01  8.00000000E-01  8.50000000E-01  8.50000000E-01  8.50000000E-01
  8.00000000E-01  8.50000000E-01  8.50000000E-01  8.50000000E-01  8.00000000E-01
  8.50000000E-01  8.50000000E-01  8.50000000E-01  8.00000000E-01  8.50000000E-01
  8.50000000E-01  8.50000000E-01  8.00000000E-01  8.50000000E-01  8.50000000E-01
  8.50000000E-01  8.00000000E-01  8.50000000E-01  8.50000000E-01  8.50000000E-01
  8.00000000E-01  8.50000000E-01  8.50000000E-01  8.50000000E-01  8.00000000E-01
  8.50000000E-01  8.50000000E-01  8.50000000E-01  8.00000000E-01  8.50000000E-01
  8.50000000E-01  8.50000000E-01  8.00000000E-01  8.50000000E-01  8.50000000E-01
  8.50000000E-01  8.00000000E-01  8.50000000E-01  8.50000000E-01  8.50000000E-01
  8.00000000E-01  8.50000000E-01  8.50000000E-01  8.50000000E-01  8.00000000E-01
  8.50000000E-01  8.50000000E-01  8.50000000E-01  8.00000000E-01  8.50000000E-01
  8.50000000E-01  8.50000000E-01  8.00000000E-01  8.50000000E-01  8.50000000E-01
  8.50000000E-01  8.00000000E-01  8.50000000E-01  8.50000000E-01  8.50000000E-01
  8.00000000E-01  8.50000000E-01  8.50000000E-01  8.50000000E-01  8.00000000E-01
  8.50000000E-01  8.50000000E-01  8.50000000E-01  8.00000000E-01  8.50000000E-01
  8.50000000E-01  8.50000000E-01  8.00000000E-01  8.50000000E-01  8.50000000E-01
  8.50000000E-01  8.00000000E-01  8.50000000E-01  8.50000000E-01  8.50000000E-01
  8.00000000E-01  8.50000000E-01  8.50000000E-01  8.50000000E-01  8.00000000E-01
  8.50000000E-01  8.50000000E-01  8.50000000E-01  8.00000000E-01  8.50000000E-01
  8.50000000E-01  8.50000000E-01  8.00000000E-01  8.50000000E-01  8.50000000E-01
  8.50000000E-01  8.00000000E-01  8.50000000E-01  8.50000000E-01  8.50000000E-01
  8.00000000E-01  8.50000000E-01  8.50000000E-01  8.50000000E-01  8.00000000E-01
  8.50000000E-01  8.50000000E-01  8.50000000E-01  8.00000000E-01  8.50000000E-01
  8.50000000E-01  8.50000000E-01  8.00000000E-01  8.50000000E-01  8.50000000E-01
  8.50000000E-01  8.00000000E-01  8.50000000E-01  8.50000000E-01  8.50000000E-01
  8.00000000E-01  8.50000000E-01  8.50000000E-01  8.50000000E-01  8.00000000E-01
  8.50000000E-01  8.50000000E-01  8.50000000E-01  8.00000000E-01  8.50000000E-01
  8.50000000E-01  8.50000000E-01  8.00000000E-01  8.50000000E-01  8.50000000E-01
  8.50000000E-01  8.00000000E-01  8.50000000E-01  8.50000000E-01  8.50000000E-01
  8.00000000E-01  8.50000000E-01  8.50000000E-01  8.50000000E-01  8.00000000E-01
  8.50000000E-01  8.50000000E-01  8.50000000E-01  8.00000000E-01  8.50000000E-01
  8.50000000E-01  8.50000000E-01  8.00000000E-01  8.50000000E-01  8.50000000E-01
  8.50000000E-01  8.00000000E-01  8.50000000E-01  8.50000000E-01  8.50000000E-01
  8.00000000E-01  8.50000000E-01  8.50000000E-01  8.50000000E-01  8.00000000E-01
  8.50000000E-01  8.50000000E-01  8.50000000E-01  8.00000000E-01  8.50000000E-01
  8.50000000E-01  8.50000000E-01  8.00000000E-01  8.50000000E-01  8.50000000E-01
  8.50000000E-01  8.00000000E-01  8.50000000E-01  8.50000000E-01  8.50000000E-01
  8.00000000E-01  8.50000000E-01  8.50000000E-01  8.50000000E-01  8.00000000E-01
  8.50000000E-01  8.50000000E-01  8.50000000E-01  8.00000000E-01  8.50000000E-01
  8.50000000E-01  8.50000000E-01  8.00000000E-01  8.50000000E-01  8.50000000E-01
  8.50000000E-01  8.00000000E-01  8.50000000E-01  8.50000000E-01  8.50000000E-01
  8.00000000E-01  8.50000000E-01  8.50000000E-01  8.50000000E-01  8.00000000E-01
  8.50000000E-01  8.50000000E-01  8.50000000E-01  8.00000000E-01  8.50000000E-01
  8.50000000E-01  8.50000000E-01  8.00000000E-01  8.50000000E-01  8.50000000E-01
  8.50000000E-01  8.00000000E-01  8.50000000E-01  8.50000000E-01  8.50000000E-01
  8.00000000E-01  8.50000000E-01  8.50000000E-01  8.50000000E-01  8.00000000E-01
  8.50000000E-01  8.50000000E-01  8.50000000E-01  8.00000000E-01  8.50000000E-01
  8.50000000E-01  8.50000000E-01  8.00000000E-01  8.50000000E-01  8.50000000E-01
  8.50000000E-01  8.00000000E-01  8.50000000E-01  8.50000000E-01  8.50000000E-01
  8.00000000E-01  8.50000000E-01  8.50000000E-01  8.50000000E-01  8.00000000E-01
  8.50000000E-01  8.50000000E-01  8.50000000E-01  8.00000000E-01  8.50000000E-01
  8.50000000E-01  8.50000000E-01  8.00000000E-01  8.50000000E-01  8.50000000E-01
  8.50000000E-01  8.00000000E-01  8.50000000E-01  8.50000000E-01  8.50000000E-01
  8.00000000E-01  8.50000000E-01  8.50000000E-01  8.50000000E-01  8.00000000E-01
  8.50000000E-01  8.50000000E-01  8.50000000E-01  8.00000000E-01  8.50000000E-01
  8.50000000E-01  8.50000000E-01  8.00000000E-01  8.50000000E-01  8.50000000E-01
  8.50000000E-01  8.00000000E-01  8.50000000E-01  8.50000000E-01  8.50000000E-01
  8.00000000E-01  8.50000000E-01  8.50000000E-01  8.50000000E-01  8.00000000E-01
  8.50000000E-01  8.50000000E-01  8.50000000E-01  8.00000000E-01  8.50000000E-01
  8.50000000E-01  8.50000000E-01  8.00000000E-01  8.50000000E-01  8.50000000E-01
  8.50000000E-01  8.00000000E-01  8.50000000E-01  8.50000000E-01  8.50000000E-01
  8.00000000E-01  8.50000000E-01  8.50000000E-01  8.50000000E-01  8.00000000E-01
  8.50000000E-01  8.50000000E-01  8.50000000E-01  8.00000000E-01  8.50000000E-01
  8.50000000E-01  8.50000000E-01  8.00000000E-01  8.50000000E-01  8.50000000E-01
  8.50000000E-01  8.00000000E-01  8.50000000E-01  8.50000000E-01  8.50000000E-01
  8.00000000E-01  8.50000000E-01  8.50000000E-01  8.50000000E-01  8.00000000E-01
  8.50000000E-01  8.50000000E-01  8.50000000E-01  8.00000000E-01  8.50000000E-01
  8.50000000E-01  8.50000000E-01  8.00000000E-01  8.50000000E-01  8.50000000E-01
  8.50000000E-01  8.00000000E-01  8.50000000E-01  8.50000000E-01  8.50000000E-01
  8.00000000E-01  8.50000000E-01  8.50000000E-01  8.50000000E-01  8.00000000E-01
  8.50000000E-01  8.50000000E-01  8.50000000E-01  8.00000000E-01  8.50000000E-01
  8.50000000E-01  8.50000000E-01  8.00000000E-01  8.50000000E-01  8.50000000E-01
  8.50000000E-01  8.00000000E-01  8.50000000E-01  8.50000000E-01  8.50000000E-01
  8.00000000E-01  8.50000000E-01  8.50000000E-01  8.50000000E-01  8.00000000E-01
  8.50000000E-01  8.50000000E-01  8.50000000E-01  8.00000000E-01  8.50000000E-01
  8.50000000E-01  8.50000000E-01  8.00000000E-01  8.50000000E-01  8.50000000E-01
  8.50000000E-01  8.00000000E-01  8.50000000E-01  8.50000000E-01  8.50000000E-01
  8.00000000E-01  8.50000000E-01  8.50000000E-01  8.50000000E-01  8.00000000E-01
  8.50000000E-01  8.50000000E-01  8.50000000E-01  8.00000000E-01  8.50000000E-01
  8.50000000E-01  8.50000000E-01  8.00000000E-01  8.50000000E-01  8.50000000E-01
  8.50000000E-01  8.00000000E-01  8.50000000E-01  8.50000000E-01  8.50000000E-01
  8.00000000E-01  8.50000000E-01  8.50000000E-01  8.50000000E-01  8.00000000E-01
  8.50000000E-01  8.50000000E-01  8.50000000E-01  8.00000000E-01  8.50000000E-01
  8.50000000E-01  8.50000000E-01  8.00000000E-01  8.50000000E-01  8.50000000E-01
  8.50000000E-01  8.00000000E-01  8.50000000E-01  8.50000000E-01  8.50000000E-01
  8.00000000E-01  8.50000000E-01  8.50000000E-01  8.50000000E-01  8.00000000E-01
  8.50000000E-01  8.50000000E-01  8.50000000E-01  8.00000000E-01  8.50000000E-01
  8.50000000E-01  8.50000000E-01  8.00000000E-01  8.50000000E-01  8.50000000E-01
  8.50000000E-01  8.00000000E-01  8.50000000E-01  8.50000000E-01  8.50000000E-01
  8.00000000E-01  8.50000000E-01  8.50000000E-01  8.50000000E-01  8.00000000E-01
  8.50000000E-01  8.50000000E-01  8.50000000E-01  8.00000000E-01  8.50000000E-01
  8.50000000E-01  8.50000000E-01  8.00000000E-01  8.50000000E-01  8.50000000E-01
  8.50000000E-01  8.00000000E-01  8.50000000E-01  8.50000000E-01  8.50000000E-01
  8.00000000E-01  8.50000000E-01  8.50000000E-01  8.50000000E-01  8.00000000E-01
  8.50000000E-01  8.50000000E-01  8.50000000E-01  8.00000000E-01  8.50000000E-01
  8.50000000E-01  8.50000000E-01  8.00000000E-01  8.50000000E-01  8.50000000E-01
  8.50000000E-01  8.00000000E-01  8.50000000E-01  8.50000000E-01  8.50000000E-01
  8.00000000E-01  8.50000000E-01  8.50000000E-01  8.50000000E-01  8.00000000E-01
  8.50000000E-01  8.50000000E-01  8.50000000E-01  8.00000000E-01  8.50000000E-01
  8.50000000E-01  8.50000000E-01  8.00000000E-01  8.50000000E-01  8.50000000E-01
  8.50000000E-01  8.00000000E-01  8.50000000E-01  8.50000000E-01  8.50000000E-01
  8.00000000E-01  8.50000000E-01  8.50000000E-01  8.50000000E-01  8.00000000E-01
  8.50000000E-01  8.50000000E-01  8.50000000E-01  8.00000000E-01  8.50000000E-01
  8.50000000E-01  8.50000000E-01  8.00000000E-01  8.50000000E-01  8.50000000E-01
  8.50000000E-01  8.00000000E-01  8.50000000E-01  8.50000000E-01  8.50000000E-01
  8.00000000E-01  8.50000000E-01  8.50000000E-01  8.50000000E-01  8.00000000E-01
  8.50000000E-01  8.50000000E-01  8.50000000E-01  8.00000000E-01  8.50000000E-01
  8.50000000E-01  8.50000000E-01  8.00000000E-01  8.50000000E-01  8.50000000E-01
  8.50000000E-01  8.00000000E-01  8.50000000E-01  8.50000000E-01  8.50000000E-01
  8.00000000E-01  8.50000000E-01  8.50000000E-01  8.50000000E-01  8.00000000E-01
  8.50000000E-01  8.50000000E-01  8.50000000E-01  8.00000000E-01  8.50000000E-01
  8.50000000E-01  8.50000000E-01  8.00000000E-01  8.50000000E-01  8.50000000E-01
  8.50000000E-01  8.00000000E-01  8.50000000E-01  8.50000000E-01  8.50000000E-01
  8.00000000E-01  8.50000000E-01  8.50000000E-01  8.50000000E-01  8.00000000E-01
  8.50000000E-01  8.50000000E-01  8.50000000E-01  8.00000000E-01  8.50000000E-01
  8.50000000E-01  8.50000000E-01  8.00000000E-01  8.50000000E-01  8.50000000E-01
  8.50000000E-01  8.00000000E-01  8.50000000E-01  8.50000000E-01  8.50000000E-01
  8.00000000E-01  8.50000000E-01  8.50000000E-01  8.50000000E-01  8.00000000E-01
  8.50000000E-01  8.50000000E-01  8.50000000E-01  8.00000000E-01  8.50000000E-01
  8.50000000E-01  8.50000000E-01  8.00000000E-01  8.50000000E-01  8.50000000E-01
  8.50000000E-01  8.00000000E-01  8.50000000E-01  8.50000000E-01  8.50000000E-01
  8.00000000E-01  8.50000000E-01  8.50000000E-01  8.50000000E-01  8.00000000E-01
  8.50000000E-01  8.50000000E-01  8.50000000E-01  8.00000000E-01  8.50000000E-01
  8.50000000E-01  8.50000000E-01  8.00000000E-01  8.50000000E-01  8.50000000E-01
  8.50000000E-01  8.00000000E-01  8.50000000E-01  8.50000000E-01  8.50000000E-01
  8.00000000E-01  8.50000000E-01  8.50000000E-01  8.50000000E-01  8.00000000E-01
  8.50000000E-01  8.50000000E-01  8.50000000E-01  8.00000000E-01  8.50000000E-01
  8.50000000E-01  8.50000000E-01  8.00000000E-01  8.50000000E-01  8.50000000E-01
  8.50000000E-01  8.00000000E-01  8.50000000E-01  8.50000000E-01  8.50000000E-01
  8.00000000E-01  8.50000000E-01  8.50000000E-01  8.50000000E-01  8.00000000E-01
  8.50000000E-01  8.50000000E-01  8.50000000E-01  8.00000000E-01  8.50000000E-01
  8.50000000E-01  8.50000000E-01  8.00000000E-01  8.50000000E-01  8.50000000E-01
  8.50000000E-01  8.00000000E-01  8.50000000E-01  8.50000000E-01  8.50000000E-01
  8.00000000E-01  8.50000000E-01  8.50000000E-01  8.50000000E-01  8.00000000E-01
  8.50000000E-01  8.50000000E-01  8.50000000E-01  8.00000000E-01  8.50000000E-01
  8.50000000E-01  8.50000000E-01  8.00000000E-01  8.50000000E-01  8.50000000E-01
  8.50000000E-01  8.00000000E-01  8.50000000E-01  8.50000000E-01  8.50000000E-01
  8.00000000E-01  8.50000000E-01  8.50000000E-01  8.50000000E-01  8.00000000E-01
  8.50000000E-01  8.50000000E-01  8.50000000E-01  8.00000000E-01  8.50000000E-01
  8.50000000E-01  8.50000000E-01  8.00000000E-01  8.50000000E-01  8.50000000E-01
  8.50000000E-01  8.00000000E-01  8.50000000E-01  8.50000000E-01  8.50000000E-01
  8.00000000E-01  8.50000000E-01  8.50000000E-01  8.50000000E-01  8.00000000E-01
  8.50000000E-01  8.50000000E-01  8.50000000E-01  8.00000000E-01  8.50000000E-01
  8.50000000E-01  8.50000000E-01  8.00000000E-01  8.50000000E-01  8.50000000E-01
  8.50000000E-01  8.00000000E-01  8.50000000E-01  8.50000000E-01  8.50000000E-01
  8.00000000E-01  8.50000000E-01  8.50000000E-01  8.50000000E-01  8.00000000E-01
  8.50000000E-01  8.50000000E-01  8.50000000E-01  8.00000000E-01  8.50000000E-01
  8.50000000E-01  8.50000000E-01  8.00000000E-01  8.50000000E-01  8.50000000E-01
  8.50000000E-01  8.00000000E-01  8.50000000E-01  8.50000000E-01  8.50000000E-01
  8.00000000E-01  8.50000000E-01  8.50000000E-01  8.50000000E-01  8.00000000E-01
  8.50000000E-01  8.50000000E-01  8.50000000E-01  8.00000000E-01  8.50000000E-01
  8.50000000E-01  8.50000000E-01  8.00000000E-01  8.50000000E-01  8.50000000E-01
  8.50000000E-01  8.00000000E-01  8.50000000E-01  8.50000000E-01  8.50000000E-01
  8.00000000E-01  8.50000000E-01  8.50000000E-01  8.50000000E-01  8.00000000E-01
  8.50000000E-01  8.50000000E-01  8.50000000E-01  8.00000000E-01  8.50000000E-01
  8.50000000E-01  8.50000000E-01  8.00000000E-01  8.50000000E-01  8.50000000E-01
  8.50000000E-01  8.00000000E-01  8.50000000E-01  8.50000000E-01  8.50000000E-01
  8.00000000E-01  8.50000000E-01  8.50000000E-01  8.50000000E-01  8.00000000E-01
  8.50000000E-01  8.50000000E-01  8.50000000E-01  8.00000000E-01  8.50000000E-01
  8.50000000E-01  8.50000000E-01  8.00000000E-01  8.50000000E-01  8.50000000E-01
  8.50000000E-01  8.00000000E-01  8.50000000E-01  8.50000000E-01  8.50000000E-01
  8.00000000E-01  8.50000000E-01  8.50000000E-01  8.50000000E-01  8.00000000E-01
  8.50000000E-01  8.50000000E-01  8.50000000E-01  8.00000000E-01  8.50000000E-01
  8.50000000E-01  8.50000000E-01  8.00000000E-01  8.50000000E-01  8.50000000E-01
  8.50000000E-01  8.00000000E-01  8.50000000E-01  8.50000000E-01  8.50000000E-01
  8.00000000E-01  8.50000000E-01  8.50000000E-01  8.50000000E-01  8.00000000E-01
  8.50000000E-01  8.50000000E-01  8.50000000E-01  8.00000000E-01  8.50000000E-01
  8.50000000E-01  8.50000000E-01  8.00000000E-01  8.50000000E-01  8.50000000E-01
  8.50000000E-01  8.00000000E-01  8.50000000E-01  8.50000000E-01  8.50000000E-01
  8.00000000E-01  8.50000000E-01  8.50000000E-01  8.50000000E-01  8.00000000E-01
  8.50000000E-01  8.50000000E-01  8.50000000E-01  8.00000000E-01  8.50000000E-01
  8.50000000E-01  8.50000000E-01  8.00000000E-01  8.50000000E-01  8.50000000E-01
  8.50000000E-01  8.00000000E-01  8.50000000E-01  8.50000000E-01  8.50000000E-01
  8.00000000E-01  8.50000000E-01  8.50000000E-01  8.50000000E-01  8.00000000E-01
  8.50000000E-01  8.50000000E-01  8.50000000E-01  8.00000000E-01  8.50000000E-01
  8.50000000E-01  8.50000000E-01  8.00000000E-01  8.50000000E-01  8.50000000E-01
  8.50000000E-01  8.00000000E-01  8.50000000E-01  8.50000000E-01  8.50000000E-01
  8.00000000E-01  8.50000000E-01  8.50000000E-01  8.50000000E-01  8.00000000E-01
  8.50000000E-01  8.50000000E-01  8.50000000E-01  8.00000000E-01  8.50000000E-01
  8.50000000E-01  8.50000000E-01  8.00000000E-01  8.50000000E-01  8.50000000E-01
  8.50000000E-01  8.00000000E-01  8.50000000E-01  8.50000000E-01  8.50000000E-01
  8.00000000E-01  8.50000000E-01  8.50000000E-01  8.50000000E-01  8.00000000E-01
  8.50000000E-01  8.50000000E-01  8.50000000E-01  8.00000000E-01  8.50000000E-01
  8.50000000E-01  8.50000000E-01  8.00000000E-01  8.50000000E-01  8.50000000E-01
  8.50000000E-01  8.00000000E-01  8.50000000E-01  8.50000000E-01  8.50000000E-01
  8.00000000E-01  8.50000000E-01  8.50000000E-01  8.50000000E-01  8.00000000E-01
  8.50000000E-01  8.50000000E-01  8.50000000E-01  8.00000000E-01  8.50000000E-01
  8.50000000E-01  8.50000000E-01  8.00000000E-01  8.50000000E-01  8.50000000E-01
  8.50000000E-01  8.00000000E-01  8.50000000E-01  8.50000000E-01  8.50000000E-01
  8.00000000E-01  8.50000000E-01  8.50000000E-01  8.50000000E-01  8.00000000E-01
  8.50000000E-01  8.50000000E-01  8.50000000E-01  8.00000000E-01  8.50000000E-01
  8.50000000E-01  8.50000000E-01  8.00000000E-01  8.50000000E-01  8.50000000E-01
  8.50000000E-01  8.00000000E-01  8.50000000E-01  8.50000000E-01  8.50000000E-01
  8.00000000E-01  8.50000000E-01  8.50000000E-01  8.50000000E-01  8.00000000E-01
  8.50000000E-01  8.50000000E-01  8.50000000E-01  8.00000000E-01  8.50000000E-01
  8.50000000E-01  8.50000000E-01  8.00000000E-01  8.50000000E-01  8.50000000E-01
  8.50000000E-01  8.00000000E-01  8.50000000E-01  8.50000000E-01  8.50000000E-01
  8.00000000E-01  8.50000000E-01  8.50000000E-01  8.50000000E-01  8.00000000E-01
  8.50000000E-01  8.50000000E-01  8.50000000E-01  8.00000000E-01  8.50000000E-01
  8.50000000E-01  8.50000000E-01  8.00000000E-01  8.50000000E-01  8.50000000E-01
  8.50000000E-01  8.00000000E-01  8.50000000E-01  8.50000000E-01  8.50000000E-01
  8.00000000E-01  8.50000000E-01  8.50000000E-01  8.50000000E-01  8.00000000E-01
  8.50000000E-01  8.50000000E-01  8.50000000E-01  8.00000000E-01  8.50000000E-01
  8.50000000E-01  8.50000000E-01  8.00000000E-01  8.50000000E-01  8.50000000E-01
  8.50000000E-01  8.00000000E-01  8.50000000E-01  8.50000000E-01  8.50000000E-01
  8.00000000E-01  8.50000000E-01  8.50000000E-01  8.50000000E-01  8.00000000E-01
  8.50000000E-01  8.50000000E-01  8.50000000E-01  8.00000000E-01  8.50000000E-01
  8.50000000E-01  8.50000000E-01  8.00000000E-01  8.50000000E-01  8.50000000E-01
  8.50000000E-01  8.00000000E-01  8.50000000E-01  8.50000000E-01  8.50000000E-01
  8.00000000E-01  8.50000000E-01  8.50000000E-01  8.50000000E-01  8.00000000E-01
  8.50000000E-01  8.50000000E-01  8.50000000E-01  8.00000000E-01  8.50000000E-01
  8.50000000E-01  8.50000000E-01  8.00000000E-01  8.50000000E-01  8.50000000E-01
  8.50000000E-01  8.00000000E-01  8.50000000E-01  8.50000000E-01  8.50000000E-01
  8.00000000E-01  8.50000000E-01  8.50000000E-01  8.50000000E-01  8.00000000E-01
  8.50000000E-01  8.50000000E-01  8.50000000E-01  8.00000000E-01  8.50000000E-01
  8.50000000E-01  8.50000000E-01  8.00000000E-01  8.50000000E-01  8.50000000E-01
  8.50000000E-01  8.00000000E-01  8.50000000E-01  8.50000000E-01  8.50000000E-01
  8.00000000E-01  8.50000000E-01  8.50000000E-01  8.50000000E-01  8.00000000E-01
  8.50000000E-01  8.50000000E-01  8.50000000E-01  8.00000000E-01  8.50000000E-01
  8.50000000E-01  8.50000000E-01  8.00000000E-01  8.50000000E-01  8.50000000E-01
  8.50000000E-01  8.00000000E-01  8.50000000E-01  8.50000000E-01  8.50000000E-01
  8.00000000E-01  8.50000000E-01  8.50000000E-01  8.50000000E-01  8.00000000E-01
  8.50000000E-01  8.50000000E-01  8.50000000E-01  8.00000000E-01  8.50000000E-01
  8.50000000E-01  8.50000000E-01  8.00000000E-01  8.50000000E-01  8.50000000E-01
  8.50000000E-01  8.00000000E-01  8.50000000E-01  8.50000000E-01  8.50000000E-01
  8.00000000E-01  8.50000000E-01  8.50000000E-01  8.50000000E-01  8.00000000E-01
  8.50000000E-01  8.50000000E-01  8.50000000E-01  8.00000000E-01  8.50000000E-01
  8.50000000E-01  8.50000000E-01  8.00000000E-01  8.50000000E-01  8.50000000E-01
  8.50000000E-01  8.00000000E-01  8.50000000E-01  8.50000000E-01  8.50000000E-01
  8.00000000E-01  8.50000000E-01  8.50000000E-01  8.50000000E-01  8.00000000E-01
  8.50000000E-01  8.50000000E-01  8.50000000E-01  8.00000000E-01  8.50000000E-01
  8.50000000E-01  8.50000000E-01  8.00000000E-01  8.50000000E-01  8.50000000E-01
  8.50000000E-01  8.00000000E-01  8.50000000E-01  8.50000000E-01  8.50000000E-01
  8.00000000E-01  8.50000000E-01  8.50000000E-01  8.50000000E-01  8.00000000E-01
  8.50000000E-01  8.50000000E-01  8.50000000E-01  8.00000000E-01  8.50000000E-01
  8.50000000E-01  8.50000000E-01  8.00000000E-01  8.50000000E-01  8.50000000E-01
  8.50000000E-01  8.00000000E-01  8.50000000E-01  8.50000000E-01  8.50000000E-01
  8.00000000E-01  8.50000000E-01  8.50000000E-01  8.50000000E-01  8.00000000E-01
  8.50000000E-01  8.50000000E-01  8.50000000E-01  8.00000000E-01  8.50000000E-01
  8.50000000E-01  8.50000000E-01  8.00000000E-01  8.50000000E-01  8.50000000E-01
  8.50000000E-01  8.00000000E-01  8.50000000E-01  8.50000000E-01  8.50000000E-01
  8.00000000E-01  8.50000000E-01  8.50000000E-01  8.50000000E-01  8.00000000E-01
  8.50000000E-01  8.50000000E-01  8.50000000E-01  8.00000000E-01  8.50000000E-01
  8.50000000E-01  8.50000000E-01  8.00000000E-01  8.50000000E-01  8.50000000E-01
  8.50000000E-01  8.00000000E-01  8.50000000E-01  8.50000000E-01  8.50000000E-01
  8.00000000E-01  8.50000000E-01  8.50000000E-01  8.50000000E-01  8.00000000E-01
  8.50000000E-01  8.50000000E-01  8.50000000E-01  8.00000000E-01  8.50000000E-01
  8.50000000E-01  8.50000000E-01  8.00000000E-01  8.50000000E-01  8.50000000E-01
  8.50000000E-01  8.00000000E-01  8.50000000E-01  8.50000000E-01  8.50000000E-01
  8.00000000E-01  8.50000000E-01  8.50000000E-01  8.50000000E-01  8.00000000E-01
  8.50000000E-01  8.50000000E-01  8.50000000E-01  8.00000000E-01  8.50000000E-01
  8.50000000E-01  8.50000000E-01  8.00000000E-01  8.50000000E-01  8.50000000E-01
  8.50000000E-01  8.00000000E-01  8.50000000E-01  8.50000000E-01  8.50000000E-01
  8.00000000E-01  8.50000000E-01  8.50000000E-01  8.50000000E-01  8.00000000E-01
  8.50000000E-01  8.50000000E-01  8.50000000E-01  8.00000000E-01  8.50000000E-01
  8.50000000E-01  8.50000000E-01  8.00000000E-01  8.50000000E-01  8.50000000E-01
  8.50000000E-01  8.00000000E-01  8.50000000E-01  8.50000000E-01  8.50000000E-01
  8.00000000E-01  8.50000000E-01  8.50000000E-01  8.50000000E-01  8.00000000E-01
  8.50000000E-01  8.50000000E-01  8.50000000E-01  8.00000000E-01  8.50000000E-01
  8.50000000E-01  8.50000000E-01  8.00000000E-01  8.50000000E-01  8.50000000E-01
  8.50000000E-01  8.00000000E-01  8.50000000E-01  8.50000000E-01  8.50000000E-01
  8.00000000E-01  8.50000000E-01  8.50000000E-01  8.50000000E-01  8.00000000E-01
  8.50000000E-01  8.50000000E-01  8.50000000E-01  8.00000000E-01  8.50000000E-01
  8.50000000E-01  8.50000000E-01  8.00000000E-01  8.50000000E-01  8.50000000E-01
  8.50000000E-01  8.00000000E-01  8.50000000E-01  8.50000000E-01  8.50000000E-01
  8.00000000E-01  8.50000000E-01  8.50000000E-01  8.50000000E-01  8.00000000E-01
  8.50000000E-01  8.50000000E-01  8.50000000E-01  8.00000000E-01  8.50000000E-01
  8.50000000E-01  8.50000000E-01  8.00000000E-01  8.50000000E-01  8.50000000E-01
  8.50000000E-01  8.00000000E-01  8.50000000E-01  8.50000000E-01  8.50000000E-01
  8.00000000E-01  8.50000000E-01  8.50000000E-01  8.50000000E-01  8.00000000E-01
  8.50000000E-01  8.50000000E-01  8.50000000E-01  8.00000000E-01  8.50000000E-01
  8.50000000E-01  8.50000000E-01  8.00000000E-01  8.50000000E-01  8.50000000E-01
  8.50000000E-01  8.00000000E-01  8.50000000E-01  8.50000000E-01  8.50000000E-01
  8.00000000E-01  8.50000000E-01  8.50000000E-01  8.50000000E-01  8.00000000E-01
  8.50000000E-01  8.50000000E-01  8.50000000E-01  8.00000000E-01  8.50000000E-01
  8.50000000E-01  8.50000000E-01  8.00000000E-01  8.50000000E-01  8.50000000E-01
  8.50000000E-01  8.00000000E-01  8.50000000E-01  8.50000000E-01  8.50000000E-01
  8.00000000E-01  8.50000000E-01  8.50000000E-01  8.50000000E-01  8.00000000E-01
  8.50000000E-01  8.50000000E-01  8.50000000E-01  8.00000000E-01  8.50000000E-01
  8.50000000E-01  8.50000000E-01  8.00000000E-01  8.50000000E-01  8.50000000E-01
  8.50000000E-01  8.00000000E-01  8.50000000E-01  8.50000000E-01  8.50000000E-01
  8.00000000E-01  8.50000000E-01  8.50000000E-01  8.50000000E-01  8.00000000E-01
  8.50000000E-01  8.50000000E-01  8.50000000E-01  8.00000000E-01  8.50000000E-01
  8.50000000E-01  8.50000000E-01  8.00000000E-01  8.50000000E-01  8.50000000E-01
  8.50000000E-01  8.00000000E-01  8.50000000E-01  8.50000000E-01  8.50000000E-01
  8.00000000E-01  8.50000000E-01  8.50000000E-01  8.50000000E-01  8.00000000E-01
  8.50000000E-01  8.50000000E-01  8.50000000E-01  8.00000000E-01  8.50000000E-01
  8.50000000E-01  8.50000000E-01  8.00000000E-01  8.50000000E-01  8.50000000E-01
  8.50000000E-01  8.00000000E-01  8.50000000E-01  8.50000000E-01  8.50000000E-01
  8.00000000E-01  8.50000000E-01  8.50000000E-01  8.50000000E-01  8.00000000E-01
  8.50000000E-01  8.50000000E-01  8.50000000E-01  8.00000000E-01  8.50000000E-01
  8.50000000E-01  8.50000000E-01  8.00000000E-01  8.50000000E-01  8.50000000E-01
  8.50000000E-01  8.00000000E-01  8.50000000E-01  8.50000000E-01  8.50000000E-01
  8.00000000E-01  8.50000000E-01  8.50000000E-01  8.50000000E-01  8.00000000E-01
  8.50000000E-01  8.50000000E-01  8.50000000E-01  8.00000000E-01  8.50000000E-01
  8.50000000E-01  8.50000000E-01  8.00000000E-01  8.50000000E-01  8.50000000E-01
  8.50000000E-01  8.00000000E-01  8.50000000E-01  8.50000000E-01  8.50000000E-01
  8.00000000E-01  8.50000000E-01  8.50000000E-01  8.50000000E-01  8.00000000E-01
  8.50000000E-01  8.50000000E-01  8.50000000E-01  8.00000000E-01  8.50000000E-01
  8.50000000E-01  8.50000000E-01  8.00000000E-01  8.50000000E-01  8.50000000E-01
  8.50000000E-01  8.00000000E-01  8.50000000E-01  8.50000000E-01  8.50000000E-01
  8.00000000E-01  8.50000000E-01  8.50000000E-01  8.50000000E-01  8.00000000E-01
  8.50000000E-01  8.50000000E-01  8.50000000E-01  8.00000000E-01  8.50000000E-01
  8.50000000E-01  8.50000000E-01  8.00000000E-01  8.50000000E-01  8.50000000E-01
  8.50000000E-01  8.00000000E-01  8.50000000E-01  8.50000000E-01  8.50000000E-01
  8.00000000E-01  8.50000000E-01  8.50000000E-01  8.50000000E-01  8.00000000E-01
  8.50000000E-01  8.50000000E-01  8.50000000E-01  8.00000000E-01  8.50000000E-01
  8.50000000E-01  8.50000000E-01  8.00000000E-01  8.50000000E-01  8.50000000E-01
  8.50000000E-01  8.00000000E-01  8.50000000E-01  8.50000000E-01  8.50000000E-01
  8.00000000E-01  8.50000000E-01  8.50000000E-01  8.50000000E-01  8.00000000E-01
  8.50000000E-01  8.50000000E-01  8.50000000E-01  8.00000000E-01  8.50000000E-01
  8.50000000E-01  8.50000000E-01  8.00000000E-01  8.50000000E-01  8.50000000E-01
  8.50000000E-01  8.00000000E-01  8.50000000E-01  8.50000000E-01  8.50000000E-01
  8.00000000E-01  8.50000000E-01  8.50000000E-01  8.50000000E-01  8.00000000E-01
  8.50000000E-01  8.50000000E-01  8.50000000E-01  8.00000000E-01  8.50000000E-01
  8.50000000E-01  8.50000000E-01  8.00000000E-01  8.50000000E-01  8.50000000E-01
  8.50000000E-01  8.00000000E-01  8.50000000E-01  8.50000000E-01  8.50000000E-01
  8.00000000E-01  8.50000000E-01  8.50000000E-01  8.50000000E-01  8.00000000E-01
  8.50000000E-01  8.50000000E-01  8.50000000E-01  8.00000000E-01  8.50000000E-01
  8.50000000E-01  8.50000000E-01  8.00000000E-01  8.50000000E-01  8.50000000E-01
  8.50000000E-01  8.00000000E-01  8.50000000E-01  8.50000000E-01  8.50000000E-01
  8.00000000E-01  8.50000000E-01  8.50000000E-01  8.50000000E-01  8.00000000E-01
  8.50000000E-01  8.50000000E-01  8.50000000E-01  8.00000000E-01  8.50000000E-01
  8.50000000E-01  8.50000000E-01  8.00000000E-01  8.50000000E-01  8.50000000E-01
  8.50000000E-01  8.00000000E-01  8.50000000E-01  8.50000000E-01  8.50000000E-01
  8.00000000E-01  8.50000000E-01  8.50000000E-01  8.50000000E-01  8.00000000E-01
  8.50000000E-01  8.50000000E-01  8.50000000E-01  8.00000000E-01  8.50000000E-01
  8.50000000E-01  8.50000000E-01  8.00000000E-01  8.50000000E-01  8.50000000E-01
  8.50000000E-01  8.00000000E-01  8.50000000E-01  8.50000000E-01  8.50000000E-01
  8.00000000E-01  8.50000000E-01  8.50000000E-01  8.50000000E-01  8.00000000E-01
  8.50000000E-01  8.50000000E-01  8.50000000E-01  8.00000000E-01  8.50000000E-01
  8.50000000E-01  8.50000000E-01  8.00000000E-01  8.50000000E-01  8.50000000E-01
  8.50000000E-01  8.00000000E-01  8.50000000E-01  8.50000000E-01  8.50000000E-01
  8.00000000E-01  8.50000000E-01  8.50000000E-01  8.50000000E-01  8.00000000E-01
  8.50000000E-01  8.50000000E-01  8.50000000E-01  8.00000000E-01  8.50000000E-01
  8.50000000E-01  8.50000000E-01  8.00000000E-01  8.50000000E-01  8.50000000E-01
  8.50000000E-01  8.00000000E-01  8.50000000E-01  8.50000000E-01  8.50000000E-01
  8.00000000E-01  8.50000000E-01  8.50000000E-01  8.50000000E-01  8.00000000E-01
  8.50000000E-01  8.50000000E-01  8.50000000E-01  8.00000000E-01  8.50000000E-01
  8.50000000E-01  8.50000000E-01  8.00000000E-01  8.50000000E-01  8.50000000E-01
  8.50000000E-01  8.00000000E-01  8.50000000E-01  8.50000000E-01  8.50000000E-01
  8.00000000E-01  8.50000000E-01  8.50000000E-01  8.50000000E-01  8.00000000E-01
  8.50000000E-01  8.50000000E-01  8.50000000E-01  8.00000000E-01  8.50000000E-01
  8.50000000E-01  8.50000000E-01  8.00000000E-01  8.50000000E-01  8.50000000E-01
  8.50000000E-01  8.00000000E-01  8.50000000E-01  8.50000000E-01  8.50000000E-01
  8.00000000E-01  8.50000000E-01  8.50000000E-01  8.50000000E-01  8.00000000E-01
  8.50000000E-01  8.50000000E-01  8.50000000E-01  8.00000000E-01  8.50000000E-01
  8.50000000E-01  8.50000000E-01  8.00000000E-01  8.50000000E-01  8.50000000E-01
  8.50000000E-01  8.00000000E-01  8.50000000E-01  8.50000000E-01  8.50000000E-01
  8.00000000E-01  8.50000000E-01  8.50000000E-01  8.50000000E-01  8.00000000E-01
  8.50000000E-01  8.50000000E-01  8.50000000E-01  8.00000000E-01  8.50000000E-01
  8.50000000E-01  8.50000000E-01  8.00000000E-01  8.50000000E-01  8.50000000E-01
  8.50000000E-01  8.00000000E-01  8.50000000E-01  8.50000000E-01  8.50000000E-01
  8.00000000E-01  8.50000000E-01  8.50000000E-01  8.50000000E-01  8.00000000E-01
  8.50000000E-01  8.50000000E-01  8.50000000E-01  8.00000000E-01  8.50000000E-01
  8.50000000E-01  8.50000000E-01  8.00000000E-01  8.50000000E-01  8.50000000E-01
  8.50000000E-01  8.00000000E-01  8.50000000E-01  8.50000000E-01  8.50000000E-01
  8.00000000E-01  8.50000000E-01  8.50000000E-01  8.50000000E-01  8.00000000E-01
  8.50000000E-01  8.50000000E-01  8.50000000E-01  8.00000000E-01  8.50000000E-01
  8.50000000E-01  8.50000000E-01  8.00000000E-01  8.50000000E-01  8.50000000E-01
  8.50000000E-01  8.00000000E-01  8.50000000E-01  8.50000000E-01  8.50000000E-01
  8.00000000E-01  8.50000000E-01  8.50000000E-01  8.50000000E-01  8.00000000E-01
  8.50000000E-01  8.50000000E-01  8.50000000E-01  8.00000000E-01  8.50000000E-01
  8.50000000E-01  8.50000000E-01  8.00000000E-01  8.50000000E-01  8.50000000E-01
  8.50000000E-01  8.00000000E-01  8.50000000E-01  8.50000000E-01  8.50000000E-01
  8.00000000E-01  8.50000000E-01  8.50000000E-01  8.50000000E-01  8.00000000E-01
  8.50000000E-01  8.50000000E-01  8.50000000E-01  8.00000000E-01  8.50000000E-01
  8.50000000E-01  8.50000000E-01  8.00000000E-01  8.50000000E-01  8.50000000E-01
  8.50000000E-01  8.00000000E-01  8.50000000E-01  8.50000000E-01  8.50000000E-01
  8.00000000E-01  8.50000000E-01  8.50000000E-01  8.50000000E-01  8.00000000E-01
  8.50000000E-01  8.50000000E-01  8.50000000E-01  8.00000000E-01  8.50000000E-01
  8.50000000E-01  8.50000000E-01  8.00000000E-01  8.50000000E-01  8.50000000E-01
  8.50000000E-01  8.00000000E-01  8.50000000E-01  8.50000000E-01  8.50000000E-01
  8.00000000E-01  8.50000000E-01  8.50000000E-01  8.50000000E-01  8.00000000E-01
  8.50000000E-01  8.50000000E-01  8.50000000E-01  8.00000000E-01  8.50000000E-01
  8.50000000E-01  8.50000000E-01  8.00000000E-01  8.50000000E-01  8.50000000E-01
  8.50000000E-01  8.00000000E-01  8.50000000E-01  8.50000000E-01  8.50000000E-01
  8.00000000E-01  8.50000000E-01  8.50000000E-01  8.50000000E-01  8.00000000E-01
  8.50000000E-01  8.50000000E-01  8.50000000E-01  8.00000000E-01  8.50000000E-01
  8.50000000E-01  8.50000000E-01  8.00000000E-01  8.50000000E-01  8.50000000E-01
  8.50000000E-01  8.00000000E-01  8.50000000E-01  8.50000000E-01  8.50000000E-01
  8.00000000E-01  8.50000000E-01  8.50000000E-01  8.50000000E-01  8.00000000E-01
  8.50000000E-01  8.50000000E-01  8.50000000E-01  8.00000000E-01  8.50000000E-01
  8.50000000E-01  8.50000000E-01  8.00000000E-01  8.50000000E-01  8.50000000E-01
  8.50000000E-01  8.00000000E-01  8.50000000E-01  8.50000000E-01  8.50000000E-01
  8.00000000E-01  8.50000000E-01  8.50000000E-01  8.50000000E-01  8.00000000E-01
  8.50000000E-01  8.50000000E-01  8.50000000E-01  8.00000000E-01  8.50000000E-01
  8.50000000E-01  8.50000000E-01  8.00000000E-01  8.50000000E-01  8.50000000E-01
  8.50000000E-01  8.00000000E-01  8.50000000E-01  8.50000000E-01  8.50000000E-01
  8.00000000E-01  8.50000000E-01  8.50000000E-01  8.50000000E-01  8.00000000E-01
  8.50000000E-01  8.50000000E-01  8.50000000E-01  8.00000000E-01  8.50000000E-01
  8.50000000E-01  8.50000000E-01  8.00000000E-01  8.50000000E-01  8.50000000E-01
  8.50000000E-01  8.00000000E-01  8.50000000E-01  8.50000000E-01  8.50000000E-01
  8.00000000E-01  8.50000000E-01  8.50000000E-01  8.50000000E-01  8.00000000E-01
  8.50000000E-01  8.50000000E-01  8.50000000E-01  8.00000000E-01  8.50000000E-01
  8.50000000E-01  8.50000000E-01  8.00000000E-01  8.50000000E-01  8.50000000E-01
  8.50000000E-01  8.00000000E-01  8.50000000E-01  8.50000000E-01  8.50000000E-01
  8.00000000E-01  8.50000000E-01  8.50000000E-01  8.50000000E-01  8.00000000E-01
  8.50000000E-01  8.50000000E-01  8.50000000E-01  8.00000000E-01  8.50000000E-01
  8.50000000E-01  8.50000000E-01  8.00000000E-01  8.50000000E-01  8.50000000E-01
  8.50000000E-01  8.00000000E-01  8.50000000E-01  8.50000000E-01  8.50000000E-01
  8.00000000E-01  8.50000000E-01  8.50000000E-01  8.50000000E-01  8.00000000E-01
  8.50000000E-01  8.50000000E-01  8.50000000E-01  8.00000000E-01  8.50000000E-01
  8.50000000E-01  8.50000000E-01  8.00000000E-01  8.50000000E-01  8.50000000E-01
  8.50000000E-01  8.00000000E-01  8.50000000E-01  8.50000000E-01  8.50000000E-01
  8.00000000E-01  8.50000000E-01  8.50000000E-01  8.50000000E-01  8.00000000E-01
  8.50000000E-01  8.50000000E-01  8.50000000E-01  8.00000000E-01  8.50000000E-01
  8.50000000E-01  8.50000000E-01  8.00000000E-01  8.50000000E-01  8.50000000E-01
  8.50000000E-01  8.00000000E-01  8.50000000E-01  8.50000000E-01  8.50000000E-01
  8.00000000E-01  8.50000000E-01  8.50000000E-01  8.50000000E-01  8.00000000E-01
  8.50000000E-01  8.50000000E-01  8.50000000E-01  8.00000000E-01  8.50000000E-01
  8.50000000E-01  8.50000000E-01  8.00000000E-01  8.50000000E-01  8.50000000E-01
  8.50000000E-01  8.00000000E-01  8.50000000E-01  8.50000000E-01  8.50000000E-01
  8.00000000E-01  8.50000000E-01  8.50000000E-01  8.50000000E-01  8.00000000E-01
  8.50000000E-01  8.50000000E-01  8.50000000E-01  8.00000000E-01  8.50000000E-01
  8.50000000E-01  8.50000000E-01  8.00000000E-01  8.50000000E-01  8.50000000E-01
  8.50000000E-01  8.00000000E-01  8.50000000E-01  8.50000000E-01  8.50000000E-01
  8.00000000E-01  8.50000000E-01  8.50000000E-01  8.50000000E-01  8.00000000E-01
  8.50000000E-01  8.50000000E-01  8.50000000E-01  8.00000000E-01  8.50000000E-01
  8.50000000E-01  8.50000000E-01  8.00000000E-01  8.50000000E-01  8.50000000E-01
  8.50000000E-01  8.00000000E-01  8.50000000E-01  8.50000000E-01  8.50000000E-01
  8.00000000E-01  8.50000000E-01  8.50000000E-01  8.50000000E-01  8.00000000E-01
  8.50000000E-01  8.50000000E-01  8.50000000E-01  8.00000000E-01  8.50000000E-01
  8.50000000E-01  8.50000000E-01  8.00000000E-01  8.50000000E-01  8.50000000E-01
  8.50000000E-01  8.00000000E-01  8.50000000E-01  8.50000000E-01  8.50000000E-01
  8.00000000E-01  8.50000000E-01  8.50000000E-01  8.50000000E-01  8.00000000E-01
  8.50000000E-01  8.50000000E-01  8.50000000E-01  8.00000000E-01  8.50000000E-01
  8.50000000E-01  8.50000000E-01  8.00000000E-01  8.50000000E-01  8.50000000E-01
  8.50000000E-01  8.00000000E-01  8.50000000E-01  8.50000000E-01  8.50000000E-01
  8.00000000E-01  8.50000000E-01  8.50000000E-01  8.50000000E-01  8.00000000E-01
  8.50000000E-01  8.50000000E-01  8.50000000E-01  8.00000000E-01  8.50000000E-01
  8.50000000E-01  8.50000000E-01  8.00000000E-01  8.50000000E-01  8.50000000E-01
  8.50000000E-01  8.00000000E-01  8.50000000E-01  8.50000000E-01  8.50000000E-01
  8.00000000E-01  8.50000000E-01  8.50000000E-01  8.50000000E-01  8.00000000E-01
  8.50000000E-01  8.50000000E-01  8.50000000E-01  8.00000000E-01  8.50000000E-01
  8.50000000E-01  8.50000000E-01  8.00000000E-01  8.50000000E-01  8.50000000E-01
  8.50000000E-01  8.00000000E-01  8.50000000E-01  8.50000000E-01  8.50000000E-01
  8.00000000E-01  8.50000000E-01  8.50000000E-01  8.50000000E-01  8.00000000E-01
  8.50000000E-01  8.50000000E-01  8.50000000E-01  8.00000000E-01  8.50000000E-01
  8.50000000E-01  8.50000000E-01  8.00000000E-01  8.50000000E-01  8.50000000E-01
  8.50000000E-01  8.00000000E-01  8.50000000E-01  8.50000000E-01  8.50000000E-01
  8.00000000E-01  8.50000000E-01  8.50000000E-01  8.50000000E-01  8.00000000E-01
  8.50000000E-01  8.50000000E-01  8.50000000E-01  8.00000000E-01  8.50000000E-01
  8.50000000E-01  8.50000000E-01  8.00000000E-01  8.50000000E-01  8.50000000E-01
  8.50000000E-01  8.00000000E-01  8.50000000E-01  8.50000000E-01  8.50000000E-01
  8.00000000E-01  8.50000000E-01  8.50000000E-01  8.50000000E-01  8.00000000E-01
  8.50000000E-01  8.50000000E-01  8.50000000E-01  8.00000000E-01  8.50000000E-01
  8.50000000E-01  8.50000000E-01  8.00000000E-01  8.50000000E-01  8.50000000E-01
  8.50000000E-01  8.00000000E-01  8.50000000E-01  8.50000000E-01  8.50000000E-01
  8.00000000E-01  8.50000000E-01  8.50000000E-01  8.50000000E-01  8.00000000E-01
  8.50000000E-01  8.50000000E-01  8.50000000E-01  8.00000000E-01  8.50000000E-01
  8.50000000E-01  8.50000000E-01  8.00000000E-01  8.50000000E-01  8.50000000E-01
  8.50000000E-01  8.00000000E-01  8.50000000E-01  8.50000000E-01  8.50000000E-01
  8.00000000E-01  8.50000000E-01  8.50000000E-01  8.50000000E-01  8.00000000E-01
  8.50000000E-01  8.50000000E-01  8.50000000E-01  8.00000000E-01  8.50000000E-01
  8.50000000E-01  8.50000000E-01  8.00000000E-01  8.50000000E-01  8.50000000E-01
  8.50000000E-01  8.00000000E-01  8.50000000E-01  8.50000000E-01  8.50000000E-01
  8.00000000E-01  8.50000000E-01  8.50000000E-01  8.50000000E-01  8.00000000E-01
  8.50000000E-01  8.50000000E-01  8.50000000E-01  8.00000000E-01  8.50000000E-01
  8.50000000E-01  8.50000000E-01  8.00000000E-01  8.50000000E-01  8.50000000E-01
  8.50000000E-01  8.00000000E-01  8.50000000E-01  8.50000000E-01  8.50000000E-01
  8.00000000E-01  8.50000000E-01  8.50000000E-01  8.50000000E-01  8.00000000E-01
  8.50000000E-01  8.50000000E-01  8.50000000E-01  8.00000000E-01  8.50000000E-01
  8.50000000E-01  8.50000000E-01  8.00000000E-01  8.50000000E-01  8.50000000E-01
  8.50000000E-01  8.00000000E-01  8.50000000E-01  8.50000000E-01  8.50000000E-01
  8.00000000E-01  8.50000000E-01  8.50000000E-01  8.50000000E-01  8.00000000E-01
  8.50000000E-01  8.50000000E-01  8.50000000E-01  8.00000000E-01  8.50000000E-01
  8.50000000E-01  8.50000000E-01  8.00000000E-01  8.50000000E-01  8.50000000E-01
  8.50000000E-01  8.00000000E-01  8.50000000E-01  8.50000000E-01  8.50000000E-01
  8.00000000E-01  8.50000000E-01  8.50000000E-01  8.50000000E-01  8.00000000E-01
  8.50000000E-01  8.50000000E-01  8.50000000E-01  8.00000000E-01  8.50000000E-01
  8.50000000E-01  8.50000000E-01  8.00000000E-01  8.50000000E-01  8.50000000E-01
  8.50000000E-01  8.00000000E-01  8.50000000E-01  8.50000000E-01  8.50000000E-01
  8.00000000E-01  8.50000000E-01  8.50000000E-01  8.50000000E-01  8.00000000E-01
  8.50000000E-01  8.50000000E-01  8.50000000E-01  8.00000000E-01  8.50000000E-01
  8.50000000E-01  8.50000000E-01  8.00000000E-01  8.50000000E-01  8.50000000E-01
  8.50000000E-01  8.00000000E-01  8.50000000E-01  8.50000000E-01  8.50000000E-01
  8.00000000E-01  8.50000000E-01  8.50000000E-01  8.50000000E-01  8.00000000E-01
  8.50000000E-01  8.50000000E-01  8.50000000E-01  8.00000000E-01  8.50000000E-01
  8.50000000E-01  8.50000000E-01  8.00000000E-01  8.50000000E-01  8.50000000E-01
  8.50000000E-01  8.00000000E-01  8.50000000E-01  8.50000000E-01  8.50000000E-01
  8.00000000E-01  8.50000000E-01  8.50000000E-01  8.50000000E-01  8.00000000E-01
  8.50000000E-01  8.50000000E-01  8.50000000E-01  8.00000000E-01  8.50000000E-01
  8.50000000E-01  8.50000000E-01  8.00000000E-01  8.50000000E-01  8.50000000E-01
  8.50000000E-01  8.00000000E-01  8.50000000E-01  8.50000000E-01  8.50000000E-01
  8.00000000E-01  8.50000000E-01  8.50000000E-01  8.50000000E-01  8.00000000E-01
  8.50000000E-01  8.50000000E-01  8.50000000E-01  8.00000000E-01  8.50000000E-01
  8.50000000E-01  8.50000000E-01  8.00000000E-01  8.50000000E-01  8.50000000E-01
  8.50000000E-01  8.00000000E-01  8.50000000E-01  8.50000000E-01  8.50000000E-01
  8.00000000E-01  8.50000000E-01  8.50000000E-01  8.50000000E-01  8.00000000E-01
  8.50000000E-01  8.50000000E-01  8.50000000E-01  8.00000000E-01  8.50000000E-01
  8.50000000E-01  8.50000000E-01  8.00000000E-01  8.50000000E-01  8.50000000E-01
  8.50000000E-01  8.00000000E-01  8.50000000E-01  8.50000000E-01  8.50000000E-01
  8.00000000E-01  8.50000000E-01  8.50000000E-01  8.50000000E-01  8.00000000E-01
  8.50000000E-01  8.50000000E-01  8.50000000E-01  8.00000000E-01  8.50000000E-01
  8.50000000E-01  8.50000000E-01  8.00000000E-01  8.50000000E-01  8.50000000E-01
  8.50000000E-01  8.00000000E-01  8.50000000E-01  8.50000000E-01  8.50000000E-01
  8.00000000E-01  8.50000000E-01  8.50000000E-01  8.50000000E-01  8.00000000E-01
  8.50000000E-01  8.50000000E-01  8.50000000E-01  8.00000000E-01  8.50000000E-01
  8.50000000E-01  8.50000000E-01  8.00000000E-01  8.50000000E-01  8.50000000E-01
  8.50000000E-01  8.00000000E-01  8.50000000E-01  8.50000000E-01  8.50000000E-01
  8.00000000E-01  8.50000000E-01  8.50000000E-01  8.50000000E-01  8.00000000E-01
  8.50000000E-01  8.50000000E-01  8.50000000E-01  8.00000000E-01  8.50000000E-01
  8.50000000E-01  8.50000000E-01  8.00000000E-01  8.50000000E-01  8.50000000E-01
  8.50000000E-01  8.00000000E-01  8.50000000E-01  8.50000000E-01  8.50000000E-01
  8.00000000E-01  8.50000000E-01  8.50000000E-01  8.50000000E-01  8.00000000E-01
  8.50000000E-01  8.50000000E-01  8.50000000E-01  8.00000000E-01  8.50000000E-01
  8.50000000E-01  8.50000000E-01  8.00000000E-01  8.50000000E-01  8.50000000E-01
  8.50000000E-01  8.00000000E-01  8.50000000E-01  8.50000000E-01  8.50000000E-01
  8.00000000E-01  8.50000000E-01  8.50000000E-01  8.50000000E-01  8.00000000E-01
  8.50000000E-01  8.50000000E-01  8.50000000E-01  8.00000000E-01  8.50000000E-01
  8.50000000E-01  8.50000000E-01  8.00000000E-01  8.50000000E-01  8.50000000E-01
  8.50000000E-01  8.00000000E-01  8.50000000E-01  8.50000000E-01  8.50000000E-01
  8.00000000E-01  8.50000000E-01  8.50000000E-01  8.50000000E-01  8.00000000E-01
  8.50000000E-01  8.50000000E-01  8.50000000E-01  8.00000000E-01  8.50000000E-01
  8.50000000E-01  8.50000000E-01  8.00000000E-01  8.50000000E-01  8.50000000E-01
  8.50000000E-01  8.00000000E-01  8.50000000E-01  8.50000000E-01  8.50000000E-01
  8.00000000E-01  8.50000000E-01  8.50000000E-01  8.50000000E-01  8.00000000E-01
  8.50000000E-01  8.50000000E-01  8.50000000E-01  8.00000000E-01  8.50000000E-01
  8.50000000E-01  8.50000000E-01  8.00000000E-01  8.50000000E-01  8.50000000E-01
  8.50000000E-01  8.00000000E-01  8.50000000E-01  8.50000000E-01  8.50000000E-01
  8.00000000E-01  8.50000000E-01  8.50000000E-01  8.50000000E-01  8.00000000E-01
  8.50000000E-01  8.50000000E-01  8.50000000E-01  8.00000000E-01  8.50000000E-01
  8.50000000E-01  8.50000000E-01  8.00000000E-01  8.50000000E-01  8.50000000E-01
  8.50000000E-01  8.00000000E-01  8.50000000E-01  8.50000000E-01  8.50000000E-01
  8.00000000E-01  8.50000000E-01  8.50000000E-01  8.50000000E-01  8.00000000E-01
  8.50000000E-01  8.50000000E-01  8.50000000E-01  8.00000000E-01  8.50000000E-01
  8.50000000E-01  8.50000000E-01  8.00000000E-01  8.50000000E-01  8.50000000E-01
  8.50000000E-01  8.00000000E-01  8.50000000E-01  8.50000000E-01  8.50000000E-01
  8.00000000E-01  8.50000000E-01  8.50000000E-01  8.50000000E-01  8.00000000E-01
  8.50000000E-01  8.50000000E-01  8.50000000E-01  8.00000000E-01  8.50000000E-01
  8.50000000E-01  8.50000000E-01  8.00000000E-01  8.50000000E-01  8.50000000E-01
  8.50000000E-01  8.00000000E-01  8.50000000E-01  8.50000000E-01  8.50000000E-01
  8.00000000E-01  8.50000000E-01  8.50000000E-01  8.50000000E-01  8.00000000E-01
  8.50000000E-01  8.50000000E-01  8.50000000E-01  8.00000000E-01  8.50000000E-01
  8.50000000E-01  8.50000000E-01  8.00000000E-01  8.50000000E-01  8.50000000E-01
  8.50000000E-01  8.00000000E-01  8.50000000E-01  8.50000000E-01  8.50000000E-01
  8.00000000E-01  8.50000000E-01  8.50000000E-01  8.50000000E-01  8.00000000E-01
  8.50000000E-01  8.50000000E-01  8.50000000E-01  8.00000000E-01  8.50000000E-01
  8.50000000E-01  8.50000000E-01  8.00000000E-01  8.50000000E-01  8.50000000E-01
  8.50000000E-01  8.00000000E-01  8.50000000E-01  8.50000000E-01  8.50000000E-01
  8.00000000E-01  8.50000000E-01  8.50000000E-01  8.50000000E-01  8.00000000E-01
  8.50000000E-01  8.50000000E-01  8.50000000E-01  8.00000000E-01  8.50000000E-01
  8.50000000E-01  8.50000000E-01  8.00000000E-01  8.50000000E-01  8.50000000E-01
  8.50000000E-01  8.00000000E-01  8.50000000E-01  8.50000000E-01  8.50000000E-01
  8.00000000E-01  8.50000000E-01  8.50000000E-01  8.50000000E-01  8.00000000E-01
  8.50000000E-01  8.50000000E-01  8.50000000E-01  8.00000000E-01  8.50000000E-01
  8.50000000E-01  8.50000000E-01  8.00000000E-01  8.50000000E-01  8.50000000E-01
  8.50000000E-01  8.00000000E-01  8.50000000E-01  8.50000000E-01  8.50000000E-01
  8.00000000E-01  8.50000000E-01  8.50000000E-01  8.50000000E-01  8.00000000E-01
  8.50000000E-01  8.50000000E-01  8.50000000E-01  8.00000000E-01  8.50000000E-01
  8.50000000E-01  8.50000000E-01  8.00000000E-01  8.50000000E-01  8.50000000E-01
  8.50000000E-01  8.00000000E-01  8.50000000E-01  8.50000000E-01  8.50000000E-01
  8.00000000E-01  8.50000000E-01  8.50000000E-01  8.50000000E-01  8.00000000E-01
  8.50000000E-01  8.50000000E-01  8.50000000E-01  8.00000000E-01  8.50000000E-01
  8.50000000E-01  8.50000000E-01  8.00000000E-01  8.50000000E-01  8.50000000E-01
  8.50000000E-01  8.00000000E-01  8.50000000E-01  8.50000000E-01  8.50000000E-01
  8.00000000E-01  8.50000000E-01  8.50000000E-01  8.50000000E-01  8.00000000E-01
  8.50000000E-01  8.50000000E-01  8.50000000E-01  8.00000000E-01  8.50000000E-01
  8.50000000E-01  8.50000000E-01  8.00000000E-01  8.50000000E-01  8.50000000E-01
  8.50000000E-01  8.00000000E-01  8.50000000E-01  8.50000000E-01  8.50000000E-01
  8.00000000E-01  8.50000000E-01  8.50000000E-01  8.50000000E-01  8.00000000E-01
  8.50000000E-01  8.50000000E-01  8.50000000E-01  8.00000000E-01  8.50000000E-01
  8.50000000E-01  8.50000000E-01  8.00000000E-01  8.50000000E-01  8.50000000E-01
  8.50000000E-01  8.00000000E-01  8.50000000E-01  8.50000000E-01  8.50000000E-01
  8.00000000E-01  8.50000000E-01  8.50000000E-01  8.50000000E-01  8.00000000E-01
  8.50000000E-01  8.50000000E-01  8.50000000E-01  8.00000000E-01  8.50000000E-01
  8.50000000E-01  8.50000000E-01  8.00000000E-01  8.50000000E-01  8.50000000E-01
  8.50000000E-01  8.00000000E-01  8.50000000E-01  8.50000000E-01  8.50000000E-01
  8.00000000E-01  8.50000000E-01  8.50000000E-01  8.50000000E-01  8.00000000E-01
  8.50000000E-01  8.50000000E-01  8.50000000E-01  8.00000000E-01  8.50000000E-01
  8.50000000E-01  8.50000000E-01  8.00000000E-01  8.50000000E-01  8.50000000E-01
  8.50000000E-01  8.00000000E-01  8.50000000E-01  8.50000000E-01  8.50000000E-01
  8.00000000E-01  8.50000000E-01  8.50000000E-01  8.50000000E-01  8.00000000E-01
  8.50000000E-01  8.50000000E-01  8.50000000E-01  8.00000000E-01  8.50000000E-01
  8.50000000E-01  8.50000000E-01  8.00000000E-01  8.50000000E-01  8.50000000E-01
  8.50000000E-01  8.00000000E-01  8.50000000E-01  8.50000000E-01  8.50000000E-01
  8.00000000E-01  8.50000000E-01  8.50000000E-01  8.50000000E-01  8.00000000E-01
  8.50000000E-01  8.50000000E-01  8.50000000E-01  8.00000000E-01  8.50000000E-01
  8.50000000E-01  8.50000000E-01  8.00000000E-01  8.50000000E-01  8.50000000E-01
  8.50000000E-01  8.00000000E-01  8.50000000E-01  8.50000000E-01  8.50000000E-01
  8.00000000E-01  8.50000000E-01  8.50000000E-01  8.50000000E-01  8.00000000E-01
  8.50000000E-01  8.50000000E-01  8.50000000E-01  8.00000000E-01  8.50000000E-01
  8.50000000E-01  8.50000000E-01  8.00000000E-01  8.50000000E-01  8.50000000E-01
  8.50000000E-01  8.00000000E-01  8.50000000E-01  8.50000000E-01  8.50000000E-01
  8.00000000E-01  8.50000000E-01  8.50000000E-01  8.50000000E-01  8.00000000E-01
  8.50000000E-01  8.50000000E-01  8.50000000E-01  8.00000000E-01  8.50000000E-01
  8.50000000E-01  8.50000000E-01  8.00000000E-01  8.50000000E-01  8.50000000E-01
  8.50000000E-01  8.00000000E-01  8.50000000E-01  8.50000000E-01  8.50000000E-01
  8.00000000E-01  8.50000000E-01  8.50000000E-01  8.50000000E-01  8.00000000E-01
  8.50000000E-01  8.50000000E-01  8.50000000E-01  8.00000000E-01  8.50000000E-01
  8.50000000E-01  8.50000000E-01  8.00000000E-01  8.50000000E-01  8.50000000E-01
  8.50000000E-01  8.00000000E-01  8.50000000E-01  8.50000000E-01  8.50000000E-01
  8.00000000E-01  8.50000000E-01  8.50000000E-01  8.50000000E-01  8.00000000E-01
  8.50000000E-01  8.50000000E-01  8.50000000E-01  8.00000000E-01  8.50000000E-01
  8.50000000E-01  8.50000000E-01  8.00000000E-01  8.50000000E-01  8.50000000E-01
  8.50000000E-01  8.00000000E-01  8.50000000E-01  8.50000000E-01  8.50000000E-01
  8.00000000E-01  8.50000000E-01  8.50000000E-01  8.50000000E-01  8.00000000E-01
  8.50000000E-01  8.50000000E-01  8.50000000E-01  8.00000000E-01  8.50000000E-01
  8.50000000E-01  8.50000000E-01  8.00000000E-01  8.50000000E-01  8.50000000E-01
  8.50000000E-01  8.00000000E-01  8.50000000E-01  8.50000000E-01  8.50000000E-01
  8.00000000E-01  8.50000000E-01  8.50000000E-01  8.50000000E-01  8.00000000E-01
  8.50000000E-01  8.50000000E-01  8.50000000E-01  8.00000000E-01  8.50000000E-01
  8.50000000E-01  8.50000000E-01  8.00000000E-01  8.50000000E-01  8.50000000E-01
  8.50000000E-01  8.00000000E-01  8.50000000E-01  8.50000000E-01  8.50000000E-01
  8.00000000E-01  8.50000000E-01  8.50000000E-01  8.50000000E-01  8.00000000E-01
  8.50000000E-01  8.50000000E-01  8.50000000E-01  8.00000000E-01  8.50000000E-01
  8.50000000E-01  8.50000000E-01  8.00000000E-01  8.50000000E-01  8.50000000E-01
  8.50000000E-01  8.00000000E-01  8.50000000E-01  8.50000000E-01  8.50000000E-01
  8.00000000E-01  8.50000000E-01  8.50000000E-01  8.50000000E-01  8.00000000E-01
  8.50000000E-01  8.50000000E-01  8.50000000E-01  8.00000000E-01  8.50000000E-01
  8.50000000E-01  8.50000000E-01  8.00000000E-01  8.50000000E-01  8.50000000E-01
  8.50000000E-01  8.00000000E-01  8.50000000E-01  8.50000000E-01  8.50000000E-01
  8.00000000E-01  8.50000000E-01  8.50000000E-01  8.50000000E-01  8.00000000E-01
  8.50000000E-01  8.50000000E-01  8.50000000E-01  8.00000000E-01  8.50000000E-01
  8.50000000E-01  8.50000000E-01  8.00000000E-01  8.50000000E-01  8.50000000E-01
  8.50000000E-01  8.00000000E-01  8.50000000E-01  8.50000000E-01  8.50000000E-01
  8.00000000E-01  8.50000000E-01  8.50000000E-01  8.50000000E-01  8.00000000E-01
  8.50000000E-01  8.50000000E-01  8.50000000E-01  8.00000000E-01  8.50000000E-01
  8.50000000E-01  8.50000000E-01  8.00000000E-01  8.50000000E-01  8.50000000E-01
  8.50000000E-01  8.00000000E-01  8.50000000E-01  8.50000000E-01  8.50000000E-01
  8.00000000E-01  8.50000000E-01  8.50000000E-01  8.50000000E-01  8.00000000E-01
  8.50000000E-01  8.50000000E-01  8.50000000E-01  8.00000000E-01  8.50000000E-01
  8.50000000E-01  8.50000000E-01  8.00000000E-01  8.50000000E-01  8.50000000E-01
  8.50000000E-01  8.00000000E-01  8.50000000E-01  8.50000000E-01  8.50000000E-01
  8.00000000E-01  8.50000000E-01  8.50000000E-01  8.50000000E-01  8.00000000E-01
  8.50000000E-01  8.50000000E-01  8.50000000E-01  8.00000000E-01  8.50000000E-01
  8.50000000E-01  8.50000000E-01  8.00000000E-01  8.50000000E-01  8.50000000E-01
  8.50000000E-01  8.00000000E-01  8.50000000E-01  8.50000000E-01  8.50000000E-01
  8.00000000E-01  8.50000000E-01  8.50000000E-01  8.50000000E-01  8.00000000E-01
  8.50000000E-01  8.50000000E-01  8.50000000E-01  8.00000000E-01  8.50000000E-01
  8.50000000E-01  8.50000000E-01  8.00000000E-01  8.50000000E-01  8.50000000E-01
  8.50000000E-01  8.00000000E-01  8.50000000E-01  8.50000000E-01  8.50000000E-01
  8.00000000E-01  8.50000000E-01  8.50000000E-01  8.50000000E-01  8.00000000E-01
  8.50000000E-01  8.50000000E-01  8.50000000E-01  8.00000000E-01  8.50000000E-01
  8.50000000E-01  8.50000000E-01  8.00000000E-01  8.50000000E-01  8.50000000E-01
  8.50000000E-01  8.00000000E-01  8.50000000E-01  8.50000000E-01  8.50000000E-01
  8.00000000E-01  8.50000000E-01  8.50000000E-01  8.50000000E-01  8.00000000E-01
  8.50000000E-01  8.50000000E-01  8.50000000E-01  8.00000000E-01  8.50000000E-01
  8.50000000E-01  8.50000000E-01  8.00000000E-01  8.50000000E-01  8.50000000E-01
  8.50000000E-01  8.00000000E-01  8.50000000E-01  8.50000000E-01  8.50000000E-01
  8.00000000E-01  8.50000000E-01  8.50000000E-01  8.50000000E-01  8.00000000E-01
  8.50000000E-01  8.50000000E-01  8.50000000E-01  8.00000000E-01  8.50000000E-01
  8.50000000E-01  8.50000000E-01  8.00000000E-01  8.50000000E-01  8.50000000E-01
  8.50000000E-01  8.00000000E-01  8.50000000E-01  8.50000000E-01  8.50000000E-01
  8.00000000E-01  8.50000000E-01  8.50000000E-01  8.50000000E-01  8.00000000E-01
  8.50000000E-01  8.50000000E-01  8.50000000E-01  8.00000000E-01  8.50000000E-01
  8.50000000E-01  8.50000000E-01  8.00000000E-01  8.50000000E-01  8.50000000E-01
  8.50000000E-01  8.00000000E-01  8.50000000E-01  8.50000000E-01  8.50000000E-01
  8.00000000E-01  8.50000000E-01  8.50000000E-01  8.50000000E-01  8.00000000E-01
  8.50000000E-01  8.50000000E-01  8.50000000E-01  8.00000000E-01  8.50000000E-01
  8.50000000E-01  8.50000000E-01  8.00000000E-01  8.50000000E-01  8.50000000E-01
  8.50000000E-01  8.00000000E-01  8.50000000E-01  8.50000000E-01  8.50000000E-01
  8.00000000E-01  8.50000000E-01  8.50000000E-01  8.50000000E-01  8.00000000E-01
  8.50000000E-01  8.50000000E-01  8.50000000E-01  8.00000000E-01  8.50000000E-01
  8.50000000E-01  8.50000000E-01  8.00000000E-01  8.50000000E-01  8.50000000E-01
  8.50000000E-01  8.00000000E-01  8.50000000E-01  8.50000000E-01  8.50000000E-01
  8.00000000E-01  8.50000000E-01  8.50000000E-01  8.50000000E-01  8.00000000E-01
  8.50000000E-01  8.50000000E-01  8.50000000E-01  8.00000000E-01  8.50000000E-01
  8.50000000E-01  8.50000000E-01  8.00000000E-01  8.50000000E-01  8.50000000E-01
  8.50000000E-01  8.00000000E-01  8.50000000E-01  8.50000000E-01  8.50000000E-01
  8.00000000E-01  8.50000000E-01  8.50000000E-01  8.50000000E-01  8.00000000E-01
  8.50000000E-01  8.50000000E-01  8.50000000E-01  8.00000000E-01  8.50000000E-01
  8.50000000E-01  8.50000000E-01  8.00000000E-01  8.50000000E-01  8.50000000E-01
  8.50000000E-01  8.00000000E-01  8.50000000E-01  8.50000000E-01  8.50000000E-01
  8.00000000E-01  8.50000000E-01  8.50000000E-01  8.50000000E-01  8.00000000E-01
  8.50000000E-01  8.50000000E-01  8.50000000E-01  8.00000000E-01  8.50000000E-01
  8.50000000E-01  8.50000000E-01  8.00000000E-01  8.50000000E-01  8.50000000E-01
  8.50000000E-01  8.00000000E-01  8.50000000E-01  8.50000000E-01  8.50000000E-01
  8.00000000E-01  8.50000000E-01  8.50000000E-01  8.50000000E-01  8.00000000E-01
  8.50000000E-01  8.50000000E-01  8.50000000E-01  8.00000000E-01  8.50000000E-01
  8.50000000E-01  8.50000000E-01  8.00000000E-01  8.50000000E-01  8.50000000E-01
  8.50000000E-01  8.00000000E-01  8.50000000E-01  8.50000000E-01  8.50000000E-01
  8.00000000E-01  8.50000000E-01  8.50000000E-01  8.50000000E-01  8.00000000E-01
  8.50000000E-01  8.50000000E-01  8.50000000E-01  8.00000000E-01  8.50000000E-01
  8.50000000E-01  8.50000000E-01  8.00000000E-01  8.50000000E-01  8.50000000E-01
  8.50000000E-01  8.00000000E-01  8.50000000E-01  8.50000000E-01  8.50000000E-01
  8.00000000E-01  8.50000000E-01  8.50000000E-01  8.50000000E-01  8.00000000E-01
  8.50000000E-01  8.50000000E-01  8.50000000E-01  8.00000000E-01  8.50000000E-01
  8.50000000E-01  8.50000000E-01  8.00000000E-01  8.50000000E-01  8.50000000E-01
  8.50000000E-01  8.00000000E-01  8.50000000E-01  8.50000000E-01  8.50000000E-01
  8.00000000E-01  8.50000000E-01  8.50000000E-01  8.50000000E-01  8.00000000E-01
  8.50000000E-01  8.50000000E-01  8.50000000E-01  8.00000000E-01  8.50000000E-01
  8.50000000E-01  8.50000000E-01  8.00000000E-01  8.50000000E-01  8.50000000E-01
  8.50000000E-01  8.00000000E-01  8.50000000E-01  8.50000000E-01  8.50000000E-01
  8.00000000E-01  8.50000000E-01  8.50000000E-01  8.50000000E-01  8.00000000E-01
  8.50000000E-01  8.50000000E-01  8.50000000E-01  8.00000000E-01  8.50000000E-01
  8.50000000E-01  8.50000000E-01  8.00000000E-01  8.50000000E-01  8.50000000E-01
  8.50000000E-01  8.00000000E-01  8.50000000E-01  8.50000000E-01  8.50000000E-01
  8.00000000E-01  8.50000000E-01  8.50000000E-01  8.50000000E-01  8.00000000E-01
  8.50000000E-01  8.50000000E-01  8.50000000E-01  8.00000000E-01  8.50000000E-01
  8.50000000E-01  8.50000000E-01  8.00000000E-01  8.50000000E-01  8.50000000E-01
  8.50000000E-01  8.00000000E-01  8.50000000E-01  8.50000000E-01  8.50000000E-01
  8.00000000E-01  8.50000000E-01  8.50000000E-01  8.50000000E-01  8.00000000E-01
  8.50000000E-01  8.50000000E-01  8.50000000E-01  8.00000000E-01  8.50000000E-01
  8.50000000E-01  8.50000000E-01  8.00000000E-01  8.50000000E-01  8.50000000E-01
  8.50000000E-01  8.00000000E-01  8.50000000E-01  8.50000000E-01  8.50000000E-01
  8.00000000E-01  8.50000000E-01  8.50000000E-01  8.50000000E-01  8.00000000E-01
  8.50000000E-01  8.50000000E-01  8.50000000E-01  8.00000000E-01  8.50000000E-01
  8.50000000E-01  8.50000000E-01  8.00000000E-01  8.50000000E-01  8.50000000E-01
  8.50000000E-01  8.00000000E-01  8.50000000E-01  8.50000000E-01  8.50000000E-01
  8.00000000E-01  8.50000000E-01  8.50000000E-01  8.50000000E-01  8.00000000E-01
  8.50000000E-01  8.50000000E-01  8.50000000E-01  8.00000000E-01  8.50000000E-01
  8.50000000E-01  8.50000000E-01  8.00000000E-01  8.50000000E-01  8.50000000E-01
  8.50000000E-01  8.00000000E-01  8.50000000E-01  8.50000000E-01  8.50000000E-01
  8.00000000E-01  8.50000000E-01  8.50000000E-01  8.50000000E-01  8.00000000E-01
  8.50000000E-01  8.50000000E-01  8.50000000E-01  8.00000000E-01  8.50000000E-01
  8.50000000E-01  8.50000000E-01  8.00000000E-01  8.50000000E-01  8.50000000E-01
  8.50000000E-01  8.00000000E-01  8.50000000E-01  8.50000000E-01  8.50000000E-01
  8.00000000E-01  8.50000000E-01  8.50000000E-01  8.50000000E-01  8.00000000E-01
  8.50000000E-01  8.50000000E-01  8.50000000E-01  8.00000000E-01  8.50000000E-01
  8.50000000E-01  8.50000000E-01  8.00000000E-01  8.50000000E-01  8.50000000E-01
  8.50000000E-01  8.00000000E-01  8.50000000E-01  8.50000000E-01  8.50000000E-01
  8.00000000E-01  8.50000000E-01  8.50000000E-01  8.50000000E-01  8.00000000E-01
  8.50000000E-01  8.50000000E-01  8.50000000E-01  8.00000000E-01  8.50000000E-01
  8.50000000E-01  8.50000000E-01  8.00000000E-01  8.50000000E-01  8.50000000E-01
  8.50000000E-01  8.00000000E-01  8.50000000E-01  8.50000000E-01  8.50000000E-01
  8.00000000E-01  8.50000000E-01  8.50000000E-01  8.50000000E-01  8.00000000E-01
  8.50000000E-01  8.50000000E-01  8.50000000E-01  8.00000000E-01  8.50000000E-01
  8.50000000E-01  8.50000000E-01  8.00000000E-01  8.50000000E-01  8.50000000E-01
  8.50000000E-01  8.00000000E-01  8.50000000E-01  8.50000000E-01  8.50000000E-01
  8.00000000E-01  8.50000000E-01  8.50000000E-01  8.50000000E-01  8.00000000E-01
  8.50000000E-01  8.50000000E-01  8.50000000E-01  8.00000000E-01  8.50000000E-01
  8.50000000E-01  8.50000000E-01  8.00000000E-01  8.50000000E-01  8.50000000E-01
  8.50000000E-01  8.00000000E-01  8.50000000E-01  8.50000000E-01  8.50000000E-01
  8.00000000E-01  8.50000000E-01  8.50000000E-01  8.50000000E-01  8.00000000E-01
  8.50000000E-01  8.50000000E-01  8.50000000E-01  8.00000000E-01  8.50000000E-01
  8.50000000E-01  8.50000000E-01  8.00000000E-01  8.50000000E-01  8.50000000E-01
  8.50000000E-01  8.00000000E-01  8.50000000E-01  8.50000000E-01  8.50000000E-01
  8.00000000E-01  8.50000000E-01  8.50000000E-01  8.50000000E-01  8.00000000E-01
  8.50000000E-01  8.50000000E-01  8.50000000E-01  8.00000000E-01  8.50000000E-01
  8.50000000E-01  8.50000000E-01  8.00000000E-01  8.50000000E-01  8.50000000E-01
  8.50000000E-01  8.00000000E-01  8.50000000E-01  8.50000000E-01  8.50000000E-01
  8.00000000E-01  8.50000000E-01  8.50000000E-01  8.50000000E-01  8.00000000E-01
  8.50000000E-01  8.50000000E-01  8.50000000E-01  8.00000000E-01  8.50000000E-01
  8.50000000E-01  8.50000000E-01  8.00000000E-01  8.50000000E-01  8.50000000E-01
  8.50000000E-01  8.00000000E-01  8.50000000E-01  8.50000000E-01  8.50000000E-01
  8.00000000E-01  8.50000000E-01  8.50000000E-01  8.50000000E-01  8.00000000E-01
  8.50000000E-01  8.50000000E-01  8.50000000E-01  8.00000000E-01  8.50000000E-01
  8.50000000E-01  8.50000000E-01  8.00000000E-01  8.50000000E-01  8.50000000E-01
  8.50000000E-01  8.00000000E-01  8.50000000E-01  8.50000000E-01  8.50000000E-01
  8.00000000E-01  8.50000000E-01  8.50000000E-01  8.50000000E-01  8.00000000E-01
  8.50000000E-01  8.50000000E-01  8.50000000E-01  8.00000000E-01  8.50000000E-01
  8.50000000E-01  8.50000000E-01  8.00000000E-01  8.50000000E-01  8.50000000E-01
  8.50000000E-01  8.00000000E-01  8.50000000E-01  8.50000000E-01  8.50000000E-01
  8.00000000E-01  8.50000000E-01  8.50000000E-01  8.50000000E-01  8.00000000E-01
  8.50000000E-01  8.50000000E-01  8.50000000E-01  8.00000000E-01  8.50000000E-01
  8.50000000E-01  8.50000000E-01  8.00000000E-01  8.50000000E-01  8.50000000E-01
  8.50000000E-01  8.00000000E-01  8.50000000E-01  8.50000000E-01  8.50000000E-01
  8.00000000E-01  8.50000000E-01  8.50000000E-01  8.50000000E-01  8.00000000E-01
  8.50000000E-01  8.50000000E-01  8.50000000E-01  8.00000000E-01  8.50000000E-01
  8.50000000E-01  8.50000000E-01  8.00000000E-01  8.50000000E-01  8.50000000E-01
  8.50000000E-01  8.00000000E-01  8.50000000E-01  8.50000000E-01  8.50000000E-01
  8.00000000E-01  8.50000000E-01  8.50000000E-01  8.50000000E-01  8.00000000E-01
  8.50000000E-01  8.50000000E-01  8.50000000E-01  8.00000000E-01  8.50000000E-01
  8.50000000E-01  8.50000000E-01  8.00000000E-01  8.50000000E-01  8.50000000E-01
  8.50000000E-01  8.00000000E-01  8.50000000E-01  8.50000000E-01  8.50000000E-01
  8.00000000E-01  8.50000000E-01  8.50000000E-01  8.50000000E-01  8.00000000E-01
  8.50000000E-01  8.50000000E-01  8.50000000E-01  8.00000000E-01  8.50000000E-01
  8.50000000E-01  8.50000000E-01  8.00000000E-01  8.50000000E-01  8.50000000E-01
  8.50000000E-01  8.00000000E-01  8.50000000E-01  8.50000000E-01  8.50000000E-01
  8.00000000E-01  8.50000000E-01  8.50000000E-01  8.50000000E-01  8.00000000E-01
  8.50000000E-01  8.50000000E-01  8.50000000E-01  8.00000000E-01  8.50000000E-01
  8.50000000E-01  8.50000000E-01  8.00000000E-01  8.50000000E-01  8.50000000E-01
  8.50000000E-01  8.00000000E-01  8.50000000E-01  8.50000000E-01  8.50000000E-01
  8.00000000E-01  8.50000000E-01  8.50000000E-01  8.50000000E-01  8.00000000E-01
  8.50000000E-01  8.50000000E-01  8.50000000E-01  8.00000000E-01  8.50000000E-01
  8.50000000E-01  8.50000000E-01  8.00000000E-01  8.50000000E-01  8.50000000E-01
  8.50000000E-01  8.00000000E-01  8.50000000E-01  8.50000000E-01  8.50000000E-01
  8.00000000E-01  8.50000000E-01  8.50000000E-01  8.50000000E-01  8.00000000E-01
  8.50000000E-01  8.50000000E-01  8.50000000E-01  8.00000000E-01  8.50000000E-01
  8.50000000E-01  8.50000000E-01  8.00000000E-01  8.50000000E-01  8.50000000E-01
  8.50000000E-01  8.00000000E-01  8.50000000E-01  8.50000000E-01  8.50000000E-01
  8.00000000E-01  8.50000000E-01  8.50000000E-01  8.50000000E-01  8.00000000E-01
  8.50000000E-01  8.50000000E-01  8.50000000E-01  8.00000000E-01  8.50000000E-01
  8.50000000E-01  8.50000000E-01  8.00000000E-01  8.50000000E-01  8.50000000E-01
  8.50000000E-01  8.00000000E-01  8.50000000E-01  8.50000000E-01  8.50000000E-01
  8.00000000E-01  8.50000000E-01  8.50000000E-01  8.50000000E-01  8.00000000E-01
  8.50000000E-01  8.50000000E-01  8.50000000E-01  8.00000000E-01  8.50000000E-01
  8.50000000E-01  8.50000000E-01  8.00000000E-01  8.50000000E-01  8.50000000E-01
  8.50000000E-01  8.00000000E-01  8.50000000E-01  8.50000000E-01  8.50000000E-01
  8.00000000E-01  8.50000000E-01  8.50000000E-01  8.50000000E-01  8.00000000E-01
  8.50000000E-01  8.50000000E-01  8.50000000E-01  8.00000000E-01  8.50000000E-01
  8.50000000E-01  8.50000000E-01  8.00000000E-01  8.50000000E-01  8.50000000E-01
  8.50000000E-01  8.00000000E-01  8.50000000E-01  8.50000000E-01  8.50000000E-01
  8.00000000E-01  8.50000000E-01  8.50000000E-01  8.50000000E-01  8.00000000E-01
  8.50000000E-01  8.50000000E-01  8.50000000E-01  8.00000000E-01  8.50000000E-01
  8.50000000E-01  8.50000000E-01  8.00000000E-01  8.50000000E-01  8.50000000E-01
  8.50000000E-01  8.00000000E-01  8.50000000E-01  8.50000000E-01  8.50000000E-01
  8.00000000E-01  8.50000000E-01  8.50000000E-01  8.50000000E-01  8.00000000E-01
  8.50000000E-01  8.50000000E-01  8.50000000E-01  8.00000000E-01  8.50000000E-01
  8.50000000E-01  8.50000000E-01  8.00000000E-01  8.50000000E-01  8.50000000E-01
  8.50000000E-01  8.00000000E-01  8.50000000E-01  8.50000000E-01  8.50000000E-01
  8.00000000E-01  8.50000000E-01  8.50000000E-01  8.50000000E-01  8.00000000E-01
  8.50000000E-01  8.50000000E-01  8.50000000E-01  8.00000000E-01  8.50000000E-01
  8.50000000E-01  8.50000000E-01  8.00000000E-01  8.50000000E-01  8.50000000E-01
  8.50000000E-01  8.00000000E-01  8.50000000E-01  8.50000000E-01  8.50000000E-01
  8.00000000E-01  8.50000000E-01  8.50000000E-01  8.50000000E-01  8.00000000E-01
  8.50000000E-01  8.50000000E-01  8.50000000E-01  8.00000000E-01  8.50000000E-01
  8.50000000E-01  8.50000000E-01  8.00000000E-01  8.50000000E-01  8.50000000E-01
  8.50000000E-01  8.00000000E-01  8.50000000E-01  8.50000000E-01  8.50000000E-01
  8.00000000E-01  8.50000000E-01  8.50000000E-01  8.50000000E-01  8.00000000E-01
  8.50000000E-01  8.50000000E-01  8.50000000E-01  8.00000000E-01  8.50000000E-01
  8.50000000E-01  8.50000000E-01  8.00000000E-01  8.50000000E-01  8.50000000E-01
  8.50000000E-01  8.00000000E-01  8.50000000E-01  8.50000000E-01  8.50000000E-01
  8.00000000E-01  8.50000000E-01  8.50000000E-01  8.50000000E-01  8.00000000E-01
  8.50000000E-01  8.50000000E-01  8.50000000E-01  8.00000000E-01  8.50000000E-01
  8.50000000E-01  8.50000000E-01  8.00000000E-01  8.50000000E-01  8.50000000E-01
  8.50000000E-01  8.00000000E-01  8.50000000E-01  8.50000000E-01  8.50000000E-01
  8.00000000E-01  8.50000000E-01  8.50000000E-01  8.50000000E-01  8.00000000E-01
  8.50000000E-01  8.50000000E-01  8.50000000E-01  8.00000000E-01  8.50000000E-01
  8.50000000E-01  8.50000000E-01  8.00000000E-01  8.50000000E-01  8.50000000E-01
  8.50000000E-01  8.00000000E-01  8.50000000E-01  8.50000000E-01  8.50000000E-01
  8.00000000E-01  8.50000000E-01  8.50000000E-01  8.50000000E-01  8.00000000E-01
  8.50000000E-01  8.50000000E-01  8.50000000E-01  8.00000000E-01  8.50000000E-01
  8.50000000E-01  8.50000000E-01  8.00000000E-01  8.50000000E-01  8.50000000E-01
  8.50000000E-01  8.00000000E-01  8.50000000E-01  8.50000000E-01  8.50000000E-01
  8.00000000E-01  8.50000000E-01  8.50000000E-01  8.50000000E-01  8.00000000E-01
  8.50000000E-01  8.50000000E-01  8.50000000E-01  8.00000000E-01  8.50000000E-01
  8.50000000E-01  8.50000000E-01  8.00000000E-01  8.50000000E-01  8.50000000E-01
  8.50000000E-01  8.00000000E-01  8.50000000E-01  8.50000000E-01  8.50000000E-01
  8.00000000E-01  8.50000000E-01  8.50000000E-01  8.50000000E-01  8.00000000E-01
  8.50000000E-01  8.50000000E-01  8.50000000E-01  8.00000000E-01  8.50000000E-01
  8.50000000E-01  8.50000000E-01  8.00000000E-01  8.50000000E-01  8.50000000E-01
  8.50000000E-01  8.00000000E-01  8.50000000E-01  8.50000000E-01  8.50000000E-01
  8.00000000E-01  8.50000000E-01  8.50000000E-01  8.50000000E-01  8.00000000E-01
  8.50000000E-01  8.50000000E-01  8.50000000E-01  8.00000000E-01  8.50000000E-01
  8.50000000E-01  8.50000000E-01  8.00000000E-01  8.50000000E-01  8.50000000E-01
  8.50000000E-01  8.00000000E-01  8.50000000E-01  8.50000000E-01  8.50000000E-01
  8.00000000E-01  8.50000000E-01  8.50000000E-01  8.50000000E-01  8.00000000E-01
  8.50000000E-01  8.50000000E-01  8.50000000E-01  8.00000000E-01  8.50000000E-01
  8.50000000E-01  8.50000000E-01  8.00000000E-01  8.50000000E-01  8.50000000E-01
  8.50000000E-01  8.00000000E-01  8.50000000E-01  8.50000000E-01  8.50000000E-01
  8.00000000E-01  8.50000000E-01  8.50000000E-01  8.50000000E-01  8.00000000E-01
  8.50000000E-01  8.50000000E-01  8.50000000E-01  8.00000000E-01  8.50000000E-01
  8.50000000E-01  8.50000000E-01  8.00000000E-01  8.50000000E-01  8.50000000E-01
  8.50000000E-01  8.00000000E-01  8.50000000E-01  8.50000000E-01  8.50000000E-01
  8.00000000E-01  8.50000000E-01  8.50000000E-01  8.50000000E-01  8.00000000E-01
  8.50000000E-01  8.50000000E-01  8.50000000E-01  8.00000000E-01  8.50000000E-01
  8.50000000E-01  8.50000000E-01  8.00000000E-01  8.50000000E-01  8.50000000E-01
  8.50000000E-01  8.00000000E-01  8.50000000E-01  8.50000000E-01  8.50000000E-01
  8.00000000E-01  8.50000000E-01  8.50000000E-01  8.50000000E-01  8.00000000E-01
  8.50000000E-01  8.50000000E-01  8.50000000E-01  8.00000000E-01  8.50000000E-01
  8.50000000E-01  8.50000000E-01  8.00000000E-01  8.50000000E-01  8.50000000E-01
  8.50000000E-01  8.00000000E-01  8.50000000E-01  8.50000000E-01  8.50000000E-01
  8.00000000E-01  8.50000000E-01  8.50000000E-01  8.50000000E-01  8.00000000E-01
  8.50000000E-01  8.50000000E-01  8.50000000E-01  8.00000000E-01  8.50000000E-01
  8.50000000E-01  8.50000000E-01  8.00000000E-01  8.50000000E-01  8.50000000E-01
  8.50000000E-01  8.00000000E-01  8.50000000E-01  8.50000000E-01  8.50000000E-01
  8.00000000E-01  8.50000000E-01  8.50000000E-01  8.50000000E-01  8.00000000E-01
  8.50000000E-01  8.50000000E-01  8.50000000E-01  8.00000000E-01  8.50000000E-01
  8.50000000E-01  8.50000000E-01  8.00000000E-01  8.50000000E-01  8.50000000E-01
  8.50000000E-01  8.00000000E-01  8.50000000E-01  8.50000000E-01  8.50000000E-01
  8.00000000E-01  8.50000000E-01  8.50000000E-01  8.50000000E-01  8.00000000E-01
  8.50000000E-01  8.50000000E-01  8.50000000E-01  8.00000000E-01  8.50000000E-01
  8.50000000E-01  8.50000000E-01  8.00000000E-01  8.50000000E-01  8.50000000E-01
  8.50000000E-01  8.00000000E-01  8.50000000E-01  8.50000000E-01  8.50000000E-01
  8.00000000E-01  8.50000000E-01  8.50000000E-01  8.50000000E-01  8.00000000E-01
  8.50000000E-01  8.50000000E-01  8.50000000E-01  8.00000000E-01  8.50000000E-01
  8.50000000E-01  8.50000000E-01  8.00000000E-01  8.50000000E-01  8.50000000E-01
  8.50000000E-01  8.00000000E-01  8.50000000E-01  8.50000000E-01  8.50000000E-01
  8.00000000E-01  8.50000000E-01  8.50000000E-01  8.50000000E-01  8.00000000E-01
  8.50000000E-01  8.50000000E-01  8.50000000E-01  8.00000000E-01  8.50000000E-01
  8.50000000E-01  8.50000000E-01  8.00000000E-01  8.50000000E-01  8.50000000E-01
  8.50000000E-01  8.00000000E-01  8.50000000E-01  8.50000000E-01  8.50000000E-01
  8.00000000E-01  8.50000000E-01  8.50000000E-01  8.50000000E-01  8.00000000E-01
  8.50000000E-01  8.50000000E-01  8.50000000E-01  8.00000000E-01  8.50000000E-01
  8.50000000E-01  8.50000000E-01  8.00000000E-01  8.50000000E-01  8.50000000E-01
  8.50000000E-01  8.00000000E-01  8.50000000E-01  8.50000000E-01  8.50000000E-01
  8.00000000E-01  8.50000000E-01  8.50000000E-01  8.50000000E-01  8.00000000E-01
  8.50000000E-01  8.50000000E-01  8.50000000E-01  8.00000000E-01  8.50000000E-01
  8.50000000E-01  8.50000000E-01  8.00000000E-01  8.50000000E-01  8.50000000E-01
  8.50000000E-01  8.00000000E-01  8.50000000E-01  8.50000000E-01  8.50000000E-01
  8.00000000E-01  8.50000000E-01  8.50000000E-01  8.50000000E-01  8.00000000E-01
  8.50000000E-01  8.50000000E-01  8.50000000E-01  8.00000000E-01  8.50000000E-01
  8.50000000E-01  8.50000000E-01  8.00000000E-01  8.50000000E-01  8.50000000E-01
  8.50000000E-01  8.00000000E-01  8.50000000E-01  8.50000000E-01  8.50000000E-01
  8.00000000E-01  8.50000000E-01  8.50000000E-01  8.50000000E-01  8.00000000E-01
  8.50000000E-01  8.50000000E-01  8.50000000E-01  8.00000000E-01  8.50000000E-01
  8.50000000E-01  8.50000000E-01  8.00000000E-01  8.50000000E-01  8.50000000E-01
  8.50000000E-01  8.00000000E-01  8.50000000E-01  8.50000000E-01  8.50000000E-01
  8.00000000E-01  8.50000000E-01  8.50000000E-01  8.50000000E-01  8.00000000E-01
  8.50000000E-01  8.50000000E-01  8.50000000E-01  8.00000000E-01  8.50000000E-01
  8.50000000E-01  8.50000000E-01  8.00000000E-01  8.50000000E-01  8.50000000E-01
  8.50000000E-01  8.00000000E-01  8.50000000E-01  8.50000000E-01  8.50000000E-01
  8.00000000E-01  8.50000000E-01  8.50000000E-01  8.50000000E-01  8.00000000E-01
  8.50000000E-01  8.50000000E-01  8.50000000E-01  8.00000000E-01  8.50000000E-01
  8.50000000E-01  8.50000000E-01  8.00000000E-01  8.50000000E-01  8.50000000E-01
  8.50000000E-01  8.00000000E-01  8.50000000E-01  8.50000000E-01  8.50000000E-01
  8.00000000E-01  8.50000000E-01  8.50000000E-01  8.50000000E-01  8.00000000E-01
  8.50000000E-01  8.50000000E-01  8.50000000E-01  8.00000000E-01  8.50000000E-01
  8.50000000E-01  8.50000000E-01  8.00000000E-01  8.50000000E-01  8.50000000E-01
  8.50000000E-01  8.00000000E-01  8.50000000E-01  8.50000000E-01  8.50000000E-01
  8.00000000E-01  8.50000000E-01  8.50000000E-01  8.50000000E-01  8.00000000E-01
  8.50000000E-01  8.50000000E-01  8.50000000E-01  8.00000000E-01  8.50000000E-01
  8.50000000E-01  8.50000000E-01  8.00000000E-01  8.50000000E-01  8.50000000E-01
  8.50000000E-01  8.00000000E-01  8.50000000E-01  8.50000000E-01  8.50000000E-01
  8.00000000E-01  8.50000000E-01  8.50000000E-01  8.50000000E-01  8.00000000E-01
  8.50000000E-01  8.50000000E-01  8.50000000E-01  8.00000000E-01  8.50000000E-01
  8.50000000E-01  8.50000000E-01  8.00000000E-01  8.50000000E-01  8.50000000E-01
  8.50000000E-01  8.00000000E-01  8.50000000E-01  8.50000000E-01  8.50000000E-01
  8.00000000E-01  8.50000000E-01  8.50000000E-01  8.50000000E-01  8.00000000E-01
  8.50000000E-01  8.50000000E-01  8.50000000E-01  8.00000000E-01  8.50000000E-01
  8.50000000E-01  8.50000000E-01  8.00000000E-01  8.50000000E-01  8.50000000E-01
  8.50000000E-01  8.00000000E-01  8.50000000E-01  8.50000000E-01  8.50000000E-01
  8.00000000E-01  8.50000000E-01  8.50000000E-01  8.50000000E-01  8.00000000E-01
  8.50000000E-01  8.50000000E-01  8.50000000E-01  8.00000000E-01  8.50000000E-01
  8.50000000E-01  8.50000000E-01  8.00000000E-01  8.50000000E-01  8.50000000E-01
  8.50000000E-01  8.00000000E-01  8.50000000E-01  8.50000000E-01  8.50000000E-01
  8.00000000E-01  8.50000000E-01  8.50000000E-01  8.50000000E-01  8.00000000E-01
  8.50000000E-01  8.50000000E-01  8.50000000E-01  8.00000000E-01  8.50000000E-01
  8.50000000E-01  8.50000000E-01  8.00000000E-01  8.50000000E-01  8.50000000E-01
  8.50000000E-01  8.00000000E-01  8.50000000E-01  8.50000000E-01  8.50000000E-01
  8.00000000E-01  8.50000000E-01  8.50000000E-01  8.50000000E-01  8.00000000E-01
  8.50000000E-01  8.50000000E-01  8.50000000E-01  8.00000000E-01  8.50000000E-01
  8.50000000E-01  8.50000000E-01  8.00000000E-01  8.50000000E-01  8.50000000E-01
  8.50000000E-01  8.00000000E-01  8.50000000E-01  8.50000000E-01  8.50000000E-01
  8.00000000E-01  8.50000000E-01  8.50000000E-01  8.50000000E-01  8.00000000E-01
  8.50000000E-01  8.50000000E-01  8.50000000E-01  8.00000000E-01  8.50000000E-01
  8.50000000E-01  8.50000000E-01  8.00000000E-01  8.50000000E-01  8.50000000E-01
  8.50000000E-01  8.00000000E-01  8.50000000E-01  8.50000000E-01  8.50000000E-01
  8.00000000E-01  8.50000000E-01  8.50000000E-01  8.50000000E-01  8.00000000E-01
  8.50000000E-01  8.50000000E-01  8.50000000E-01  8.00000000E-01  8.50000000E-01
  8.50000000E-01  8.50000000E-01  8.00000000E-01  8.50000000E-01  8.50000000E-01
  8.50000000E-01  8.00000000E-01  8.50000000E-01  8.50000000E-01  8.50000000E-01
  8.00000000E-01  8.50000000E-01  8.50000000E-01  8.50000000E-01  8.00000000E-01
  8.50000000E-01  8.50000000E-01  8.50000000E-01  8.00000000E-01  8.50000000E-01
  8.50000000E-01  8.50000000E-01  8.00000000E-01  8.50000000E-01  8.50000000E-01
  8.50000000E-01  8.00000000E-01  8.50000000E-01  8.50000000E-01  8.50000000E-01
  8.00000000E-01  8.50000000E-01  8.50000000E-01  8.50000000E-01  8.00000000E-01
  8.50000000E-01  8.50000000E-01  8.50000000E-01  8.00000000E-01  8.50000000E-01
  8.50000000E-01  8.50000000E-01  8.00000000E-01  8.50000000E-01  8.50000000E-01
  8.50000000E-01  8.00000000E-01  8.50000000E-01  8.50000000E-01  8.50000000E-01
  8.00000000E-01  8.50000000E-01  8.50000000E-01  8.50000000E-01  8.00000000E-01
  8.50000000E-01  8.50000000E-01  8.50000000E-01  8.00000000E-01  8.50000000E-01
  8.50000000E-01  8.50000000E-01  8.00000000E-01  8.50000000E-01  8.50000000E-01
  8.50000000E-01  8.00000000E-01  8.50000000E-01  8.50000000E-01  8.50000000E-01
  8.00000000E-01  8.50000000E-01  8.50000000E-01  8.50000000E-01  8.00000000E-01
  8.50000000E-01  8.50000000E-01  8.50000000E-01  8.00000000E-01  8.50000000E-01
  8.50000000E-01  8.50000000E-01  8.00000000E-01  8.50000000E-01  8.50000000E-01
  8.50000000E-01  8.00000000E-01  8.50000000E-01  8.50000000E-01  8.50000000E-01
  8.00000000E-01  8.50000000E-01  8.50000000E-01  8.50000000E-01  8.00000000E-01
  8.50000000E-01  8.50000000E-01  8.50000000E-01  8.00000000E-01  8.50000000E-01
  8.50000000E-01  8.50000000E-01  8.00000000E-01  8.50000000E-01  8.50000000E-01
  8.50000000E-01  8.00000000E-01  8.50000000E-01  8.50000000E-01  8.50000000E-01
  8.00000000E-01  8.50000000E-01  8.50000000E-01  8.50000000E-01  8.00000000E-01
  8.50000000E-01  8.50000000E-01  8.50000000E-01  8.00000000E-01  8.50000000E-01
  8.50000000E-01  8.50000000E-01  8.00000000E-01  8.50000000E-01  8.50000000E-01
  8.50000000E-01  8.00000000E-01  8.50000000E-01  8.50000000E-01  8.50000000E-01
  8.00000000E-01  8.50000000E-01  8.50000000E-01  8.50000000E-01  8.00000000E-01
  8.50000000E-01  8.50000000E-01  8.50000000E-01  8.00000000E-01  8.50000000E-01
  8.50000000E-01  8.50000000E-01  8.00000000E-01  8.50000000E-01  8.50000000E-01
  8.50000000E-01  8.00000000E-01  8.50000000E-01  8.50000000E-01  8.50000000E-01
  8.00000000E-01  8.50000000E-01  8.50000000E-01  8.50000000E-01  8.00000000E-01
  8.50000000E-01  8.50000000E-01  8.50000000E-01  8.00000000E-01  8.50000000E-01
  8.50000000E-01  8.50000000E-01  8.00000000E-01  8.50000000E-01  8.50000000E-01
  8.50000000E-01  8.00000000E-01  8.50000000E-01  8.50000000E-01  8.50000000E-01
  8.00000000E-01  8.50000000E-01  8.50000000E-01  8.50000000E-01  8.00000000E-01
  8.50000000E-01  8.50000000E-01  8.50000000E-01  8.00000000E-01  8.50000000E-01
  8.50000000E-01  8.50000000E-01  8.00000000E-01  8.50000000E-01  8.50000000E-01
  8.50000000E-01  8.00000000E-01  8.50000000E-01  8.50000000E-01  8.50000000E-01
  8.00000000E-01  8.50000000E-01  8.50000000E-01  8.50000000E-01  8.00000000E-01
  8.50000000E-01  8.50000000E-01  8.50000000E-01  8.00000000E-01  8.50000000E-01
  8.50000000E-01  8.50000000E-01  8.00000000E-01  8.50000000E-01  8.50000000E-01
  8.50000000E-01  8.00000000E-01  8.50000000E-01  8.50000000E-01  8.50000000E-01
  8.00000000E-01  8.50000000E-01  8.50000000E-01  8.50000000E-01  8.00000000E-01
  8.50000000E-01  8.50000000E-01  8.50000000E-01  8.00000000E-01  8.50000000E-01
  8.50000000E-01  8.50000000E-01  8.00000000E-01  8.50000000E-01  8.50000000E-01
  8.50000000E-01  8.00000000E-01  8.50000000E-01  8.50000000E-01  8.50000000E-01
  8.00000000E-01  8.50000000E-01  8.50000000E-01  8.50000000E-01  8.00000000E-01
  8.50000000E-01  8.50000000E-01  8.50000000E-01  8.00000000E-01  8.50000000E-01
  8.50000000E-01  8.50000000E-01  8.00000000E-01  8.50000000E-01  8.50000000E-01
  8.50000000E-01  8.00000000E-01  8.50000000E-01  8.50000000E-01  8.50000000E-01
  8.00000000E-01  8.50000000E-01  8.50000000E-01  8.50000000E-01  8.00000000E-01
  8.50000000E-01  8.50000000E-01  8.50000000E-01  8.00000000E-01  8.50000000E-01
  8.50000000E-01  8.50000000E-01  8.00000000E-01  8.50000000E-01  8.50000000E-01
  8.50000000E-01  8.00000000E-01  8.50000000E-01  8.50000000E-01  8.50000000E-01
  8.00000000E-01  8.50000000E-01  8.50000000E-01  8.50000000E-01  8.00000000E-01
  8.50000000E-01  8.50000000E-01  8.50000000E-01  8.00000000E-01  8.50000000E-01
  8.50000000E-01  8.50000000E-01  8.00000000E-01  8.50000000E-01  8.50000000E-01
  8.50000000E-01  8.00000000E-01  8.50000000E-01  8.50000000E-01  8.50000000E-01
  8.00000000E-01  8.50000000E-01  8.50000000E-01  8.50000000E-01  8.00000000E-01
  8.50000000E-01  8.50000000E-01  8.50000000E-01  8.00000000E-01  8.50000000E-01
  8.50000000E-01  8.50000000E-01  8.00000000E-01  8.50000000E-01  8.50000000E-01
  8.50000000E-01  8.00000000E-01  8.50000000E-01  8.50000000E-01  8.50000000E-01
  8.00000000E-01  8.50000000E-01  8.50000000E-01  8.50000000E-01  8.00000000E-01
  8.50000000E-01  8.50000000E-01  8.50000000E-01  8.00000000E-01  8.50000000E-01
  8.50000000E-01  8.50000000E-01  8.00000000E-01  8.50000000E-01  8.50000000E-01
  8.50000000E-01  8.00000000E-01  8.50000000E-01  8.50000000E-01  8.50000000E-01
  8.00000000E-01  8.50000000E-01  8.50000000E-01  8.50000000E-01  8.00000000E-01
  8.50000000E-01  8.50000000E-01  8.50000000E-01  8.00000000E-01  8.50000000E-01
  8.50000000E-01  8.50000000E-01  8.00000000E-01  8.50000000E-01  8.50000000E-01
  8.50000000E-01  8.00000000E-01  8.50000000E-01  8.50000000E-01  8.50000000E-01
  8.00000000E-01  8.50000000E-01  8.50000000E-01  8.50000000E-01  8.00000000E-01
  8.50000000E-01  8.50000000E-01  8.50000000E-01  8.00000000E-01  8.50000000E-01
  8.50000000E-01  8.50000000E-01  8.00000000E-01  8.50000000E-01  8.50000000E-01
  8.50000000E-01  8.00000000E-01  8.50000000E-01  8.50000000E-01  8.50000000E-01
  8.00000000E-01  8.50000000E-01  8.50000000E-01  8.50000000E-01  8.00000000E-01
  8.50000000E-01  8.50000000E-01  8.50000000E-01  8.00000000E-01  8.50000000E-01
  8.50000000E-01  8.50000000E-01  8.00000000E-01  8.50000000E-01  8.50000000E-01
  8.50000000E-01  8.00000000E-01  8.50000000E-01  8.50000000E-01  8.50000000E-01
  8.00000000E-01  8.50000000E-01  8.50000000E-01  8.50000000E-01  8.00000000E-01
  8.50000000E-01  8.50000000E-01  8.50000000E-01  8.00000000E-01  8.50000000E-01
  8.50000000E-01  8.50000000E-01  8.00000000E-01  8.50000000E-01  8.50000000E-01
  8.50000000E-01  8.00000000E-01  8.50000000E-01  8.50000000E-01  8.50000000E-01
  8.00000000E-01  8.50000000E-01  8.50000000E-01  8.50000000E-01  8.00000000E-01
  8.50000000E-01  8.50000000E-01  8.50000000E-01  8.00000000E-01  8.50000000E-01
  8.50000000E-01  8.50000000E-01  8.00000000E-01  8.50000000E-01  8.50000000E-01
  8.50000000E-01  8.00000000E-01  8.50000000E-01  8.50000000E-01  8.50000000E-01
  8.00000000E-01  8.50000000E-01  8.50000000E-01  8.50000000E-01  8.00000000E-01
  8.50000000E-01  8.50000000E-01  8.50000000E-01  8.00000000E-01  8.50000000E-01
  8.50000000E-01  8.50000000E-01  8.00000000E-01  8.50000000E-01  8.50000000E-01
  8.50000000E-01  8.00000000E-01  8.50000000E-01  8.50000000E-01  8.50000000E-01
  8.00000000E-01  8.50000000E-01  8.50000000E-01  8.50000000E-01  8.00000000E-01
  8.50000000E-01  8.50000000E-01  8.50000000E-01  8.00000000E-01  8.50000000E-01
  8.50000000E-01  8.50000000E-01  8.00000000E-01  8.50000000E-01  8.50000000E-01
  8.50000000E-01  8.00000000E-01  8.50000000E-01  8.50000000E-01  8.50000000E-01
  8.00000000E-01  8.50000000E-01  8.50000000E-01  8.50000000E-01  8.00000000E-01
  8.50000000E-01  8.50000000E-01  8.50000000E-01  8.00000000E-01  8.50000000E-01
  8.50000000E-01  8.50000000E-01  8.00000000E-01  8.50000000E-01  8.50000000E-01
  8.50000000E-01  8.00000000E-01  8.50000000E-01  8.50000000E-01  8.50000000E-01
  8.00000000E-01  8.50000000E-01  8.50000000E-01  8.50000000E-01  8.00000000E-01
  8.50000000E-01  8.50000000E-01  8.50000000E-01  8.00000000E-01  8.50000000E-01
  8.50000000E-01  8.50000000E-01  8.00000000E-01  8.50000000E-01  8.50000000E-01
  8.50000000E-01  8.00000000E-01  8.50000000E-01  8.50000000E-01  8.50000000E-01
  8.00000000E-01  8.50000000E-01  8.50000000E-01  8.50000000E-01  8.00000000E-01
  8.50000000E-01  8.50000000E-01  8.50000000E-01  8.00000000E-01  8.50000000E-01
  8.50000000E-01  8.50000000E-01  8.00000000E-01  8.50000000E-01  8.50000000E-01
  8.50000000E-01  8.00000000E-01  8.50000000E-01  8.50000000E-01  8.50000000E-01
  8.00000000E-01  8.50000000E-01  8.50000000E-01  8.50000000E-01  8.00000000E-01
  8.50000000E-01  8.50000000E-01  8.50000000E-01  8.00000000E-01  8.50000000E-01
  8.50000000E-01  8.50000000E-01  8.00000000E-01  8.50000000E-01  8.50000000E-01
  8.50000000E-01  8.00000000E-01  8.50000000E-01  8.50000000E-01  8.50000000E-01
  8.00000000E-01  8.50000000E-01  8.50000000E-01  8.50000000E-01  8.00000000E-01
  8.50000000E-01  8.50000000E-01  8.50000000E-01  8.00000000E-01  8.50000000E-01
  8.50000000E-01  8.50000000E-01  8.00000000E-01  8.50000000E-01  8.50000000E-01
  8.50000000E-01  8.00000000E-01  8.50000000E-01  8.50000000E-01  8.50000000E-01
  8.00000000E-01  8.50000000E-01  8.50000000E-01  8.50000000E-01  8.00000000E-01
  8.50000000E-01  8.50000000E-01  8.50000000E-01  8.00000000E-01  8.50000000E-01
  8.50000000E-01  8.50000000E-01  8.00000000E-01  8.50000000E-01  8.50000000E-01
  8.50000000E-01  8.00000000E-01  8.50000000E-01  8.50000000E-01  8.50000000E-01
  8.00000000E-01  8.50000000E-01  8.50000000E-01  8.50000000E-01  8.00000000E-01
  8.50000000E-01  8.50000000E-01  8.50000000E-01  8.00000000E-01  8.50000000E-01
  8.50000000E-01  8.50000000E-01  8.00000000E-01  8.50000000E-01  8.50000000E-01
  8.50000000E-01  8.00000000E-01  8.50000000E-01  8.50000000E-01  8.50000000E-01
  8.00000000E-01  8.50000000E-01  8.50000000E-01  8.50000000E-01  8.00000000E-01
  8.50000000E-01  8.50000000E-01  8.50000000E-01  8.00000000E-01  8.50000000E-01
  8.50000000E-01  8.50000000E-01  8.00000000E-01  8.50000000E-01  8.50000000E-01
  8.50000000E-01  8.00000000E-01  8.50000000E-01  8.50000000E-01  8.50000000E-01
  8.00000000E-01  8.50000000E-01  8.50000000E-01  8.50000000E-01  8.00000000E-01
  8.50000000E-01  8.50000000E-01  8.50000000E-01  8.00000000E-01  8.50000000E-01
  8.50000000E-01  8.50000000E-01  8.00000000E-01  8.50000000E-01  8.50000000E-01
  8.50000000E-01  8.00000000E-01  8.50000000E-01  8.50000000E-01  8.50000000E-01
  8.00000000E-01  8.50000000E-01  8.50000000E-01  8.50000000E-01  8.00000000E-01
  8.50000000E-01  8.50000000E-01  8.50000000E-01  8.00000000E-01  8.50000000E-01
  8.50000000E-01  8.50000000E-01  8.00000000E-01  8.50000000E-01  8.50000000E-01
  8.50000000E-01  8.00000000E-01  8.50000000E-01  8.50000000E-01  8.50000000E-01
  8.00000000E-01  8.50000000E-01  8.50000000E-01  8.50000000E-01  8.00000000E-01
  8.50000000E-01  8.50000000E-01  8.50000000E-01  8.00000000E-01  8.50000000E-01
  8.50000000E-01  8.50000000E-01  8.00000000E-01  8.50000000E-01  8.50000000E-01
  8.50000000E-01  8.00000000E-01  8.50000000E-01  8.50000000E-01  8.50000000E-01
  8.00000000E-01  8.50000000E-01  8.50000000E-01  8.50000000E-01  8.00000000E-01
  8.50000000E-01  8.50000000E-01  8.50000000E-01  8.00000000E-01  8.50000000E-01
  8.50000000E-01  8.50000000E-01  8.00000000E-01  8.50000000E-01  8.50000000E-01
  8.50000000E-01  8.00000000E-01  8.50000000E-01  8.50000000E-01  8.50000000E-01
  8.00000000E-01  8.50000000E-01  8.50000000E-01  8.50000000E-01  8.00000000E-01
  8.50000000E-01  8.50000000E-01  8.50000000E-01  8.00000000E-01  8.50000000E-01
  8.50000000E-01  8.50000000E-01  8.00000000E-01  8.50000000E-01  8.50000000E-01
  8.50000000E-01  8.00000000E-01  8.50000000E-01  8.50000000E-01  8.50000000E-01
  8.00000000E-01  8.50000000E-01  8.50000000E-01  8.50000000E-01  8.00000000E-01
  8.50000000E-01  8.50000000E-01  8.50000000E-01  8.00000000E-01  8.50000000E-01
  8.50000000E-01  8.50000000E-01  8.00000000E-01  8.50000000E-01  8.50000000E-01
  8.50000000E-01  8.00000000E-01  8.50000000E-01  8.50000000E-01  8.50000000E-01
  8.00000000E-01  8.50000000E-01  8.50000000E-01  8.50000000E-01  8.00000000E-01
  8.50000000E-01  8.50000000E-01  8.50000000E-01  8.00000000E-01  8.50000000E-01
  8.50000000E-01  8.50000000E-01  8.00000000E-01  8.50000000E-01  8.50000000E-01
  8.50000000E-01  8.00000000E-01  8.50000000E-01  8.50000000E-01  8.50000000E-01
  8.00000000E-01  8.50000000E-01  8.50000000E-01  8.50000000E-01  8.00000000E-01
  8.50000000E-01  8.50000000E-01  8.50000000E-01  8.00000000E-01  8.50000000E-01
  8.50000000E-01  8.50000000E-01  8.00000000E-01  8.50000000E-01  8.50000000E-01
  8.50000000E-01  8.00000000E-01  8.50000000E-01  8.50000000E-01  8.50000000E-01
  8.00000000E-01  8.50000000E-01  8.50000000E-01  8.50000000E-01  8.00000000E-01
  8.50000000E-01  8.50000000E-01  8.50000000E-01  8.00000000E-01  8.50000000E-01
  8.50000000E-01  8.50000000E-01  8.00000000E-01  8.50000000E-01  8.50000000E-01
  8.50000000E-01  8.00000000E-01  8.50000000E-01  8.50000000E-01  8.50000000E-01
  8.00000000E-01  8.50000000E-01  8.50000000E-01  8.50000000E-01  8.00000000E-01
  8.50000000E-01  8.50000000E-01  8.50000000E-01  8.00000000E-01  8.50000000E-01
  8.50000000E-01  8.50000000E-01  8.00000000E-01  8.50000000E-01  8.50000000E-01
  8.50000000E-01  8.00000000E-01  8.50000000E-01  8.50000000E-01  8.50000000E-01
  8.00000000E-01  8.50000000E-01  8.50000000E-01  8.50000000E-01  8.00000000E-01
  8.50000000E-01  8.50000000E-01  8.50000000E-01  8.00000000E-01  8.50000000E-01
  8.50000000E-01  8.50000000E-01  8.00000000E-01  8.50000000E-01  8.50000000E-01
  8.50000000E-01  8.00000000E-01  8.50000000E-01  8.50000000E-01  8.50000000E-01
  8.00000000E-01  8.50000000E-01  8.50000000E-01  8.50000000E-01  8.00000000E-01
  8.50000000E-01  8.50000000E-01  8.50000000E-01  8.00000000E-01  8.50000000E-01
  8.50000000E-01  8.50000000E-01  8.00000000E-01  8.50000000E-01  8.50000000E-01
  8.50000000E-01  8.00000000E-01  8.50000000E-01  8.50000000E-01  8.50000000E-01
  8.00000000E-01  8.50000000E-01  8.50000000E-01  8.50000000E-01  8.00000000E-01
  8.50000000E-01  8.50000000E-01  8.50000000E-01  8.00000000E-01  8.50000000E-01
  8.50000000E-01  8.50000000E-01  8.00000000E-01  8.50000000E-01  8.50000000E-01
  8.50000000E-01  8.00000000E-01  8.50000000E-01  8.50000000E-01  8.50000000E-01
  8.00000000E-01  8.50000000E-01  8.50000000E-01  8.50000000E-01  8.00000000E-01
  8.50000000E-01  8.50000000E-01  8.50000000E-01  8.00000000E-01  8.50000000E-01
  8.50000000E-01  8.50000000E-01  8.00000000E-01  8.50000000E-01  8.50000000E-01
  8.50000000E-01  8.00000000E-01  8.50000000E-01  8.50000000E-01  8.50000000E-01
  8.00000000E-01  8.50000000E-01  8.50000000E-01  8.50000000E-01  8.00000000E-01
  8.50000000E-01  8.50000000E-01  8.50000000E-01  8.00000000E-01  8.50000000E-01
  8.50000000E-01  8.50000000E-01  8.00000000E-01  8.50000000E-01  8.50000000E-01
  8.50000000E-01  8.00000000E-01  8.50000000E-01  8.50000000E-01  8.50000000E-01
  8.00000000E-01  8.50000000E-01  8.50000000E-01  8.50000000E-01  8.00000000E-01
  8.50000000E-01  8.50000000E-01  8.50000000E-01  8.00000000E-01  8.50000000E-01
  8.50000000E-01  8.50000000E-01  8.00000000E-01  8.50000000E-01  8.50000000E-01
  8.50000000E-01  8.00000000E-01  8.50000000E-01  8.50000000E-01  8.50000000E-01
  8.00000000E-01  8.50000000E-01  8.50000000E-01  8.50000000E-01  8.00000000E-01
  8.50000000E-01  8.50000000E-01  8.50000000E-01  8.00000000E-01  8.50000000E-01
  8.50000000E-01  8.50000000E-01  8.00000000E-01  8.50000000E-01  8.50000000E-01
  8.50000000E-01  8.00000000E-01  8.50000000E-01  8.50000000E-01  8.50000000E-01
  8.00000000E-01  8.50000000E-01  8.50000000E-01  8.50000000E-01  8.00000000E-01
  8.50000000E-01  8.50000000E-01  8.50000000E-01  8.00000000E-01  8.50000000E-01
  8.50000000E-01  8.50000000E-01  8.00000000E-01  8.50000000E-01  8.50000000E-01
  8.50000000E-01  8.00000000E-01  8.50000000E-01  8.50000000E-01  8.50000000E-01
  8.00000000E-01  8.50000000E-01  8.50000000E-01  8.50000000E-01  8.00000000E-01
  8.50000000E-01  8.50000000E-01  8.50000000E-01  8.00000000E-01  8.50000000E-01
  8.50000000E-01  8.50000000E-01  8.00000000E-01  8.50000000E-01  8.50000000E-01
  8.50000000E-01  8.00000000E-01  8.50000000E-01  8.50000000E-01  8.50000000E-01
  8.00000000E-01  8.50000000E-01  8.50000000E-01  8.50000000E-01  8.00000000E-01
  8.50000000E-01  8.50000000E-01  8.50000000E-01  8.00000000E-01  8.50000000E-01
  8.50000000E-01  8.50000000E-01  8.00000000E-01  8.50000000E-01  8.50000000E-01
  8.50000000E-01  8.00000000E-01  8.50000000E-01  8.50000000E-01  8.50000000E-01
  8.00000000E-01  8.50000000E-01  8.50000000E-01  8.50000000E-01  8.00000000E-01
  8.50000000E-01  8.50000000E-01  8.50000000E-01  8.00000000E-01  8.50000000E-01
  8.50000000E-01  8.50000000E-01  8.00000000E-01  8.50000000E-01  8.50000000E-01
  8.50000000E-01  8.00000000E-01  8.50000000E-01  8.50000000E-01  8.50000000E-01
  8.00000000E-01  8.50000000E-01  8.50000000E-01  8.50000000E-01  8.00000000E-01
  8.50000000E-01  8.50000000E-01  8.50000000E-01  8.00000000E-01  8.50000000E-01
  8.50000000E-01  8.50000000E-01  8.00000000E-01  8.50000000E-01  8.50000000E-01
  8.50000000E-01  8.00000000E-01  8.50000000E-01  8.50000000E-01  8.50000000E-01
  8.00000000E-01  8.50000000E-01  8.50000000E-01  8.50000000E-01  8.00000000E-01
  8.50000000E-01  8.50000000E-01  8.50000000E-01  8.00000000E-01  8.50000000E-01
  8.50000000E-01  8.50000000E-01  8.00000000E-01  8.50000000E-01  8.50000000E-01
  8.50000000E-01  8.00000000E-01  8.50000000E-01  8.50000000E-01  8.50000000E-01
  8.00000000E-01  8.50000000E-01  8.50000000E-01  8.50000000E-01  8.00000000E-01
  8.50000000E-01  8.50000000E-01  8.50000000E-01  8.00000000E-01  8.50000000E-01
  8.50000000E-01  8.50000000E-01  8.00000000E-01  8.50000000E-01  8.50000000E-01
  8.50000000E-01  8.00000000E-01  8.50000000E-01  8.50000000E-01  8.50000000E-01
  8.00000000E-01  8.50000000E-01  8.50000000E-01  8.50000000E-01  8.00000000E-01
  8.50000000E-01  8.50000000E-01  8.50000000E-01  8.00000000E-01  8.50000000E-01
  8.50000000E-01  8.50000000E-01  8.00000000E-01  8.50000000E-01  8.50000000E-01
  8.50000000E-01  8.00000000E-01  8.50000000E-01  8.50000000E-01  8.50000000E-01
  8.00000000E-01  8.50000000E-01  8.50000000E-01  8.50000000E-01  8.00000000E-01
  8.50000000E-01  8.50000000E-01  8.50000000E-01  8.00000000E-01  8.50000000E-01
  8.50000000E-01  8.50000000E-01  8.00000000E-01  8.50000000E-01  8.50000000E-01
  8.50000000E-01  8.00000000E-01  8.50000000E-01  8.50000000E-01  8.50000000E-01
  8.00000000E-01  8.50000000E-01  8.50000000E-01  8.50000000E-01  8.00000000E-01
  8.50000000E-01  8.50000000E-01  8.50000000E-01  8.00000000E-01  8.50000000E-01
  8.50000000E-01  8.50000000E-01  8.00000000E-01  8.50000000E-01  8.50000000E-01
  8.50000000E-01  8.00000000E-01  8.50000000E-01  8.50000000E-01  8.50000000E-01
  8.00000000E-01  8.50000000E-01  8.50000000E-01  8.50000000E-01  8.00000000E-01
  8.50000000E-01  8.50000000E-01  8.50000000E-01  8.00000000E-01  8.50000000E-01
  8.50000000E-01  8.50000000E-01  8.00000000E-01  8.50000000E-01  8.50000000E-01
  8.50000000E-01  8.00000000E-01  8.50000000E-01  8.50000000E-01  8.50000000E-01
  8.00000000E-01  8.50000000E-01  8.50000000E-01  8.50000000E-01  8.00000000E-01
  8.50000000E-01  8.50000000E-01  8.50000000E-01  8.00000000E-01  8.50000000E-01
  8.50000000E-01  8.50000000E-01  8.00000000E-01  8.50000000E-01  8.50000000E-01
  8.50000000E-01  8.00000000E-01  8.50000000E-01  8.50000000E-01  8.50000000E-01
  8.00000000E-01  8.50000000E-01  8.50000000E-01  8.50000000E-01  8.00000000E-01
  8.50000000E-01  8.50000000E-01  8.50000000E-01  8.00000000E-01  8.50000000E-01
  8.50000000E-01  8.50000000E-01  8.00000000E-01  8.50000000E-01  8.50000000E-01
  8.50000000E-01  8.00000000E-01  8.50000000E-01  8.50000000E-01  8.50000000E-01
  8.00000000E-01  8.50000000E-01  8.50000000E-01  8.50000000E-01  8.00000000E-01
  8.50000000E-01  8.50000000E-01  8.50000000E-01  8.00000000E-01  8.50000000E-01
  8.50000000E-01  8.50000000E-01  8.00000000E-01  8.50000000E-01  8.50000000E-01
  8.50000000E-01  8.00000000E-01  8.50000000E-01  8.50000000E-01  8.50000000E-01
  8.00000000E-01  8.50000000E-01  8.50000000E-01  8.50000000E-01  8.00000000E-01
  8.50000000E-01  8.50000000E-01  8.50000000E-01  8.00000000E-01  8.50000000E-01
  8.50000000E-01  8.50000000E-01  8.00000000E-01  8.50000000E-01  8.50000000E-01
  8.50000000E-01  8.00000000E-01  8.50000000E-01  8.50000000E-01  8.50000000E-01
  8.00000000E-01  8.50000000E-01  8.50000000E-01  8.50000000E-01  8.00000000E-01
  8.50000000E-01  8.50000000E-01  8.50000000E-01  8.00000000E-01  8.50000000E-01
  8.50000000E-01  8.50000000E-01  8.00000000E-01  8.50000000E-01  8.50000000E-01
  8.50000000E-01  8.00000000E-01  8.50000000E-01  8.50000000E-01  8.50000000E-01
  8.00000000E-01  8.50000000E-01  8.50000000E-01  8.50000000E-01  8.00000000E-01
  8.50000000E-01  8.50000000E-01  8.50000000E-01  8.00000000E-01  8.50000000E-01
  8.50000000E-01  8.50000000E-01  8.00000000E-01  8.50000000E-01  8.50000000E-01
  8.50000000E-01  8.00000000E-01  8.50000000E-01  8.50000000E-01  8.50000000E-01
  8.00000000E-01  8.50000000E-01  8.50000000E-01  8.50000000E-01  8.00000000E-01
  8.50000000E-01  8.50000000E-01  8.50000000E-01  8.00000000E-01  8.50000000E-01
  8.50000000E-01  8.50000000E-01  8.00000000E-01  8.50000000E-01  8.50000000E-01
  8.50000000E-01  8.00000000E-01  8.50000000E-01  8.50000000E-01  8.50000000E-01
  8.00000000E-01  8.50000000E-01  8.50000000E-01  8.50000000E-01  8.00000000E-01
  8.50000000E-01  8.50000000E-01  8.50000000E-01  8.00000000E-01  8.50000000E-01
  8.50000000E-01  8.50000000E-01  8.00000000E-01  8.50000000E-01  8.50000000E-01
  8.50000000E-01  8.00000000E-01  8.50000000E-01  8.50000000E-01  8.50000000E-01
  8.00000000E-01  8.50000000E-01  8.50000000E-01  8.50000000E-01  8.00000000E-01
  8.50000000E-01  8.50000000E-01  8.50000000E-01  8.00000000E-01  8.50000000E-01
  8.50000000E-01  8.50000000E-01  8.00000000E-01  8.50000000E-01  8.50000000E-01
  8.50000000E-01  8.00000000E-01  8.50000000E-01  8.50000000E-01  8.50000000E-01
  8.00000000E-01  8.50000000E-01  8.50000000E-01  8.50000000E-01  8.00000000E-01
  8.50000000E-01  8.50000000E-01  8.50000000E-01  8.00000000E-01  8.50000000E-01
  8.50000000E-01  8.50000000E-01  8.00000000E-01  8.50000000E-01  8.50000000E-01
  8.50000000E-01  8.00000000E-01  8.50000000E-01  8.50000000E-01  8.50000000E-01
  8.00000000E-01  8.50000000E-01  8.50000000E-01  8.50000000E-01  8.00000000E-01
  8.50000000E-01  8.50000000E-01  8.50000000E-01  8.00000000E-01  8.50000000E-01
  8.50000000E-01  8.50000000E-01  8.00000000E-01  8.50000000E-01  8.50000000E-01
  8.50000000E-01  8.00000000E-01  8.50000000E-01  8.50000000E-01  8.50000000E-01
  8.00000000E-01  8.50000000E-01  8.50000000E-01  8.50000000E-01  8.00000000E-01
  8.50000000E-01  8.50000000E-01  8.50000000E-01  8.00000000E-01  8.50000000E-01
  8.50000000E-01  8.50000000E-01  8.00000000E-01  8.50000000E-01  8.50000000E-01
  8.50000000E-01  8.00000000E-01  8.50000000E-01  8.50000000E-01  8.50000000E-01
  8.00000000E-01  8.50000000E-01  8.50000000E-01  8.50000000E-01  8.00000000E-01
  8.50000000E-01  8.50000000E-01  8.50000000E-01  8.00000000E-01  8.50000000E-01
  8.50000000E-01  8.50000000E-01  8.00000000E-01  8.50000000E-01  8.50000000E-01
  8.50000000E-01  8.00000000E-01  8.50000000E-01  8.50000000E-01  8.50000000E-01
  8.00000000E-01  8.50000000E-01  8.50000000E-01  8.50000000E-01  8.00000000E-01
  8.50000000E-01  8.50000000E-01  8.50000000E-01  8.00000000E-01  8.50000000E-01
  8.50000000E-01  8.50000000E-01  8.00000000E-01  8.50000000E-01  8.50000000E-01
  8.50000000E-01  8.00000000E-01  8.50000000E-01  8.50000000E-01  8.50000000E-01
  8.00000000E-01  8.50000000E-01  8.50000000E-01  8.50000000E-01  8.00000000E-01
  8.50000000E-01  8.50000000E-01  8.50000000E-01  8.00000000E-01  8.50000000E-01
  8.50000000E-01  8.50000000E-01  8.00000000E-01  8.50000000E-01  8.50000000E-01
  8.50000000E-01  8.00000000E-01  8.50000000E-01  8.50000000E-01  8.50000000E-01
  8.00000000E-01  8.50000000E-01  8.50000000E-01  8.50000000E-01  8.00000000E-01
  8.50000000E-01  8.50000000E-01  8.50000000E-01  8.00000000E-01  8.50000000E-01
  8.50000000E-01  8.50000000E-01  8.00000000E-01  8.50000000E-01  8.50000000E-01
  8.50000000E-01  8.00000000E-01  8.50000000E-01  8.50000000E-01  8.50000000E-01
  8.00000000E-01  8.50000000E-01  8.50000000E-01  8.50000000E-01  8.00000000E-01
  8.50000000E-01  8.50000000E-01  8.50000000E-01  8.00000000E-01  8.50000000E-01
  8.50000000E-01  8.50000000E-01  8.00000000E-01  8.50000000E-01  8.50000000E-01
  8.50000000E-01  8.00000000E-01  8.50000000E-01  8.50000000E-01  8.50000000E-01
  8.00000000E-01  8.50000000E-01  8.50000000E-01  8.50000000E-01  8.00000000E-01
  8.50000000E-01  8.50000000E-01  8.50000000E-01  8.00000000E-01  8.50000000E-01
  8.50000000E-01  8.50000000E-01  8.00000000E-01  8.50000000E-01  8.50000000E-01
  8.50000000E-01  8.00000000E-01  8.50000000E-01  8.50000000E-01  8.50000000E-01
  8.00000000E-01  8.50000000E-01  8.50000000E-01  8.50000000E-01  8.00000000E-01
  8.50000000E-01  8.50000000E-01  8.50000000E-01  8.00000000E-01  8.50000000E-01
  8.50000000E-01  8.50000000E-01  8.00000000E-01  8.50000000E-01  8.50000000E-01
  8.50000000E-01  8.00000000E-01  8.50000000E-01  8.50000000E-01  8.50000000E-01
  8.00000000E-01  8.50000000E-01  8.50000000E-01  8.50000000E-01  8.00000000E-01
  8.50000000E-01  8.50000000E-01  8.50000000E-01  8.00000000E-01  8.50000000E-01
  8.50000000E-01  8.50000000E-01  8.00000000E-01  8.50000000E-01  8.50000000E-01
  8.50000000E-01  8.00000000E-01  8.50000000E-01  8.50000000E-01  8.50000000E-01
  8.00000000E-01  8.50000000E-01  8.50000000E-01  8.50000000E-01  8.00000000E-01
  8.50000000E-01  8.50000000E-01  8.50000000E-01  8.00000000E-01  8.50000000E-01
  8.50000000E-01  8.50000000E-01  8.00000000E-01  8.50000000E-01  8.50000000E-01
  8.50000000E-01  8.00000000E-01  8.50000000E-01  8.50000000E-01  8.50000000E-01
  8.00000000E-01  8.50000000E-01  8.50000000E-01  8.50000000E-01  8.00000000E-01
  8.50000000E-01  8.50000000E-01  8.50000000E-01  8.00000000E-01  8.50000000E-01
  8.50000000E-01  8.50000000E-01  8.00000000E-01  8.50000000E-01  8.50000000E-01
  8.50000000E-01  8.00000000E-01  8.50000000E-01  8.50000000E-01  8.50000000E-01
  8.00000000E-01  8.50000000E-01  8.50000000E-01  8.50000000E-01  8.00000000E-01
  8.50000000E-01  8.50000000E-01  8.50000000E-01  8.00000000E-01  8.50000000E-01
  8.50000000E-01  8.50000000E-01  8.00000000E-01  8.50000000E-01  8.50000000E-01
  8.50000000E-01  8.00000000E-01  8.50000000E-01  8.50000000E-01  8.50000000E-01
  8.00000000E-01  8.50000000E-01  8.50000000E-01  8.50000000E-01  8.00000000E-01
  8.50000000E-01  8.50000000E-01  8.50000000E-01  8.00000000E-01  8.50000000E-01
  8.50000000E-01  8.50000000E-01  8.00000000E-01  8.50000000E-01  8.50000000E-01
  8.50000000E-01  8.00000000E-01  8.50000000E-01  8.50000000E-01  8.50000000E-01
  8.00000000E-01  8.50000000E-01  8.50000000E-01  8.50000000E-01  8.00000000E-01
  8.50000000E-01  8.50000000E-01  8.50000000E-01  8.00000000E-01  8.50000000E-01
  8.50000000E-01  8.50000000E-01  8.00000000E-01  8.50000000E-01  8.50000000E-01
  8.50000000E-01  8.00000000E-01  8.50000000E-01  8.50000000E-01  8.50000000E-01
  8.00000000E-01  8.50000000E-01  8.50000000E-01  8.50000000E-01  8.00000000E-01
  8.50000000E-01  8.50000000E-01  8.50000000E-01  8.00000000E-01  8.50000000E-01
  8.50000000E-01  8.50000000E-01  8.00000000E-01  8.50000000E-01  8.50000000E-01
  8.50000000E-01  8.00000000E-01  8.50000000E-01  8.50000000E-01  8.50000000E-01
  8.00000000E-01  8.50000000E-01  8.50000000E-01  8.50000000E-01  8.00000000E-01
  8.50000000E-01  8.50000000E-01  8.50000000E-01  8.00000000E-01  8.50000000E-01
  8.50000000E-01  8.50000000E-01  8.00000000E-01  8.50000000E-01  8.50000000E-01
  8.50000000E-01  8.00000000E-01  8.50000000E-01  8.50000000E-01  8.50000000E-01
  8.00000000E-01  8.50000000E-01  8.50000000E-01  8.50000000E-01  8.00000000E-01
  8.50000000E-01  8.50000000E-01  8.50000000E-01  8.00000000E-01  8.50000000E-01
  8.50000000E-01  8.50000000E-01  8.00000000E-01  8.50000000E-01  8.50000000E-01
  8.50000000E-01  8.00000000E-01  8.50000000E-01  8.50000000E-01  8.50000000E-01
  8.00000000E-01  8.50000000E-01  8.50000000E-01  8.50000000E-01  8.00000000E-01
  8.50000000E-01  8.50000000E-01  8.50000000E-01  8.00000000E-01  8.50000000E-01
  8.50000000E-01  8.50000000E-01  8.00000000E-01  8.50000000E-01  8.50000000E-01
  8.50000000E-01  8.00000000E-01  8.50000000E-01  8.50000000E-01  8.50000000E-01
  8.00000000E-01  8.50000000E-01  8.50000000E-01  8.50000000E-01  8.00000000E-01
  8.50000000E-01  8.50000000E-01  8.50000000E-01  8.00000000E-01  8.50000000E-01
  8.50000000E-01  8.50000000E-01  8.00000000E-01  8.50000000E-01  8.50000000E-01
  8.50000000E-01  8.00000000E-01  8.50000000E-01  8.50000000E-01  8.50000000E-01
  8.00000000E-01  8.50000000E-01  8.50000000E-01  8.50000000E-01  8.00000000E-01
  8.50000000E-01  8.50000000E-01  8.50000000E-01  8.00000000E-01  8.50000000E-01
  8.50000000E-01  8.50000000E-01  8.00000000E-01  8.50000000E-01  8.50000000E-01
  8.50000000E-01  8.00000000E-01  8.50000000E-01  8.50000000E-01  8.50000000E-01
  8.00000000E-01  8.50000000E-01  8.50000000E-01  8.50000000E-01  8.00000000E-01
  8.50000000E-01  8.50000000E-01  8.50000000E-01  8.00000000E-01  8.50000000E-01
  8.50000000E-01  8.50000000E-01  8.00000000E-01  8.50000000E-01  8.50000000E-01
  8.50000000E-01  8.00000000E-01  8.50000000E-01  8.50000000E-01  8.50000000E-01
  8.00000000E-01  8.50000000E-01  8.50000000E-01  8.50000000E-01  8.00000000E-01
  8.50000000E-01  8.50000000E-01  8.50000000E-01  8.00000000E-01  8.50000000E-01
  8.50000000E-01  8.50000000E-01  8.00000000E-01  8.50000000E-01  8.50000000E-01
  8.50000000E-01  8.00000000E-01  8.50000000E-01  8.50000000E-01  8.50000000E-01
  8.00000000E-01  8.50000000E-01  8.50000000E-01  8.50000000E-01  8.00000000E-01
  8.50000000E-01  8.50000000E-01  8.50000000E-01  8.00000000E-01  8.50000000E-01
  8.50000000E-01  8.50000000E-01  8.00000000E-01  8.50000000E-01  8.50000000E-01
  8.50000000E-01  8.00000000E-01  8.50000000E-01  8.50000000E-01  8.50000000E-01
  8.00000000E-01  8.50000000E-01  8.50000000E-01  8.50000000E-01  8.00000000E-01
  8.50000000E-01  8.50000000E-01  8.50000000E-01  8.00000000E-01  8.50000000E-01
  8.50000000E-01  8.50000000E-01  8.00000000E-01  8.50000000E-01  8.50000000E-01
  8.50000000E-01  8.00000000E-01  8.50000000E-01  8.50000000E-01  8.50000000E-01
  8.00000000E-01  8.50000000E-01  8.50000000E-01  8.50000000E-01  8.00000000E-01
  8.50000000E-01  8.50000000E-01  8.50000000E-01  8.00000000E-01  8.50000000E-01
  8.50000000E-01  8.50000000E-01  8.00000000E-01  8.50000000E-01  8.50000000E-01
  8.50000000E-01  8.00000000E-01  8.50000000E-01  8.50000000E-01  8.50000000E-01
  8.00000000E-01  8.50000000E-01  8.50000000E-01  8.50000000E-01  8.00000000E-01
  8.50000000E-01  8.50000000E-01  8.50000000E-01  8.00000000E-01  8.50000000E-01
  8.50000000E-01  8.50000000E-01  8.00000000E-01  8.50000000E-01  8.50000000E-01
  8.50000000E-01  8.00000000E-01  8.50000000E-01  8.50000000E-01  8.50000000E-01
  8.00000000E-01  8.50000000E-01  8.50000000E-01  8.50000000E-01  8.00000000E-01
  8.50000000E-01  8.50000000E-01  8.50000000E-01  8.00000000E-01  8.50000000E-01
  8.50000000E-01  8.50000000E-01  8.00000000E-01  8.50000000E-01  8.50000000E-01
  8.50000000E-01  8.00000000E-01  8.50000000E-01  8.50000000E-01  8.50000000E-01
  8.00000000E-01  8.50000000E-01  8.50000000E-01  8.50000000E-01  8.00000000E-01
  8.50000000E-01  8.50000000E-01  8.50000000E-01  8.00000000E-01  8.50000000E-01
  8.50000000E-01  8.50000000E-01  8.00000000E-01  8.50000000E-01  8.50000000E-01
  8.50000000E-01  8.00000000E-01  8.50000000E-01  8.50000000E-01  8.50000000E-01
  8.00000000E-01  8.50000000E-01  8.50000000E-01  8.50000000E-01  8.00000000E-01
  8.50000000E-01  8.50000000E-01  8.50000000E-01  8.00000000E-01  8.50000000E-01
  8.50000000E-01  8.50000000E-01  8.00000000E-01  8.50000000E-01  8.50000000E-01
  8.50000000E-01  8.00000000E-01  8.50000000E-01  8.50000000E-01  8.50000000E-01
  8.00000000E-01  8.50000000E-01  8.50000000E-01  8.50000000E-01  8.00000000E-01
  8.50000000E-01  8.50000000E-01  8.50000000E-01  8.00000000E-01  8.50000000E-01
  8.50000000E-01  8.50000000E-01  8.00000000E-01  8.50000000E-01  8.50000000E-01
  8.50000000E-01  8.00000000E-01  8.50000000E-01  8.50000000E-01  8.50000000E-01
  8.00000000E-01  8.50000000E-01  8.50000000E-01  8.50000000E-01  8.00000000E-01
  8.50000000E-01  8.50000000E-01  8.50000000E-01  8.00000000E-01  8.50000000E-01
  8.50000000E-01  8.50000000E-01  8.00000000E-01  8.50000000E-01  8.50000000E-01
  8.50000000E-01  8.00000000E-01  8.50000000E-01  8.50000000E-01  8.50000000E-01
  8.00000000E-01  8.50000000E-01  8.50000000E-01  8.50000000E-01  8.00000000E-01
  8.50000000E-01  8.50000000E-01  8.50000000E-01  8.00000000E-01  8.50000000E-01
  8.50000000E-01  8.50000000E-01  8.00000000E-01  8.50000000E-01  8.50000000E-01
  8.50000000E-01  8.00000000E-01  8.50000000E-01  8.50000000E-01  8.50000000E-01
  8.00000000E-01  8.50000000E-01  8.50000000E-01  8.50000000E-01  8.00000000E-01
  8.50000000E-01  8.50000000E-01  8.50000000E-01  8.00000000E-01  8.50000000E-01
  8.50000000E-01  8.50000000E-01  8.00000000E-01  8.50000000E-01  8.50000000E-01
  8.50000000E-01  8.00000000E-01  8.50000000E-01  8.50000000E-01  8.50000000E-01
  8.00000000E-01  8.50000000E-01  8.50000000E-01  8.50000000E-01  8.00000000E-01
  8.50000000E-01  8.50000000E-01  8.50000000E-01  8.00000000E-01  8.50000000E-01
  8.50000000E-01  8.50000000E-01  8.00000000E-01  8.50000000E-01  8.50000000E-01
  8.50000000E-01  8.00000000E-01  8.50000000E-01  8.50000000E-01  8.50000000E-01
  8.00000000E-01  8.50000000E-01  8.50000000E-01  8.50000000E-01  8.00000000E-01
  8.50000000E-01  8.50000000E-01  8.50000000E-01  8.00000000E-01  8.50000000E-01
  8.50000000E-01  8.50000000E-01  8.00000000E-01  8.50000000E-01  8.50000000E-01
  8.50000000E-01  8.00000000E-01  8.50000000E-01  8.50000000E-01  8.50000000E-01
  8.00000000E-01  8.50000000E-01  8.50000000E-01  8.50000000E-01  8.00000000E-01
  8.50000000E-01  8.50000000E-01  8.50000000E-01  8.00000000E-01  8.50000000E-01
  8.50000000E-01  8.50000000E-01  8.00000000E-01  8.50000000E-01  8.50000000E-01
  8.50000000E-01  8.00000000E-01  8.50000000E-01  8.50000000E-01  8.50000000E-01
  8.00000000E-01  8.50000000E-01  8.50000000E-01  8.50000000E-01  8.00000000E-01
  8.50000000E-01  8.50000000E-01  8.50000000E-01  8.00000000E-01  8.50000000E-01
  8.50000000E-01  8.50000000E-01  8.00000000E-01  8.50000000E-01  8.50000000E-01
  8.50000000E-01  8.00000000E-01  8.50000000E-01  8.50000000E-01  8.50000000E-01
  8.00000000E-01  8.50000000E-01  8.50000000E-01  8.50000000E-01  8.00000000E-01
  8.50000000E-01  8.50000000E-01  8.50000000E-01  8.00000000E-01  8.50000000E-01
  8.50000000E-01  8.50000000E-01  8.00000000E-01  8.50000000E-01  8.50000000E-01
  8.50000000E-01  8.00000000E-01  8.50000000E-01  8.50000000E-01  8.50000000E-01
  8.00000000E-01  8.50000000E-01  8.50000000E-01  8.50000000E-01  8.00000000E-01
  8.50000000E-01  8.50000000E-01  8.50000000E-01  8.00000000E-01  8.50000000E-01
  8.50000000E-01  8.50000000E-01  8.00000000E-01  8.50000000E-01  8.50000000E-01
  8.50000000E-01  8.00000000E-01  8.50000000E-01  8.50000000E-01  8.50000000E-01
  8.00000000E-01  8.50000000E-01  8.50000000E-01  8.50000000E-01  8.00000000E-01
  8.50000000E-01  8.50000000E-01  8.50000000E-01  8.00000000E-01  8.50000000E-01
  8.50000000E-01  8.50000000E-01  8.00000000E-01  8.50000000E-01  8.50000000E-01
  8.50000000E-01  8.00000000E-01  8.50000000E-01  8.50000000E-01  8.50000000E-01
  8.00000000E-01  8.50000000E-01  8.50000000E-01  8.50000000E-01  8.00000000E-01
  8.50000000E-01  8.50000000E-01  8.50000000E-01  8.00000000E-01  8.50000000E-01
  8.50000000E-01  8.50000000E-01  8.00000000E-01  8.50000000E-01  8.50000000E-01
  8.50000000E-01  8.00000000E-01  8.50000000E-01  8.50000000E-01  8.50000000E-01
  8.00000000E-01  8.50000000E-01  8.50000000E-01  8.50000000E-01  8.00000000E-01
  8.50000000E-01  8.50000000E-01  8.50000000E-01  8.00000000E-01  8.50000000E-01
  8.50000000E-01  8.50000000E-01  8.00000000E-01  8.50000000E-01  8.50000000E-01
  8.50000000E-01  8.00000000E-01  8.50000000E-01  8.50000000E-01  8.50000000E-01
  8.00000000E-01  8.50000000E-01  8.50000000E-01  8.50000000E-01  8.00000000E-01
  8.50000000E-01  8.50000000E-01  8.50000000E-01  8.00000000E-01  8.50000000E-01
  8.50000000E-01  8.50000000E-01  8.00000000E-01  8.50000000E-01  8.50000000E-01
  8.50000000E-01  8.00000000E-01  8.50000000E-01  8.50000000E-01  8.50000000E-01
  8.00000000E-01  8.50000000E-01  8.50000000E-01  8.50000000E-01  8.00000000E-01
  8.50000000E-01  8.50000000E-01  8.50000000E-01  8.00000000E-01  8.50000000E-01
  8.50000000E-01  8.50000000E-01  8.00000000E-01  8.50000000E-01  8.50000000E-01
  8.50000000E-01  8.00000000E-01  8.50000000E-01  8.50000000E-01  8.50000000E-01
  8.00000000E-01  8.50000000E-01  8.50000000E-01  8.50000000E-01  8.00000000E-01
  8.50000000E-01  8.50000000E-01  8.50000000E-01  8.00000000E-01  8.50000000E-01
  8.50000000E-01  8.50000000E-01  8.00000000E-01  8.50000000E-01  8.50000000E-01
  8.50000000E-01  8.00000000E-01  8.50000000E-01  8.50000000E-01  8.50000000E-01
  8.00000000E-01  8.50000000E-01  8.50000000E-01  8.50000000E-01  8.00000000E-01
  8.50000000E-01  8.50000000E-01  8.50000000E-01  8.00000000E-01  8.50000000E-01
  8.50000000E-01  8.50000000E-01  8.00000000E-01  8.50000000E-01  8.50000000E-01
  8.50000000E-01  8.00000000E-01  8.50000000E-01  8.50000000E-01  8.50000000E-01
  8.00000000E-01  8.50000000E-01  8.50000000E-01  8.50000000E-01  8.00000000E-01
  8.50000000E-01  8.50000000E-01  8.50000000E-01  8.00000000E-01  8.50000000E-01
  8.50000000E-01  8.50000000E-01  8.00000000E-01  8.50000000E-01  8.50000000E-01
  8.50000000E-01  8.00000000E-01  8.50000000E-01  8.50000000E-01  8.50000000E-01
  8.00000000E-01  8.50000000E-01  8.50000000E-01  8.50000000E-01  8.00000000E-01
  8.50000000E-01  8.50000000E-01  8.50000000E-01  8.00000000E-01  8.50000000E-01
  8.50000000E-01  8.50000000E-01  8.00000000E-01  8.50000000E-01  8.50000000E-01
  8.50000000E-01  8.00000000E-01  8.50000000E-01  8.50000000E-01  8.50000000E-01
  8.00000000E-01  8.50000000E-01  8.50000000E-01  8.50000000E-01  8.00000000E-01
  8.50000000E-01  8.50000000E-01  8.50000000E-01  8.00000000E-01  8.50000000E-01
  8.50000000E-01  8.50000000E-01  8.00000000E-01  8.50000000E-01  8.50000000E-01
  8.50000000E-01  8.00000000E-01  8.50000000E-01  8.50000000E-01  8.50000000E-01
  8.00000000E-01  8.50000000E-01  8.50000000E-01  8.50000000E-01  8.00000000E-01
  8.50000000E-01  8.50000000E-01  8.50000000E-01  8.00000000E-01  8.50000000E-01
  8.50000000E-01  8.50000000E-01  8.00000000E-01  8.50000000E-01  8.50000000E-01
  8.50000000E-01  8.00000000E-01  8.50000000E-01  8.50000000E-01  8.50000000E-01
  8.00000000E-01  8.50000000E-01  8.50000000E-01  8.50000000E-01  8.00000000E-01
  8.50000000E-01  8.50000000E-01  8.50000000E-01  8.00000000E-01  8.50000000E-01
  8.50000000E-01  8.50000000E-01  8.00000000E-01  8.50000000E-01  8.50000000E-01
  8.50000000E-01  8.00000000E-01  8.50000000E-01  8.50000000E-01  8.50000000E-01
  8.00000000E-01  8.50000000E-01  8.50000000E-01  8.50000000E-01  8.00000000E-01
  8.50000000E-01  8.50000000E-01  8.50000000E-01  8.00000000E-01  8.50000000E-01
  8.50000000E-01  8.50000000E-01  8.00000000E-01  8.50000000E-01  8.50000000E-01
  8.50000000E-01  8.00000000E-01  8.50000000E-01  8.50000000E-01  8.50000000E-01
  8.00000000E-01  8.50000000E-01  8.50000000E-01  8.50000000E-01  8.00000000E-01
  8.50000000E-01  8.50000000E-01  8.50000000E-01  8.00000000E-01  8.50000000E-01
  8.50000000E-01  8.50000000E-01  8.00000000E-01  8.50000000E-01  8.50000000E-01
  8.50000000E-01  8.00000000E-01  8.50000000E-01  8.50000000E-01  8.50000000E-01
  8.00000000E-01  8.50000000E-01  8.50000000E-01  8.50000000E-01  8.00000000E-01
  8.50000000E-01  8.50000000E-01  8.50000000E-01  8.00000000E-01  8.50000000E-01
  8.50000000E-01  8.50000000E-01  8.00000000E-01  8.50000000E-01  8.50000000E-01
  8.50000000E-01  8.00000000E-01  8.50000000E-01  8.50000000E-01  8.50000000E-01
  8.00000000E-01  8.50000000E-01  8.50000000E-01  8.50000000E-01  8.00000000E-01
  8.50000000E-01  8.50000000E-01  8.50000000E-01  8.00000000E-01  8.50000000E-01
  8.50000000E-01  8.50000000E-01  8.00000000E-01  8.50000000E-01  8.50000000E-01
  8.50000000E-01  8.00000000E-01  8.50000000E-01  8.50000000E-01  8.50000000E-01
  8.00000000E-01  8.50000000E-01  8.50000000E-01  8.50000000E-01  8.00000000E-01
  8.50000000E-01  8.50000000E-01  8.50000000E-01  8.00000000E-01  8.50000000E-01
  8.50000000E-01  8.50000000E-01  8.00000000E-01  8.50000000E-01  8.50000000E-01
  8.50000000E-01  8.00000000E-01  8.50000000E-01  8.50000000E-01  8.50000000E-01
  8.00000000E-01  8.50000000E-01  8.50000000E-01  8.50000000E-01  8.00000000E-01
  8.50000000E-01  8.50000000E-01  8.50000000E-01  8.00000000E-01  8.50000000E-01
  8.50000000E-01  8.50000000E-01  8.00000000E-01  8.50000000E-01  8.50000000E-01
  8.50000000E-01  8.00000000E-01  8.50000000E-01  8.50000000E-01  8.50000000E-01
  8.00000000E-01  8.50000000E-01  8.50000000E-01  8.50000000E-01  8.00000000E-01
  8.50000000E-01  8.50000000E-01  8.50000000E-01  8.00000000E-01  8.50000000E-01
  8.50000000E-01  8.50000000E-01  8.00000000E-01  8.50000000E-01  8.50000000E-01
  8.50000000E-01  8.00000000E-01  8.50000000E-01  8.50000000E-01  8.50000000E-01
  8.00000000E-01  8.50000000E-01  8.50000000E-01  8.50000000E-01  8.00000000E-01
  8.50000000E-01  8.50000000E-01  8.50000000E-01  8.00000000E-01  8.50000000E-01
  8.50000000E-01  8.50000000E-01  8.00000000E-01  8.50000000E-01  8.50000000E-01
  8.50000000E-01  8.00000000E-01  8.50000000E-01  8.50000000E-01  8.50000000E-01
  8.00000000E-01  8.50000000E-01  8.50000000E-01  8.50000000E-01  8.00000000E-01
  8.50000000E-01  8.50000000E-01  8.50000000E-01  8.00000000E-01  8.50000000E-01
  8.50000000E-01  8.50000000E-01  8.00000000E-01  8.50000000E-01  8.50000000E-01
  8.50000000E-01  8.00000000E-01  8.50000000E-01  8.50000000E-01  8.50000000E-01
  8.00000000E-01  8.50000000E-01  8.50000000E-01  8.50000000E-01  8.00000000E-01
  8.50000000E-01  8.50000000E-01  8.50000000E-01  8.00000000E-01  8.50000000E-01
  8.50000000E-01  8.50000000E-01  8.00000000E-01  8.50000000E-01  8.50000000E-01
  8.50000000E-01  8.00000000E-01  8.50000000E-01  8.50000000E-01  8.50000000E-01
  8.00000000E-01  8.50000000E-01  8.50000000E-01  8.50000000E-01  8.00000000E-01
  8.50000000E-01  8.50000000E-01  8.50000000E-01  8.00000000E-01  8.50000000E-01
  8.50000000E-01  8.50000000E-01  8.00000000E-01  8.50000000E-01  8.50000000E-01
  8.50000000E-01  8.00000000E-01  8.50000000E-01  8.50000000E-01  8.50000000E-01
  8.00000000E-01  8.50000000E-01  8.50000000E-01  8.50000000E-01  8.00000000E-01
  8.50000000E-01  8.50000000E-01  8.50000000E-01  8.00000000E-01  8.50000000E-01
  8.50000000E-01  8.50000000E-01  8.00000000E-01  8.50000000E-01  8.50000000E-01
  8.50000000E-01  8.00000000E-01  8.50000000E-01  8.50000000E-01  8.50000000E-01
  8.00000000E-01  8.50000000E-01  8.50000000E-01  8.50000000E-01  8.00000000E-01
  8.50000000E-01  8.50000000E-01  8.50000000E-01  8.00000000E-01  8.50000000E-01
  8.50000000E-01  8.50000000E-01  8.00000000E-01  8.50000000E-01  8.50000000E-01
  8.50000000E-01  8.00000000E-01  8.50000000E-01  8.50000000E-01  8.50000000E-01
  8.00000000E-01  8.50000000E-01  8.50000000E-01  8.50000000E-01  8.00000000E-01
  8.50000000E-01  8.50000000E-01  8.50000000E-01  8.00000000E-01  8.50000000E-01
  8.50000000E-01  8.50000000E-01  8.00000000E-01  8.50000000E-01  8.50000000E-01
  8.50000000E-01  8.00000000E-01  8.50000000E-01  8.50000000E-01  8.50000000E-01
  8.00000000E-01  8.50000000E-01  8.50000000E-01  8.50000000E-01  8.00000000E-01
  8.50000000E-01  8.50000000E-01  8.50000000E-01  8.00000000E-01  8.50000000E-01
  8.50000000E-01  8.50000000E-01  8.00000000E-01  8.50000000E-01  8.50000000E-01
  8.50000000E-01  8.00000000E-01  8.50000000E-01  8.50000000E-01  8.50000000E-01
  8.00000000E-01  8.50000000E-01  8.50000000E-01  8.50000000E-01  8.00000000E-01
  8.50000000E-01  8.50000000E-01  8.50000000E-01  8.00000000E-01  8.50000000E-01
  8.50000000E-01  8.50000000E-01  8.00000000E-01  8.50000000E-01  8.50000000E-01
  8.50000000E-01  8.00000000E-01  8.50000000E-01  8.50000000E-01  8.50000000E-01
  8.00000000E-01  8.50000000E-01  8.50000000E-01  8.50000000E-01  8.00000000E-01
  8.50000000E-01  8.50000000E-01  8.50000000E-01  8.00000000E-01  8.50000000E-01
  8.50000000E-01  8.50000000E-01  8.00000000E-01  8.50000000E-01  8.50000000E-01
  8.50000000E-01  8.00000000E-01  8.50000000E-01  8.50000000E-01  8.50000000E-01
  8.00000000E-01  8.50000000E-01  8.50000000E-01  8.50000000E-01  8.00000000E-01
  8.50000000E-01  8.50000000E-01  8.50000000E-01  8.00000000E-01  8.50000000E-01
  8.50000000E-01  8.50000000E-01  8.00000000E-01  8.50000000E-01  8.50000000E-01
  8.50000000E-01  8.00000000E-01  8.50000000E-01  8.50000000E-01  8.50000000E-01
  8.00000000E-01  8.50000000E-01  8.50000000E-01  8.50000000E-01  8.00000000E-01
  8.50000000E-01  8.50000000E-01  8.50000000E-01  8.00000000E-01  8.50000000E-01
  8.50000000E-01  8.50000000E-01  8.00000000E-01  8.50000000E-01  8.50000000E-01
  8.50000000E-01  8.00000000E-01  8.50000000E-01  8.50000000E-01  8.50000000E-01
  8.00000000E-01  8.50000000E-01  8.50000000E-01  8.50000000E-01  8.00000000E-01
  8.50000000E-01  8.50000000E-01  8.50000000E-01  8.00000000E-01  8.50000000E-01
  8.50000000E-01  8.50000000E-01  8.00000000E-01  8.50000000E-01  8.50000000E-01
  8.50000000E-01  8.00000000E-01  8.50000000E-01  8.50000000E-01  8.50000000E-01
  8.00000000E-01  8.50000000E-01  8.50000000E-01  8.50000000E-01  8.00000000E-01
  8.50000000E-01  8.50000000E-01  8.50000000E-01  8.00000000E-01  8.50000000E-01
  8.50000000E-01  8.50000000E-01  8.00000000E-01  8.50000000E-01  8.50000000E-01
  8.50000000E-01  8.00000000E-01  8.50000000E-01  8.50000000E-01  8.50000000E-01
  8.00000000E-01  8.50000000E-01  8.50000000E-01  8.50000000E-01  8.00000000E-01
  8.50000000E-01  8.50000000E-01  8.50000000E-01  8.00000000E-01  8.50000000E-01
  8.50000000E-01  8.50000000E-01  8.00000000E-01  8.50000000E-01  8.50000000E-01
  8.50000000E-01  8.00000000E-01  8.50000000E-01  8.50000000E-01  8.50000000E-01
  8.00000000E-01  8.50000000E-01  8.50000000E-01  8.50000000E-01  8.00000000E-01
  8.50000000E-01  8.50000000E-01  8.50000000E-01  8.00000000E-01  8.50000000E-01
  8.50000000E-01  8.50000000E-01  8.00000000E-01  8.50000000E-01  8.50000000E-01
  8.50000000E-01  8.00000000E-01  8.50000000E-01  8.50000000E-01  8.50000000E-01
  8.00000000E-01  8.50000000E-01  8.50000000E-01  8.50000000E-01  8.00000000E-01
  8.50000000E-01  8.50000000E-01  8.50000000E-01  8.00000000E-01  8.50000000E-01
  8.50000000E-01  8.50000000E-01  8.00000000E-01  8.50000000E-01  8.50000000E-01
  8.50000000E-01  8.00000000E-01  8.50000000E-01  8.50000000E-01  8.50000000E-01
  8.00000000E-01  8.50000000E-01  8.50000000E-01  8.50000000E-01  8.00000000E-01
  8.50000000E-01  8.50000000E-01  8.50000000E-01  8.00000000E-01  8.50000000E-01
  8.50000000E-01  8.50000000E-01  8.00000000E-01  8.50000000E-01  8.50000000E-01
  8.50000000E-01  8.00000000E-01  8.50000000E-01  8.50000000E-01  8.50000000E-01
  8.00000000E-01  8.50000000E-01  8.50000000E-01  8.50000000E-01  8.00000000E-01
  8.50000000E-01  8.50000000E-01  8.50000000E-01  8.00000000E-01  8.50000000E-01
  8.50000000E-01  8.50000000E-01  8.00000000E-01  8.50000000E-01  8.50000000E-01
  8.50000000E-01  8.00000000E-01  8.50000000E-01  8.50000000E-01  8.50000000E-01
  8.00000000E-01  8.50000000E-01  8.50000000E-01  8.50000000E-01  8.00000000E-01
  8.50000000E-01  8.50000000E-01  8.50000000E-01  8.00000000E-01  8.50000000E-01
  8.50000000E-01  8.50000000E-01  8.00000000E-01  8.50000000E-01  8.50000000E-01
  8.50000000E-01  8.00000000E-01  8.50000000E-01  8.50000000E-01  8.50000000E-01
  8.00000000E-01  8.50000000E-01  8.50000000E-01  8.50000000E-01  8.00000000E-01
  8.50000000E-01  8.50000000E-01  8.50000000E-01  8.00000000E-01  8.50000000E-01
  8.50000000E-01  8.50000000E-01  8.00000000E-01  8.50000000E-01  8.50000000E-01
  8.50000000E-01  8.00000000E-01  8.50000000E-01  8.50000000E-01  8.50000000E-01
  8.00000000E-01  8.50000000E-01  8.50000000E-01  8.50000000E-01  8.00000000E-01
  8.50000000E-01  8.50000000E-01  8.50000000E-01  8.00000000E-01  8.50000000E-01
  8.50000000E-01  8.50000000E-01  8.00000000E-01  8.50000000E-01  8.50000000E-01
  8.50000000E-01  8.00000000E-01  8.50000000E-01  8.50000000E-01  8.50000000E-01
  8.00000000E-01  8.50000000E-01  8.50000000E-01  8.50000000E-01  8.00000000E-01
  8.50000000E-01  8.50000000E-01  8.50000000E-01  8.00000000E-01  8.50000000E-01
  8.50000000E-01  8.50000000E-01  8.00000000E-01  8.50000000E-01  8.50000000E-01
  8.50000000E-01  8.00000000E-01  8.50000000E-01  8.50000000E-01  8.50000000E-01
  8.00000000E-01  8.50000000E-01  8.50000000E-01  8.50000000E-01  8.00000000E-01
  8.50000000E-01  8.50000000E-01  8.50000000E-01  8.00000000E-01  8.50000000E-01
  8.50000000E-01  8.50000000E-01  8.00000000E-01  8.50000000E-01  8.50000000E-01
  8.50000000E-01  8.00000000E-01  8.50000000E-01  8.50000000E-01  8.50000000E-01
  8.00000000E-01  8.50000000E-01  8.50000000E-01  8.50000000E-01  8.00000000E-01
  8.50000000E-01  8.50000000E-01  8.50000000E-01  8.00000000E-01  8.50000000E-01
  8.50000000E-01  8.50000000E-01  8.00000000E-01  8.50000000E-01  8.50000000E-01
  8.50000000E-01  8.00000000E-01  8.50000000E-01  8.50000000E-01  8.50000000E-01
  8.00000000E-01  8.50000000E-01  8.50000000E-01  8.50000000E-01  8.00000000E-01
  8.50000000E-01  8.50000000E-01  8.50000000E-01  8.00000000E-01  8.50000000E-01
  8.50000000E-01  8.50000000E-01  8.00000000E-01  8.50000000E-01  8.50000000E-01
  8.50000000E-01  8.00000000E-01  8.50000000E-01  8.50000000E-01  8.50000000E-01
  8.00000000E-01  8.50000000E-01  8.50000000E-01  8.50000000E-01  8.00000000E-01
  8.50000000E-01  8.50000000E-01  8.50000000E-01  8.00000000E-01  8.50000000E-01
  8.50000000E-01  8.50000000E-01  8.00000000E-01  8.50000000E-01  8.50000000E-01
  8.50000000E-01  8.00000000E-01  8.50000000E-01  8.50000000E-01  8.50000000E-01
  8.00000000E-01  8.50000000E-01  8.50000000E-01  8.50000000E-01  8.00000000E-01
  8.50000000E-01  8.50000000E-01  8.50000000E-01  8.00000000E-01  8.50000000E-01
  8.50000000E-01  8.50000000E-01  8.00000000E-01  8.50000000E-01  8.50000000E-01
  8.50000000E-01  8.00000000E-01  8.50000000E-01  8.50000000E-01  8.50000000E-01
  8.00000000E-01  8.50000000E-01  8.50000000E-01  8.50000000E-01  8.00000000E-01
  8.50000000E-01  8.50000000E-01  8.50000000E-01  8.00000000E-01  8.50000000E-01
  8.50000000E-01  8.50000000E-01  8.00000000E-01  8.50000000E-01  8.50000000E-01
  8.50000000E-01  8.00000000E-01  8.50000000E-01  8.50000000E-01  8.50000000E-01
  8.00000000E-01  8.50000000E-01  8.50000000E-01  8.50000000E-01  8.00000000E-01
  8.50000000E-01  8.50000000E-01  8.50000000E-01  8.00000000E-01  8.50000000E-01
  8.50000000E-01  8.50000000E-01  8.00000000E-01  8.50000000E-01  8.50000000E-01
  8.50000000E-01  8.00000000E-01  8.50000000E-01  8.50000000E-01  8.50000000E-01
  8.00000000E-01  8.50000000E-01  8.50000000E-01  8.50000000E-01  8.00000000E-01
  8.50000000E-01  8.50000000E-01  8.50000000E-01  8.00000000E-01  8.50000000E-01
  8.50000000E-01  8.50000000E-01  8.00000000E-01  8.50000000E-01  8.50000000E-01
  8.50000000E-01  8.00000000E-01  8.50000000E-01  8.50000000E-01  8.50000000E-01
  8.00000000E-01  8.50000000E-01  8.50000000E-01  8.50000000E-01  8.00000000E-01
  8.50000000E-01  8.50000000E-01  8.50000000E-01  8.00000000E-01  8.50000000E-01
  8.50000000E-01  8.50000000E-01  8.00000000E-01  8.50000000E-01  8.50000000E-01
  8.50000000E-01  8.00000000E-01  8.50000000E-01  8.50000000E-01  8.50000000E-01
  8.00000000E-01  8.50000000E-01  8.50000000E-01  8.50000000E-01  8.00000000E-01
  8.50000000E-01  8.50000000E-01  8.50000000E-01  8.00000000E-01  8.50000000E-01
  8.50000000E-01  8.50000000E-01  8.00000000E-01  8.50000000E-01  8.50000000E-01
  8.50000000E-01  8.00000000E-01  8.50000000E-01  8.50000000E-01  8.50000000E-01
  8.00000000E-01  8.50000000E-01  8.50000000E-01  8.50000000E-01  8.00000000E-01
  8.50000000E-01  8.50000000E-01  8.50000000E-01  8.00000000E-01  8.50000000E-01
  8.50000000E-01  8.50000000E-01  8.00000000E-01  8.50000000E-01  8.50000000E-01
  8.50000000E-01  8.00000000E-01  8.50000000E-01  8.50000000E-01  8.50000000E-01
  8.00000000E-01  8.50000000E-01  8.50000000E-01  8.50000000E-01  8.00000000E-01
  8.50000000E-01  8.50000000E-01  8.50000000E-01  8.00000000E-01  8.50000000E-01
  8.50000000E-01  8.50000000E-01  8.00000000E-01  8.50000000E-01  8.50000000E-01
  8.50000000E-01  8.00000000E-01  8.50000000E-01  8.50000000E-01  8.50000000E-01
  8.00000000E-01  8.50000000E-01  8.50000000E-01  8.50000000E-01  8.00000000E-01
  8.50000000E-01  8.50000000E-01  8.50000000E-01  8.00000000E-01  8.50000000E-01
  8.50000000E-01  8.50000000E-01  8.00000000E-01  8.50000000E-01  8.50000000E-01
  8.50000000E-01  8.00000000E-01  8.50000000E-01  8.50000000E-01  8.50000000E-01
  8.00000000E-01  8.50000000E-01  8.50000000E-01  8.50000000E-01  8.00000000E-01
  8.50000000E-01  8.50000000E-01  8.50000000E-01  8.00000000E-01  8.50000000E-01
  8.50000000E-01  8.50000000E-01  8.00000000E-01  8.50000000E-01  8.50000000E-01
  8.50000000E-01  8.00000000E-01  8.50000000E-01  8.50000000E-01  8.50000000E-01
  8.00000000E-01  8.50000000E-01  8.50000000E-01  8.50000000E-01  8.00000000E-01
  8.50000000E-01  8.50000000E-01  8.50000000E-01  8.00000000E-01  8.50000000E-01
  8.50000000E-01  8.50000000E-01  8.00000000E-01  8.50000000E-01  8.50000000E-01
  8.50000000E-01  8.00000000E-01  8.50000000E-01  8.50000000E-01  8.50000000E-01
  8.00000000E-01  8.50000000E-01  8.50000000E-01  8.50000000E-01  8.00000000E-01
  8.50000000E-01  8.50000000E-01  8.50000000E-01  8.00000000E-01  8.50000000E-01
  8.50000000E-01  8.50000000E-01  8.00000000E-01  8.50000000E-01  8.50000000E-01
  8.50000000E-01  8.00000000E-01  8.50000000E-01  8.50000000E-01  8.50000000E-01
  8.00000000E-01  8.50000000E-01  8.50000000E-01  8.50000000E-01  8.00000000E-01
  8.50000000E-01  8.50000000E-01  8.50000000E-01  8.00000000E-01  8.50000000E-01
  8.50000000E-01  8.50000000E-01  8.00000000E-01  8.50000000E-01  8.50000000E-01
  8.50000000E-01  8.00000000E-01  8.50000000E-01  8.50000000E-01  8.50000000E-01
  8.00000000E-01  8.50000000E-01  8.50000000E-01  8.50000000E-01  8.00000000E-01
  8.50000000E-01  8.50000000E-01  8.50000000E-01  8.00000000E-01  8.50000000E-01
  8.50000000E-01  8.50000000E-01  8.00000000E-01  8.50000000E-01  8.50000000E-01
  8.50000000E-01  8.00000000E-01  8.50000000E-01  8.50000000E-01  8.50000000E-01
  8.00000000E-01  8.50000000E-01  8.50000000E-01  8.50000000E-01  8.00000000E-01
  8.50000000E-01  8.50000000E-01  8.50000000E-01  8.00000000E-01  8.50000000E-01
  8.50000000E-01  8.50000000E-01  8.00000000E-01  8.50000000E-01  8.50000000E-01
  8.50000000E-01  8.00000000E-01  8.50000000E-01  8.50000000E-01  8.50000000E-01
  8.00000000E-01  8.50000000E-01  8.50000000E-01  8.50000000E-01  8.00000000E-01
  8.50000000E-01  8.50000000E-01  8.50000000E-01  8.00000000E-01  8.50000000E-01
  8.50000000E-01  8.50000000E-01  8.00000000E-01  8.50000000E-01  8.50000000E-01
  8.50000000E-01  8.00000000E-01  8.50000000E-01  8.50000000E-01  8.50000000E-01
  8.00000000E-01  8.50000000E-01  8.50000000E-01  8.50000000E-01  8.00000000E-01
  8.50000000E-01  8.50000000E-01  8.50000000E-01  8.00000000E-01  8.50000000E-01
  8.50000000E-01  8.50000000E-01  8.00000000E-01  8.50000000E-01  8.50000000E-01
  8.50000000E-01  8.00000000E-01  8.50000000E-01  8.50000000E-01  8.50000000E-01
  8.00000000E-01  8.50000000E-01  8.50000000E-01  8.50000000E-01  8.00000000E-01
  8.50000000E-01  8.50000000E-01  8.50000000E-01  8.00000000E-01  8.50000000E-01
  8.50000000E-01  8.50000000E-01  8.00000000E-01  8.50000000E-01  8.50000000E-01
  8.50000000E-01  8.00000000E-01  8.50000000E-01  8.50000000E-01  8.50000000E-01
  8.00000000E-01  8.50000000E-01  8.50000000E-01  8.50000000E-01  8.00000000E-01
  8.50000000E-01  8.50000000E-01  8.50000000E-01  8.00000000E-01  8.50000000E-01
  8.50000000E-01  8.50000000E-01  8.00000000E-01  8.50000000E-01  8.50000000E-01
  8.50000000E-01  8.00000000E-01  8.50000000E-01  8.50000000E-01  8.50000000E-01
  8.00000000E-01  8.50000000E-01  8.50000000E-01  8.50000000E-01  8.00000000E-01
  8.50000000E-01  8.50000000E-01  8.50000000E-01  8.00000000E-01  8.50000000E-01
  8.50000000E-01  8.50000000E-01  8.00000000E-01  8.50000000E-01  8.50000000E-01
  8.50000000E-01  8.00000000E-01  8.50000000E-01  8.50000000E-01  8.50000000E-01
  8.00000000E-01  8.50000000E-01  8.50000000E-01  8.50000000E-01  8.00000000E-01
  8.50000000E-01  8.50000000E-01  8.50000000E-01  8.00000000E-01  8.50000000E-01
  8.50000000E-01  8.50000000E-01  8.00000000E-01  8.50000000E-01  8.50000000E-01
  8.50000000E-01  8.00000000E-01  8.50000000E-01  8.50000000E-01  8.50000000E-01
  8.00000000E-01  8.50000000E-01  8.50000000E-01  8.50000000E-01  8.00000000E-01
  8.50000000E-01  8.50000000E-01  8.50000000E-01  8.00000000E-01  8.50000000E-01
  8.50000000E-01  8.50000000E-01  8.00000000E-01  8.50000000E-01  8.50000000E-01
  8.50000000E-01  8.00000000E-01  8.50000000E-01  8.50000000E-01  8.50000000E-01
  8.00000000E-01  8.50000000E-01  8.50000000E-01  8.50000000E-01  8.00000000E-01
  8.50000000E-01  8.50000000E-01  8.50000000E-01  8.00000000E-01  8.50000000E-01
  8.50000000E-01  8.50000000E-01  8.00000000E-01  8.50000000E-01  8.50000000E-01
  8.50000000E-01  8.00000000E-01  8.50000000E-01  8.50000000E-01  8.50000000E-01
  8.00000000E-01  8.50000000E-01  8.50000000E-01  8.50000000E-01  8.00000000E-01
  8.50000000E-01  8.50000000E-01  8.50000000E-01  8.00000000E-01  8.50000000E-01
  8.50000000E-01  8.50000000E-01  8.00000000E-01  8.50000000E-01  8.50000000E-01
  8.50000000E-01  8.00000000E-01  8.50000000E-01  8.50000000E-01  8.50000000E-01
  8.00000000E-01  8.50000000E-01  8.50000000E-01  8.50000000E-01  8.00000000E-01
  8.50000000E-01  8.50000000E-01  8.50000000E-01  8.00000000E-01  8.50000000E-01
  8.50000000E-01  8.50000000E-01  8.00000000E-01  8.50000000E-01  8.50000000E-01
  8.50000000E-01  8.00000000E-01  8.50000000E-01  8.50000000E-01  8.50000000E-01
  8.00000000E-01  8.50000000E-01  8.50000000E-01  8.50000000E-01  8.00000000E-01
  8.50000000E-01  8.50000000E-01  8.50000000E-01  8.00000000E-01  8.50000000E-01
  8.50000000E-01  8.50000000E-01  8.00000000E-01  8.50000000E-01  8.50000000E-01
  8.50000000E-01  8.00000000E-01  8.50000000E-01  8.50000000E-01  8.50000000E-01
  8.00000000E-01  8.50000000E-01  8.50000000E-01  8.50000000E-01  8.00000000E-01
  8.50000000E-01  8.50000000E-01  8.50000000E-01  8.00000000E-01  8.50000000E-01
  8.50000000E-01  8.50000000E-01  8.00000000E-01  8.50000000E-01  8.50000000E-01
  8.50000000E-01  8.00000000E-01  8.50000000E-01  8.50000000E-01  8.50000000E-01
  8.00000000E-01  8.50000000E-01  8.50000000E-01  8.50000000E-01  8.00000000E-01
  8.50000000E-01  8.50000000E-01  8.50000000E-01  8.00000000E-01  8.50000000E-01
  8.50000000E-01  8.50000000E-01  8.00000000E-01  8.50000000E-01  8.50000000E-01
  8.50000000E-01  8.00000000E-01  8.50000000E-01  8.50000000E-01  8.50000000E-01
  8.00000000E-01  8.50000000E-01  8.50000000E-01  8.50000000E-01  8.00000000E-01
  8.50000000E-01  8.50000000E-01  8.50000000E-01  8.00000000E-01  8.50000000E-01
  8.50000000E-01  8.50000000E-01  8.00000000E-01  8.50000000E-01  8.50000000E-01
  8.50000000E-01  8.00000000E-01  8.50000000E-01  8.50000000E-01  8.50000000E-01
  8.00000000E-01  8.50000000E-01  8.50000000E-01  8.50000000E-01  8.00000000E-01
  8.50000000E-01  8.50000000E-01  8.50000000E-01  8.00000000E-01  8.50000000E-01
  8.50000000E-01  8.50000000E-01  8.00000000E-01  8.50000000E-01  8.50000000E-01
  8.50000000E-01  8.00000000E-01  8.50000000E-01  8.50000000E-01  8.50000000E-01
  8.00000000E-01  8.50000000E-01  8.50000000E-01  8.50000000E-01  8.00000000E-01
  8.50000000E-01  8.50000000E-01  8.50000000E-01  8.00000000E-01  8.50000000E-01
  8.50000000E-01  8.50000000E-01  8.00000000E-01  8.50000000E-01  8.50000000E-01
  8.50000000E-01  8.00000000E-01  8.50000000E-01  8.50000000E-01  8.50000000E-01
  8.00000000E-01  8.50000000E-01  8.50000000E-01  8.50000000E-01  8.00000000E-01
  8.50000000E-01  8.50000000E-01  8.50000000E-01  8.00000000E-01  8.50000000E-01
  8.50000000E-01  8.50000000E-01  8.00000000E-01  8.50000000E-01  8.50000000E-01
  8.50000000E-01  8.00000000E-01  8.50000000E-01  8.50000000E-01  8.50000000E-01
  8.00000000E-01  8.50000000E-01  8.50000000E-01  8.50000000E-01  8.00000000E-01
  8.50000000E-01  8.50000000E-01  8.50000000E-01  8.00000000E-01  8.50000000E-01
  8.50000000E-01  8.50000000E-01  8.00000000E-01  8.50000000E-01  8.50000000E-01
  8.50000000E-01  8.00000000E-01  8.50000000E-01  8.50000000E-01  8.50000000E-01
  8.00000000E-01  8.50000000E-01  8.50000000E-01  8.50000000E-01  8.00000000E-01
  8.50000000E-01  8.50000000E-01  8.50000000E-01  8.00000000E-01  8.50000000E-01
  8.50000000E-01  8.50000000E-01  8.00000000E-01  8.50000000E-01  8.50000000E-01
  8.50000000E-01  8.00000000E-01  8.50000000E-01  8.50000000E-01  8.50000000E-01
  8.00000000E-01  8.50000000E-01  8.50000000E-01  8.50000000E-01  8.00000000E-01
  8.50000000E-01  8.50000000E-01  8.50000000E-01  8.00000000E-01  8.50000000E-01
  8.50000000E-01  8.50000000E-01  8.00000000E-01  8.50000000E-01  8.50000000E-01
  8.50000000E-01  8.00000000E-01  8.50000000E-01  8.50000000E-01  8.50000000E-01
  8.00000000E-01  8.50000000E-01  8.50000000E-01  8.50000000E-01  8.00000000E-01
  8.50000000E-01  8.50000000E-01  8.50000000E-01  8.00000000E-01  8.50000000E-01
  8.50000000E-01  8.50000000E-01  8.00000000E-01  8.50000000E-01  8.50000000E-01
  8.50000000E-01  8.00000000E-01  8.50000000E-01  8.50000000E-01  8.50000000E-01
  8.00000000E-01  8.50000000E-01  8.50000000E-01  8.50000000E-01  8.00000000E-01
  8.50000000E-01  8.50000000E-01  8.50000000E-01  8.00000000E-01  8.50000000E-01
  8.50000000E-01  8.50000000E-01  8.00000000E-01  8.50000000E-01  8.50000000E-01
  8.50000000E-01  8.00000000E-01  8.50000000E-01  8.50000000E-01  8.50000000E-01
  8.00000000E-01  8.50000000E-01  8.50000000E-01  8.50000000E-01  8.00000000E-01
  8.50000000E-01  8.50000000E-01  8.50000000E-01  8.00000000E-01  8.50000000E-01
  8.50000000E-01  8.50000000E-01  8.00000000E-01  8.50000000E-01  8.50000000E-01
  8.50000000E-01  8.00000000E-01  8.50000000E-01  8.50000000E-01  8.50000000E-01
  8.00000000E-01  8.50000000E-01  8.50000000E-01  8.50000000E-01  8.00000000E-01
  8.50000000E-01  8.50000000E-01  8.50000000E-01  8.00000000E-01  8.50000000E-01
  8.50000000E-01  8.50000000E-01  8.00000000E-01  8.50000000E-01  8.50000000E-01
  8.50000000E-01  8.00000000E-01  8.50000000E-01  8.50000000E-01  8.50000000E-01
  8.00000000E-01  8.50000000E-01  8.50000000E-01  8.50000000E-01  8.00000000E-01
  8.50000000E-01  8.50000000E-01  8.50000000E-01  8.00000000E-01  8.50000000E-01
  8.50000000E-01  8.50000000E-01  8.00000000E-01  8.50000000E-01  8.50000000E-01
  8.50000000E-01  8.00000000E-01  8.50000000E-01  8.50000000E-01  8.50000000E-01
  8.00000000E-01  8.50000000E-01  8.50000000E-01  8.50000000E-01  8.00000000E-01
  8.50000000E-01  8.50000000E-01  8.50000000E-01  8.00000000E-01  8.50000000E-01
  8.50000000E-01  8.50000000E-01  8.00000000E-01  8.50000000E-01  8.50000000E-01
  8.50000000E-01  8.00000000E-01  8.50000000E-01  8.50000000E-01  8.50000000E-01
  8.00000000E-01  8.50000000E-01  8.50000000E-01  8.50000000E-01  8.00000000E-01
  8.50000000E-01  8.50000000E-01  8.50000000E-01  8.00000000E-01  8.50000000E-01
  8.50000000E-01  8.50000000E-01  8.00000000E-01  8.50000000E-01  8.50000000E-01
  8.50000000E-01  8.00000000E-01  8.50000000E-01  8.50000000E-01  8.50000000E-01
  8.00000000E-01  8.50000000E-01  8.50000000E-01  8.50000000E-01  8.00000000E-01
  8.50000000E-01  8.50000000E-01  8.50000000E-01  8.00000000E-01  8.50000000E-01
  8.50000000E-01  8.50000000E-01  8.00000000E-01  8.50000000E-01  8.50000000E-01
  8.50000000E-01  8.00000000E-01  8.50000000E-01  8.50000000E-01  8.50000000E-01
  8.00000000E-01  8.50000000E-01  8.50000000E-01  8.50000000E-01  8.00000000E-01
  8.50000000E-01  8.50000000E-01  8.50000000E-01  8.00000000E-01  8.50000000E-01
  8.50000000E-01  8.50000000E-01  8.00000000E-01  8.50000000E-01  8.50000000E-01
  8.50000000E-01  8.00000000E-01  8.50000000E-01  8.50000000E-01  8.50000000E-01
  8.00000000E-01  8.50000000E-01  8.50000000E-01  8.50000000E-01  8.00000000E-01
  8.50000000E-01  8.50000000E-01  8.50000000E-01  8.00000000E-01  8.50000000E-01
  8.50000000E-01  8.50000000E-01  8.00000000E-01  8.50000000E-01  8.50000000E-01
  8.50000000E-01  8.00000000E-01  8.50000000E-01  8.50000000E-01  8.50000000E-01
  8.00000000E-01  8.50000000E-01  8.50000000E-01  8.50000000E-01  8.00000000E-01
  8.50000000E-01  8.50000000E-01  8.50000000E-01  8.00000000E-01  8.50000000E-01
  8.50000000E-01  8.50000000E-01  8.00000000E-01  8.50000000E-01  8.50000000E-01
  8.50000000E-01  8.00000000E-01  8.50000000E-01  8.50000000E-01  8.50000000E-01
  8.00000000E-01  8.50000000E-01  8.50000000E-01  8.50000000E-01  8.00000000E-01
  8.50000000E-01  8.50000000E-01  8.50000000E-01  8.00000000E-01  8.50000000E-01
  8.50000000E-01  8.50000000E-01  8.00000000E-01  8.50000000E-01  8.50000000E-01
  8.50000000E-01  8.00000000E-01  8.50000000E-01  8.50000000E-01  8.50000000E-01
  8.00000000E-01  8.50000000E-01  8.50000000E-01  8.50000000E-01  8.00000000E-01
  8.50000000E-01  8.50000000E-01  8.50000000E-01  8.00000000E-01  8.50000000E-01
  8.50000000E-01  8.50000000E-01  8.00000000E-01  8.50000000E-01  8.50000000E-01
  8.50000000E-01  8.00000000E-01  8.50000000E-01  8.50000000E-01  8.50000000E-01
  8.00000000E-01  8.50000000E-01  8.50000000E-01  8.50000000E-01  8.00000000E-01
  8.50000000E-01  8.50000000E-01  8.50000000E-01  8.00000000E-01  8.50000000E-01
  8.50000000E-01  8.50000000E-01  8.00000000E-01  8.50000000E-01  8.50000000E-01
  8.50000000E-01  8.00000000E-01  8.50000000E-01  8.50000000E-01  8.50000000E-01
  8.00000000E-01  8.50000000E-01  8.50000000E-01  8.50000000E-01  8.00000000E-01
  8.50000000E-01  8.50000000E-01  8.50000000E-01  8.00000000E-01  8.50000000E-01
  8.50000000E-01  8.50000000E-01  8.00000000E-01  8.50000000E-01  8.50000000E-01
  8.50000000E-01  8.00000000E-01  8.50000000E-01  8.50000000E-01  8.50000000E-01
  8.00000000E-01  8.50000000E-01  8.50000000E-01  8.50000000E-01  8.00000000E-01
  8.50000000E-01  8.50000000E-01  8.50000000E-01  8.00000000E-01  8.50000000E-01
  8.50000000E-01  8.50000000E-01  8.00000000E-01  8.50000000E-01  8.50000000E-01
  8.50000000E-01  8.00000000E-01  8.50000000E-01  8.50000000E-01  8.50000000E-01
  8.00000000E-01  8.50000000E-01  8.50000000E-01  8.50000000E-01  8.00000000E-01
  8.50000000E-01  8.50000000E-01  8.50000000E-01  8.00000000E-01  8.50000000E-01
  8.50000000E-01  8.50000000E-01  8.00000000E-01  8.50000000E-01  8.50000000E-01
  8.50000000E-01  8.00000000E-01  8.50000000E-01  8.50000000E-01  8.50000000E-01
  8.00000000E-01  8.50000000E-01  8.50000000E-01  8.50000000E-01  8.00000000E-01
  8.50000000E-01  8.50000000E-01  8.50000000E-01  8.00000000E-01  8.50000000E-01
  8.50000000E-01  8.50000000E-01  8.00000000E-01  8.50000000E-01  8.50000000E-01
  8.50000000E-01  8.00000000E-01  8.50000000E-01  8.50000000E-01  8.50000000E-01
  8.00000000E-01  8.50000000E-01  8.50000000E-01  8.50000000E-01  8.00000000E-01
  8.50000000E-01  8.50000000E-01  8.50000000E-01  8.00000000E-01  8.50000000E-01
  8.50000000E-01  8.50000000E-01  8.00000000E-01  8.50000000E-01  8.50000000E-01
  8.50000000E-01  8.00000000E-01  8.50000000E-01  8.50000000E-01  8.50000000E-01
  8.00000000E-01  8.50000000E-01  8.50000000E-01  8.50000000E-01  8.00000000E-01
  8.50000000E-01  8.50000000E-01  8.50000000E-01  8.00000000E-01  8.50000000E-01
  8.50000000E-01  8.50000000E-01  8.00000000E-01  8.50000000E-01  8.50000000E-01
  8.50000000E-01  8.00000000E-01  8.50000000E-01  8.50000000E-01  8.50000000E-01
  8.00000000E-01  8.50000000E-01  8.50000000E-01  8.50000000E-01  8.00000000E-01
  8.50000000E-01  8.50000000E-01  8.50000000E-01  8.00000000E-01  8.50000000E-01
  8.50000000E-01  8.50000000E-01  8.00000000E-01  8.50000000E-01  8.50000000E-01
  8.50000000E-01  8.00000000E-01  8.50000000E-01  8.50000000E-01  8.50000000E-01
  8.00000000E-01  8.50000000E-01  8.50000000E-01  8.50000000E-01  8.00000000E-01
  8.50000000E-01  8.50000000E-01  8.50000000E-01  8.00000000E-01  8.50000000E-01
  8.50000000E-01  8.50000000E-01  8.00000000E-01  8.50000000E-01  8.50000000E-01
  8.50000000E-01  8.00000000E-01  8.50000000E-01  8.50000000E-01  8.50000000E-01
  8.00000000E-01  8.50000000E-01  8.50000000E-01  8.50000000E-01  8.00000000E-01
  8.50000000E-01  8.50000000E-01  8.50000000E-01  8.00000000E-01  8.50000000E-01
  8.50000000E-01  8.50000000E-01  8.00000000E-01  8.50000000E-01  8.50000000E-01
  8.50000000E-01  8.00000000E-01  8.50000000E-01  8.50000000E-01  8.50000000E-01
  8.00000000E-01  8.50000000E-01  8.50000000E-01  8.50000000E-01  8.00000000E-01
  8.50000000E-01  8.50000000E-01  8.50000000E-01  8.00000000E-01  8.50000000E-01
  8.50000000E-01  8.50000000E-01  8.00000000E-01  8.50000000E-01  8.50000000E-01
  8.50000000E-01  8.00000000E-01  8.50000000E-01  8.50000000E-01  8.50000000E-01
  8.00000000E-01  8.50000000E-01  8.50000000E-01  8.50000000E-01  8.00000000E-01
  8.50000000E-01  8.50000000E-01  8.50000000E-01  8.00000000E-01  8.50000000E-01
  8.50000000E-01  8.50000000E-01  8.00000000E-01  8.50000000E-01  8.50000000E-01
  8.50000000E-01  8.00000000E-01  8.50000000E-01  8.50000000E-01  8.50000000E-01
  8.00000000E-01  8.50000000E-01  8.50000000E-01  8.50000000E-01  8.00000000E-01
  8.50000000E-01  8.50000000E-01  8.50000000E-01  8.00000000E-01  8.50000000E-01
  8.50000000E-01  8.50000000E-01  8.00000000E-01  8.50000000E-01  8.50000000E-01
  8.50000000E-01  8.00000000E-01  8.50000000E-01  8.50000000E-01  8.50000000E-01
  8.00000000E-01  8.50000000E-01  8.50000000E-01  8.50000000E-01  8.00000000E-01
  8.50000000E-01  8.50000000E-01  8.50000000E-01  8.00000000E-01  8.50000000E-01
  8.50000000E-01  8.50000000E-01  8.00000000E-01  8.50000000E-01  8.50000000E-01
  8.50000000E-01  8.00000000E-01  8.50000000E-01  8.50000000E-01  8.50000000E-01
  8.00000000E-01  8.50000000E-01  8.50000000E-01  8.50000000E-01  8.00000000E-01
  8.50000000E-01  8.50000000E-01  8.50000000E-01  8.00000000E-01  8.50000000E-01
  8.50000000E-01  8.50000000E-01  8.00000000E-01  8.50000000E-01  8.50000000E-01
  8.50000000E-01  8.00000000E-01  8.50000000E-01  8.50000000E-01  8.50000000E-01
  8.00000000E-01  8.50000000E-01  8.50000000E-01  8.50000000E-01  8.00000000E-01
  8.50000000E-01  8.50000000E-01  8.50000000E-01  8.00000000E-01  8.50000000E-01
  8.50000000E-01  8.50000000E-01  8.00000000E-01  8.50000000E-01  8.50000000E-01
  8.50000000E-01  8.00000000E-01  8.50000000E-01  8.50000000E-01  8.50000000E-01
  8.00000000E-01  8.50000000E-01  8.50000000E-01  8.50000000E-01  8.00000000E-01
  8.50000000E-01  8.50000000E-01  8.50000000E-01  8.00000000E-01  8.50000000E-01
  8.50000000E-01  8.50000000E-01  8.00000000E-01  8.50000000E-01  8.50000000E-01
  8.50000000E-01  8.00000000E-01  8.50000000E-01  8.50000000E-01  8.50000000E-01
  8.00000000E-01  8.50000000E-01  8.50000000E-01  8.50000000E-01  8.00000000E-01
  8.50000000E-01  8.50000000E-01  8.50000000E-01  8.00000000E-01  8.50000000E-01
  8.50000000E-01  8.50000000E-01  8.00000000E-01  8.50000000E-01  8.50000000E-01
  8.50000000E-01  8.00000000E-01  8.50000000E-01  8.50000000E-01  8.50000000E-01
  8.00000000E-01  8.50000000E-01  8.50000000E-01  8.50000000E-01  8.00000000E-01
  8.50000000E-01  8.50000000E-01  8.50000000E-01  8.00000000E-01  8.50000000E-01
  8.50000000E-01  8.50000000E-01  8.00000000E-01  8.50000000E-01  8.50000000E-01
  8.50000000E-01  8.00000000E-01  8.50000000E-01  8.50000000E-01  8.50000000E-01
  8.00000000E-01  8.50000000E-01  8.50000000E-01  8.50000000E-01  8.00000000E-01
  8.50000000E-01  8.50000000E-01  8.50000000E-01  8.00000000E-01  8.50000000E-01
  8.50000000E-01  8.50000000E-01  8.00000000E-01  8.50000000E-01  8.50000000E-01
  8.50000000E-01  8.00000000E-01  8.50000000E-01  8.50000000E-01  8.50000000E-01
  8.00000000E-01  8.50000000E-01  8.50000000E-01  8.50000000E-01  8.00000000E-01
  8.50000000E-01  8.50000000E-01  8.50000000E-01  8.00000000E-01  8.50000000E-01
  8.50000000E-01  8.50000000E-01  8.00000000E-01  8.50000000E-01  8.50000000E-01
  8.50000000E-01  8.00000000E-01  8.50000000E-01  8.50000000E-01  8.50000000E-01
  8.00000000E-01  8.50000000E-01  8.50000000E-01  8.50000000E-01  8.00000000E-01
  8.50000000E-01  8.50000000E-01  8.50000000E-01  8.00000000E-01  8.50000000E-01
  8.50000000E-01  8.50000000E-01  8.00000000E-01  8.50000000E-01  8.50000000E-01
  8.50000000E-01  8.00000000E-01  8.50000000E-01  8.50000000E-01  8.50000000E-01
  8.00000000E-01  8.50000000E-01  8.50000000E-01  8.50000000E-01  8.00000000E-01
  8.50000000E-01  8.50000000E-01  8.50000000E-01  8.00000000E-01  8.50000000E-01
  8.50000000E-01  8.50000000E-01  8.00000000E-01  8.50000000E-01  8.50000000E-01
  8.50000000E-01  8.00000000E-01  8.50000000E-01  8.50000000E-01  8.50000000E-01
  8.00000000E-01  8.50000000E-01  8.50000000E-01  8.50000000E-01  8.00000000E-01
  8.50000000E-01  8.50000000E-01  8.50000000E-01  8.00000000E-01  8.50000000E-01
  8.50000000E-01  8.50000000E-01  8.00000000E-01  8.50000000E-01  8.50000000E-01
  8.50000000E-01  8.00000000E-01  8.50000000E-01  8.50000000E-01  8.50000000E-01
  8.00000000E-01  8.50000000E-01  8.50000000E-01  8.50000000E-01  8.00000000E-01
  8.50000000E-01  8.50000000E-01  8.50000000E-01  8.00000000E-01  8.50000000E-01
  8.50000000E-01  8.50000000E-01  8.00000000E-01  8.50000000E-01  8.50000000E-01
  8.50000000E-01  8.00000000E-01  8.50000000E-01  8.50000000E-01  8.50000000E-01
  8.00000000E-01  8.50000000E-01  8.50000000E-01  8.50000000E-01  8.00000000E-01
  8.50000000E-01  8.50000000E-01  8.50000000E-01  8.00000000E-01  8.50000000E-01
  8.50000000E-01  8.50000000E-01  8.00000000E-01  8.50000000E-01  8.50000000E-01
  8.50000000E-01  8.00000000E-01  8.50000000E-01  8.50000000E-01  8.50000000E-01
  8.00000000E-01  8.50000000E-01  8.50000000E-01  8.50000000E-01  8.00000000E-01
  8.50000000E-01  8.50000000E-01  8.50000000E-01  8.00000000E-01  8.50000000E-01
  8.50000000E-01  8.50000000E-01  8.00000000E-01  8.50000000E-01  8.50000000E-01
  8.50000000E-01  8.00000000E-01  8.50000000E-01  8.50000000E-01  8.50000000E-01
  8.00000000E-01  8.50000000E-01  8.50000000E-01  8.50000000E-01  8.00000000E-01
  8.50000000E-01  8.50000000E-01  8.50000000E-01  8.00000000E-01  8.50000000E-01
  8.50000000E-01  8.50000000E-01  8.00000000E-01  8.50000000E-01  8.50000000E-01
  8.50000000E-01  8.00000000E-01  8.50000000E-01  8.50000000E-01  8.50000000E-01
  8.00000000E-01  8.50000000E-01  8.50000000E-01  8.50000000E-01  8.00000000E-01
  8.50000000E-01  8.50000000E-01  8.50000000E-01  8.00000000E-01  8.50000000E-01
  8.50000000E-01  8.50000000E-01  8.00000000E-01  8.50000000E-01  8.50000000E-01
  8.50000000E-01  8.00000000E-01  8.50000000E-01  8.50000000E-01  8.50000000E-01
  8.00000000E-01  8.50000000E-01  8.50000000E-01  8.50000000E-01  8.00000000E-01
  8.50000000E-01  8.50000000E-01  8.50000000E-01  8.00000000E-01  8.50000000E-01
  8.50000000E-01  8.50000000E-01  8.00000000E-01  8.50000000E-01  8.50000000E-01
  8.50000000E-01  8.00000000E-01  8.50000000E-01  8.50000000E-01  8.50000000E-01
  8.00000000E-01  8.50000000E-01  8.50000000E-01  8.50000000E-01  8.00000000E-01
  8.50000000E-01  8.50000000E-01  8.50000000E-01  8.00000000E-01  8.50000000E-01
  8.50000000E-01  8.50000000E-01  8.00000000E-01  8.50000000E-01  8.50000000E-01
  8.50000000E-01  8.00000000E-01  8.50000000E-01  8.50000000E-01  8.50000000E-01
  8.00000000E-01  8.50000000E-01  8.50000000E-01  8.50000000E-01  8.00000000E-01
  8.50000000E-01  8.50000000E-01  8.50000000E-01  8.00000000E-01  8.50000000E-01
  8.50000000E-01  8.50000000E-01  8.00000000E-01  8.50000000E-01  8.50000000E-01
  8.50000000E-01  8.00000000E-01  8.50000000E-01  8.50000000E-01  8.50000000E-01
  8.00000000E-01  8.50000000E-01  8.50000000E-01  8.50000000E-01  8.00000000E-01
  8.50000000E-01  8.50000000E-01  8.50000000E-01  8.00000000E-01  8.50000000E-01
  8.50000000E-01  8.50000000E-01  8.00000000E-01  8.50000000E-01  8.50000000E-01
  8.50000000E-01  8.00000000E-01  8.50000000E-01  8.50000000E-01  8.50000000E-01
  8.00000000E-01  8.50000000E-01  8.50000000E-01  8.50000000E-01  8.00000000E-01
  8.50000000E-01  8.50000000E-01  8.50000000E-01  8.00000000E-01  8.50000000E-01
  8.50000000E-01  8.50000000E-01  8.00000000E-01  8.50000000E-01  8.50000000E-01
  8.50000000E-01  8.00000000E-01  8.50000000E-01  8.50000000E-01  8.50000000E-01
  8.00000000E-01  8.50000000E-01  8.50000000E-01  8.50000000E-01  8.00000000E-01
  8.50000000E-01  8.50000000E-01  8.50000000E-01  8.00000000E-01  8.50000000E-01
  8.50000000E-01  8.50000000E-01  8.00000000E-01  8.50000000E-01  8.50000000E-01
  8.50000000E-01  8.00000000E-01  8.50000000E-01  8.50000000E-01  8.50000000E-01
  8.00000000E-01  8.50000000E-01  8.50000000E-01  8.50000000E-01  8.00000000E-01
  8.50000000E-01  8.50000000E-01  8.50000000E-01  8.00000000E-01  8.50000000E-01
  8.50000000E-01  8.50000000E-01  8.00000000E-01  8.50000000E-01  8.50000000E-01
  8.50000000E-01  8.00000000E-01  8.50000000E-01  8.50000000E-01  8.50000000E-01
  8.00000000E-01  8.50000000E-01  8.50000000E-01  8.50000000E-01  8.00000000E-01
  8.50000000E-01  8.50000000E-01  8.50000000E-01  8.00000000E-01  8.50000000E-01
  8.50000000E-01  8.50000000E-01  8.00000000E-01  8.50000000E-01  8.50000000E-01
  8.50000000E-01  8.00000000E-01  8.50000000E-01  8.50000000E-01  8.50000000E-01
  8.00000000E-01  8.50000000E-01  8.50000000E-01  8.50000000E-01  8.00000000E-01
  8.50000000E-01  8.50000000E-01  8.50000000E-01  8.00000000E-01  8.50000000E-01
  8.50000000E-01  8.50000000E-01  8.00000000E-01  8.50000000E-01  8.50000000E-01
  8.50000000E-01  8.00000000E-01  8.50000000E-01  8.50000000E-01  8.50000000E-01
  8.00000000E-01  8.50000000E-01  8.50000000E-01  8.50000000E-01  8.00000000E-01
  8.50000000E-01  8.50000000E-01  8.50000000E-01  8.00000000E-01  8.50000000E-01
  8.50000000E-01  8.50000000E-01  8.00000000E-01  8.50000000E-01  8.50000000E-01
  8.50000000E-01  8.00000000E-01  8.50000000E-01  8.50000000E-01  8.50000000E-01
  8.00000000E-01  8.50000000E-01  8.50000000E-01  8.50000000E-01  8.00000000E-01
  8.50000000E-01  8.50000000E-01  8.50000000E-01  8.00000000E-01  8.50000000E-01
  8.50000000E-01  8.50000000E-01  8.00000000E-01  8.50000000E-01  8.50000000E-01
  8.50000000E-01  8.00000000E-01  8.50000000E-01  8.50000000E-01  8.50000000E-01
  8.00000000E-01  8.50000000E-01  8.50000000E-01  8.50000000E-01  8.00000000E-01
  8.50000000E-01  8.50000000E-01  8.50000000E-01  8.00000000E-01  8.50000000E-01
  8.50000000E-01  8.50000000E-01  8.00000000E-01  8.50000000E-01  8.50000000E-01
  8.50000000E-01  8.00000000E-01  8.50000000E-01  8.50000000E-01  8.50000000E-01
  8.00000000E-01  8.50000000E-01  8.50000000E-01  8.50000000E-01  8.00000000E-01
  8.50000000E-01  8.50000000E-01  8.50000000E-01  8.00000000E-01  8.50000000E-01
  8.50000000E-01  8.50000000E-01  8.00000000E-01  8.50000000E-01  8.50000000E-01
  8.50000000E-01  8.00000000E-01  8.50000000E-01  8.50000000E-01  8.50000000E-01
  8.00000000E-01  8.50000000E-01  8.50000000E-01  8.50000000E-01  8.00000000E-01
  8.50000000E-01  8.50000000E-01  8.50000000E-01  8.00000000E-01  8.50000000E-01
  8.50000000E-01  8.50000000E-01  8.00000000E-01  8.50000000E-01  8.50000000E-01
  8.50000000E-01  8.00000000E-01  8.50000000E-01  8.50000000E-01  8.50000000E-01
  8.00000000E-01  8.50000000E-01  8.50000000E-01  8.50000000E-01  8.00000000E-01
  8.50000000E-01  8.50000000E-01  8.50000000E-01  8.00000000E-01  8.50000000E-01
  8.50000000E-01  8.50000000E-01  8.00000000E-01  8.50000000E-01  8.50000000E-01
  8.50000000E-01  8.00000000E-01  8.50000000E-01  8.50000000E-01  8.50000000E-01
  8.00000000E-01  8.50000000E-01  8.50000000E-01  8.50000000E-01  8.00000000E-01
  8.50000000E-01  8.50000000E-01  8.50000000E-01  8.00000000E-01  8.50000000E-01
  8.50000000E-01  8.50000000E-01  8.00000000E-01  8.50000000E-01  8.50000000E-01
  8.50000000E-01  8.00000000E-01  8.50000000E-01  8.50000000E-01  8.50000000E-01
  8.00000000E-01  8.50000000E-01  8.50000000E-01  8.50000000E-01  8.00000000E-01
  8.50000000E-01  8.50000000E-01  8.50000000E-01  8.00000000E-01  8.50000000E-01
  8.50000000E-01  8.50000000E-01  8.00000000E-01  8.50000000E-01  8.50000000E-01
  8.50000000E-01  8.00000000E-01  8.50000000E-01  8.50000000E-01  8.50000000E-01
  8.00000000E-01  8.50000000E-01  8.50000000E-01  8.50000000E-01  8.00000000E-01
  8.50000000E-01  8.50000000E-01  8.50000000E-01  8.00000000E-01  8.50000000E-01
  8.50000000E-01  8.50000000E-01  8.00000000E-01  8.50000000E-01  8.50000000E-01
  8.50000000E-01  8.00000000E-01  8.50000000E-01  8.50000000E-01  8.50000000E-01
  8.00000000E-01  8.50000000E-01  8.50000000E-01  8.50000000E-01  8.00000000E-01
  8.50000000E-01  8.50000000E-01  8.50000000E-01  8.00000000E-01  8.50000000E-01
  8.50000000E-01  8.50000000E-01  8.00000000E-01  8.50000000E-01  8.50000000E-01
  8.50000000E-01  8.00000000E-01  8.50000000E-01  8.50000000E-01  8.50000000E-01
  8.00000000E-01  8.50000000E-01  8.50000000E-01  8.50000000E-01  8.00000000E-01
  8.50000000E-01  8.50000000E-01  8.50000000E-01  8.00000000E-01  8.50000000E-01
  8.50000000E-01  8.50000000E-01  8.00000000E-01  8.50000000E-01  8.50000000E-01
  8.50000000E-01  8.00000000E-01  8.50000000E-01  8.50000000E-01  8.50000000E-01
  8.00000000E-01  8.50000000E-01  8.50000000E-01  8.50000000E-01  8.00000000E-01
  8.50000000E-01  8.50000000E-01  8.50000000E-01  8.00000000E-01  8.50000000E-01
  8.50000000E-01  8.50000000E-01  8.00000000E-01  8.50000000E-01  8.50000000E-01
  8.50000000E-01  8.00000000E-01  8.50000000E-01  8.50000000E-01  8.50000000E-01
  8.00000000E-01  8.50000000E-01  8.50000000E-01  8.50000000E-01  8.00000000E-01
  8.50000000E-01  8.50000000E-01  8.50000000E-01  8.00000000E-01  8.50000000E-01
  8.50000000E-01  8.50000000E-01  8.00000000E-01  8.50000000E-01  8.50000000E-01
  8.50000000E-01  8.00000000E-01  8.50000000E-01  8.50000000E-01  8.50000000E-01
  8.00000000E-01  8.50000000E-01  8.50000000E-01  8.50000000E-01  8.00000000E-01
  8.50000000E-01  8.50000000E-01  8.50000000E-01  8.00000000E-01  8.50000000E-01
  8.50000000E-01  8.50000000E-01  8.00000000E-01  8.50000000E-01  8.50000000E-01
  8.50000000E-01  8.00000000E-01  8.50000000E-01  8.50000000E-01  8.50000000E-01
  8.00000000E-01  8.50000000E-01  8.50000000E-01  8.50000000E-01  8.00000000E-01
  8.50000000E-01  8.50000000E-01  8.50000000E-01  8.00000000E-01  8.50000000E-01
  8.50000000E-01  8.50000000E-01  8.00000000E-01  8.50000000E-01  8.50000000E-01
  8.50000000E-01  8.00000000E-01  8.50000000E-01  8.50000000E-01  8.50000000E-01
  8.00000000E-01  8.50000000E-01  8.50000000E-01  8.50000000E-01  8.00000000E-01
  8.50000000E-01  8.50000000E-01  8.50000000E-01  8.00000000E-01  8.50000000E-01
  8.50000000E-01  8.50000000E-01  8.00000000E-01  8.50000000E-01  8.50000000E-01
  8.50000000E-01  8.00000000E-01  8.50000000E-01  8.50000000E-01  8.50000000E-01
  8.00000000E-01  8.50000000E-01  8.50000000E-01  8.50000000E-01  8.00000000E-01
  8.50000000E-01  8.50000000E-01  8.50000000E-01  8.00000000E-01  8.50000000E-01
  8.50000000E-01  8.50000000E-01  8.00000000E-01  8.50000000E-01  8.50000000E-01
  8.50000000E-01  8.00000000E-01  8.50000000E-01  8.50000000E-01  8.50000000E-01
  8.00000000E-01  8.50000000E-01  8.50000000E-01  8.50000000E-01  8.00000000E-01
  8.50000000E-01  8.50000000E-01  8.50000000E-01  8.00000000E-01  8.50000000E-01
  8.50000000E-01  8.50000000E-01  8.00000000E-01  8.50000000E-01  8.50000000E-01
  8.50000000E-01  8.00000000E-01  8.50000000E-01  8.50000000E-01  8.50000000E-01
  8.00000000E-01  8.50000000E-01  8.50000000E-01  8.50000000E-01  8.00000000E-01
  8.50000000E-01  8.50000000E-01  8.50000000E-01  8.00000000E-01  8.50000000E-01
  8.50000000E-01  8.50000000E-01  8.00000000E-01  8.50000000E-01  8.50000000E-01
  8.50000000E-01  8.00000000E-01  8.50000000E-01  8.50000000E-01  8.50000000E-01
  8.00000000E-01  8.50000000E-01  8.50000000E-01  8.50000000E-01  8.00000000E-01
  8.50000000E-01  8.50000000E-01  8.50000000E-01  8.00000000E-01  8.50000000E-01
  8.50000000E-01  8.50000000E-01  8.00000000E-01  8.50000000E-01  8.50000000E-01
  8.50000000E-01  8.00000000E-01  8.50000000E-01  8.50000000E-01  8.50000000E-01
  8.00000000E-01  8.50000000E-01  8.50000000E-01  8.50000000E-01  8.00000000E-01
  8.50000000E-01  8.50000000E-01  8.50000000E-01  8.00000000E-01  8.50000000E-01
  8.50000000E-01  8.50000000E-01  8.00000000E-01  8.50000000E-01  8.50000000E-01
  8.50000000E-01  8.00000000E-01  8.50000000E-01  8.50000000E-01  8.50000000E-01
  8.00000000E-01  8.50000000E-01  8.50000000E-01  8.50000000E-01  8.00000000E-01
  8.50000000E-01  8.50000000E-01  8.50000000E-01  8.00000000E-01  8.50000000E-01
  8.50000000E-01  8.50000000E-01  8.00000000E-01  8.50000000E-01  8.50000000E-01
  8.50000000E-01  8.00000000E-01  8.50000000E-01  8.50000000E-01  8.50000000E-01
  8.00000000E-01  8.50000000E-01  8.50000000E-01  8.50000000E-01  8.00000000E-01
  8.50000000E-01  8.50000000E-01  8.50000000E-01  8.00000000E-01  8.50000000E-01
  8.50000000E-01  8.50000000E-01  8.00000000E-01  8.50000000E-01  8.50000000E-01
  8.50000000E-01  8.00000000E-01  8.50000000E-01  8.50000000E-01  8.50000000E-01
  8.00000000E-01  8.50000000E-01  8.50000000E-01  8.50000000E-01  8.00000000E-01
  8.50000000E-01  8.50000000E-01  8.50000000E-01  8.00000000E-01  8.50000000E-01
  8.50000000E-01  8.50000000E-01  8.00000000E-01  8.50000000E-01  8.50000000E-01
  8.50000000E-01  8.00000000E-01  8.50000000E-01  8.50000000E-01  8.50000000E-01
  8.00000000E-01  8.50000000E-01  8.50000000E-01  8.50000000E-01  8.00000000E-01
  8.50000000E-01  8.50000000E-01  8.50000000E-01  8.00000000E-01  8.50000000E-01
  8.50000000E-01  8.50000000E-01  8.00000000E-01  8.50000000E-01  8.50000000E-01
  8.50000000E-01  8.00000000E-01  8.50000000E-01  8.50000000E-01  8.50000000E-01
  8.00000000E-01  8.50000000E-01  8.50000000E-01  8.50000000E-01  8.00000000E-01
  8.50000000E-01  8.50000000E-01  8.50000000E-01  8.00000000E-01  8.50000000E-01
  8.50000000E-01  8.50000000E-01  8.00000000E-01  8.50000000E-01  8.50000000E-01
  8.50000000E-01  8.00000000E-01  8.50000000E-01  8.50000000E-01  8.50000000E-01
  8.00000000E-01  8.50000000E-01  8.50000000E-01  8.50000000E-01  8.00000000E-01
  8.50000000E-01  8.50000000E-01  8.50000000E-01  8.00000000E-01  8.50000000E-01
  8.50000000E-01  8.50000000E-01  8.00000000E-01  8.50000000E-01  8.50000000E-01
  8.50000000E-01  8.00000000E-01  8.50000000E-01  8.50000000E-01  8.50000000E-01
  8.00000000E-01  8.50000000E-01  8.50000000E-01  8.50000000E-01  8.00000000E-01
  8.50000000E-01  8.50000000E-01  8.50000000E-01  8.00000000E-01  8.50000000E-01
  8.50000000E-01  8.50000000E-01  8.00000000E-01  8.50000000E-01  8.50000000E-01
  8.50000000E-01  8.00000000E-01  8.50000000E-01  8.50000000E-01  8.50000000E-01
  8.00000000E-01  8.50000000E-01  8.50000000E-01  8.50000000E-01  8.00000000E-01
  8.50000000E-01  8.50000000E-01  8.50000000E-01  8.00000000E-01  8.50000000E-01
  8.50000000E-01  8.50000000E-01  8.00000000E-01  8.50000000E-01  8.50000000E-01
  8.50000000E-01  8.00000000E-01  8.50000000E-01  8.50000000E-01  8.50000000E-01
  8.00000000E-01  8.50000000E-01  8.50000000E-01  8.50000000E-01  8.00000000E-01
  8.50000000E-01  8.50000000E-01  8.50000000E-01  8.00000000E-01  8.50000000E-01
  8.50000000E-01  8.50000000E-01  8.00000000E-01  8.50000000E-01  8.50000000E-01
  8.50000000E-01  8.00000000E-01  8.50000000E-01  8.50000000E-01  8.50000000E-01
  8.00000000E-01  8.50000000E-01  8.50000000E-01  8.50000000E-01  8.00000000E-01
  8.50000000E-01  8.50000000E-01  8.50000000E-01  8.00000000E-01  8.50000000E-01
  8.50000000E-01  8.50000000E-01  8.00000000E-01  8.50000000E-01  8.50000000E-01
  8.50000000E-01  8.00000000E-01  8.50000000E-01  8.50000000E-01  8.50000000E-01
  8.00000000E-01  8.50000000E-01  8.50000000E-01  8.50000000E-01  8.00000000E-01
  8.50000000E-01  8.50000000E-01  8.50000000E-01  8.00000000E-01  8.50000000E-01
  8.50000000E-01  8.50000000E-01  8.00000000E-01  8.50000000E-01  8.50000000E-01
  8.50000000E-01  8.00000000E-01  8.50000000E-01  8.50000000E-01  8.50000000E-01
  8.00000000E-01  8.50000000E-01  8.50000000E-01  8.50000000E-01  8.00000000E-01
  8.50000000E-01  8.50000000E-01  8.50000000E-01  8.00000000E-01  8.50000000E-01
  8.50000000E-01  8.50000000E-01  8.00000000E-01  8.50000000E-01  8.50000000E-01
  8.50000000E-01  8.00000000E-01  8.50000000E-01  8.50000000E-01  8.50000000E-01
  8.00000000E-01  8.50000000E-01  8.50000000E-01  8.50000000E-01  8.00000000E-01
  8.50000000E-01  8.50000000E-01  8.50000000E-01  8.00000000E-01  8.50000000E-01
  8.50000000E-01  8.50000000E-01  8.00000000E-01  8.50000000E-01  8.50000000E-01
  8.50000000E-01  8.00000000E-01  8.50000000E-01  8.50000000E-01  8.50000000E-01
  8.00000000E-01  8.50000000E-01  8.50000000E-01  8.50000000E-01  8.00000000E-01
  8.50000000E-01  8.50000000E-01  8.50000000E-01  8.00000000E-01  8.50000000E-01
  8.50000000E-01  8.50000000E-01  8.00000000E-01  8.50000000E-01  8.50000000E-01
  8.50000000E-01  8.00000000E-01  8.50000000E-01  8.50000000E-01  8.50000000E-01
  8.00000000E-01  8.50000000E-01  8.50000000E-01  8.50000000E-01  8.00000000E-01
  8.50000000E-01  8.50000000E-01  8.50000000E-01  8.00000000E-01  8.50000000E-01
  8.50000000E-01  8.50000000E-01  8.00000000E-01  8.50000000E-01  8.50000000E-01
  8.50000000E-01  8.00000000E-01  8.50000000E-01  8.50000000E-01  8.50000000E-01
  8.00000000E-01  8.50000000E-01  8.50000000E-01  8.50000000E-01  8.00000000E-01
  8.50000000E-01  8.50000000E-01  8.50000000E-01  8.00000000E-01  8.50000000E-01
  8.50000000E-01  8.50000000E-01  8.00000000E-01  8.50000000E-01  8.50000000E-01
  8.50000000E-01  8.00000000E-01  8.50000000E-01  8.50000000E-01  8.50000000E-01
  8.00000000E-01  8.50000000E-01  8.50000000E-01  8.50000000E-01  8.00000000E-01
  8.50000000E-01  8.50000000E-01  8.50000000E-01  8.00000000E-01  8.50000000E-01
  8.50000000E-01  8.50000000E-01  8.00000000E-01  8.50000000E-01  8.50000000E-01
  8.50000000E-01  8.00000000E-01  8.50000000E-01  8.50000000E-01  8.50000000E-01
  8.00000000E-01  8.50000000E-01  8.50000000E-01  8.50000000E-01  8.00000000E-01
  8.50000000E-01  8.50000000E-01  8.50000000E-01  8.00000000E-01  8.50000000E-01
  8.50000000E-01  8.50000000E-01  8.00000000E-01  8.50000000E-01  8.50000000E-01
  8.50000000E-01  8.00000000E-01  8.50000000E-01  8.50000000E-01  8.50000000E-01
  8.00000000E-01  8.50000000E-01  8.50000000E-01  8.50000000E-01  8.00000000E-01
  8.50000000E-01  8.50000000E-01  8.50000000E-01  8.00000000E-01  8.50000000E-01
  8.50000000E-01  8.50000000E-01  8.00000000E-01  8.50000000E-01  8.50000000E-01
  8.50000000E-01  8.00000000E-01  8.50000000E-01  8.50000000E-01  8.50000000E-01
  8.00000000E-01  8.50000000E-01  8.50000000E-01  8.50000000E-01  8.00000000E-01
  8.50000000E-01  8.50000000E-01  8.50000000E-01  8.00000000E-01  8.50000000E-01
  8.50000000E-01  8.50000000E-01  8.00000000E-01  8.50000000E-01  8.50000000E-01
  8.50000000E-01  8.00000000E-01  8.50000000E-01  8.50000000E-01  8.50000000E-01
  8.00000000E-01  8.50000000E-01  8.50000000E-01  8.50000000E-01  8.00000000E-01
  8.50000000E-01  8.50000000E-01  8.50000000E-01  8.00000000E-01  8.50000000E-01
  8.50000000E-01  8.50000000E-01  8.00000000E-01  8.50000000E-01  8.50000000E-01
  8.50000000E-01  8.00000000E-01  8.50000000E-01  8.50000000E-01  8.50000000E-01
  8.00000000E-01  8.50000000E-01  8.50000000E-01  8.50000000E-01  8.00000000E-01
  8.50000000E-01  8.50000000E-01  8.50000000E-01  8.00000000E-01  8.50000000E-01
  8.50000000E-01  8.50000000E-01  8.00000000E-01  8.50000000E-01  8.50000000E-01
  8.50000000E-01  8.00000000E-01  8.50000000E-01  8.50000000E-01  8.50000000E-01
  8.00000000E-01  8.50000000E-01  8.50000000E-01  8.50000000E-01  8.00000000E-01
  8.50000000E-01  8.50000000E-01  8.50000000E-01  8.00000000E-01  8.50000000E-01
  8.50000000E-01  8.50000000E-01  8.00000000E-01  8.50000000E-01  8.50000000E-01
  8.50000000E-01  8.00000000E-01  8.50000000E-01  8.50000000E-01  8.50000000E-01
  8.00000000E-01  8.50000000E-01  8.50000000E-01  8.50000000E-01  8.00000000E-01
  8.50000000E-01  8.50000000E-01  8.50000000E-01  8.00000000E-01  8.50000000E-01
  8.50000000E-01  8.50000000E-01  8.00000000E-01  8.50000000E-01  8.50000000E-01
  8.50000000E-01  8.00000000E-01  8.50000000E-01  8.50000000E-01  8.50000000E-01
  8.00000000E-01  8.50000000E-01  8.50000000E-01  8.50000000E-01  8.00000000E-01
  8.50000000E-01  8.50000000E-01  8.50000000E-01  8.00000000E-01  8.50000000E-01
  8.50000000E-01  8.50000000E-01  8.00000000E-01  8.50000000E-01  8.50000000E-01
  8.50000000E-01  8.00000000E-01  8.50000000E-01  8.50000000E-01  8.50000000E-01
  8.00000000E-01  8.50000000E-01  8.50000000E-01  8.50000000E-01  8.00000000E-01
  8.50000000E-01  8.50000000E-01  8.50000000E-01  8.00000000E-01  8.50000000E-01
  8.50000000E-01  8.50000000E-01  8.00000000E-01  8.50000000E-01  8.50000000E-01
  8.50000000E-01  8.00000000E-01  8.50000000E-01  8.50000000E-01  8.50000000E-01
  8.00000000E-01  8.50000000E-01  8.50000000E-01  8.50000000E-01  8.00000000E-01
  8.50000000E-01  8.50000000E-01  8.50000000E-01  8.00000000E-01  8.50000000E-01
  8.50000000E-01  8.50000000E-01  8.00000000E-01  8.50000000E-01  8.50000000E-01
  8.50000000E-01  8.00000000E-01  8.50000000E-01  8.50000000E-01  8.50000000E-01
  8.00000000E-01  8.50000000E-01  8.50000000E-01  8.50000000E-01  8.00000000E-01
  8.50000000E-01  8.50000000E-01  8.50000000E-01  8.00000000E-01  8.50000000E-01
  8.50000000E-01  8.50000000E-01  8.00000000E-01  8.50000000E-01  8.50000000E-01
  8.50000000E-01  8.00000000E-01  8.50000000E-01  8.50000000E-01  8.50000000E-01
  8.00000000E-01  8.50000000E-01  8.50000000E-01  8.50000000E-01  8.00000000E-01
  8.50000000E-01  8.50000000E-01  8.50000000E-01  8.00000000E-01  8.50000000E-01
  8.50000000E-01  8.50000000E-01  8.00000000E-01  8.50000000E-01  8.50000000E-01
  8.50000000E-01  8.00000000E-01  8.50000000E-01  8.50000000E-01  8.50000000E-01
  8.00000000E-01  8.50000000E-01  8.50000000E-01  8.50000000E-01  8.00000000E-01
  8.50000000E-01  8.50000000E-01  8.50000000E-01  8.00000000E-01  8.50000000E-01
  8.50000000E-01  8.50000000E-01  8.00000000E-01  8.50000000E-01  8.50000000E-01
  8.50000000E-01  8.00000000E-01  8.50000000E-01  8.50000000E-01  8.50000000E-01
  8.00000000E-01  8.50000000E-01  8.50000000E-01  8.50000000E-01  8.00000000E-01
  8.50000000E-01  8.50000000E-01  8.50000000E-01  8.00000000E-01  8.50000000E-01
  8.50000000E-01  8.50000000E-01  8.00000000E-01  8.50000000E-01  8.50000000E-01
  8.50000000E-01  8.00000000E-01  8.50000000E-01  8.50000000E-01  8.50000000E-01
  8.00000000E-01  8.50000000E-01  8.50000000E-01  8.50000000E-01  8.00000000E-01
  8.50000000E-01  8.50000000E-01  8.50000000E-01  8.00000000E-01  8.50000000E-01
  8.50000000E-01  8.50000000E-01  8.00000000E-01  8.50000000E-01  8.50000000E-01
  8.50000000E-01  8.00000000E-01  8.50000000E-01  8.50000000E-01  8.50000000E-01
  8.00000000E-01  8.50000000E-01  8.50000000E-01  8.50000000E-01  8.00000000E-01
  8.50000000E-01  8.50000000E-01  8.50000000E-01  8.00000000E-01  8.50000000E-01
  8.50000000E-01  8.50000000E-01  8.00000000E-01  8.50000000E-01  8.50000000E-01
  8.50000000E-01  8.00000000E-01  8.50000000E-01  8.50000000E-01  8.50000000E-01
  8.00000000E-01  8.50000000E-01  8.50000000E-01  8.50000000E-01  8.00000000E-01
  8.50000000E-01  8.50000000E-01  8.50000000E-01  8.00000000E-01  8.50000000E-01
  8.50000000E-01  8.50000000E-01  8.00000000E-01  8.50000000E-01  8.50000000E-01
  8.50000000E-01  8.00000000E-01  8.50000000E-01  8.50000000E-01  8.50000000E-01
  8.00000000E-01  8.50000000E-01  8.50000000E-01  8.50000000E-01  8.00000000E-01
  8.50000000E-01  8.50000000E-01  8.50000000E-01  8.00000000E-01  8.50000000E-01
  8.50000000E-01  8.50000000E-01  8.00000000E-01  8.50000000E-01  8.50000000E-01
  8.50000000E-01  8.00000000E-01  8.50000000E-01  8.50000000E-01  8.50000000E-01
  8.00000000E-01  8.50000000E-01  8.50000000E-01  8.50000000E-01  8.00000000E-01
  8.50000000E-01  8.50000000E-01  8.50000000E-01  8.00000000E-01  8.50000000E-01
  8.50000000E-01  8.50000000E-01  8.00000000E-01  8.50000000E-01  8.50000000E-01
  8.50000000E-01  8.00000000E-01  8.50000000E-01  8.50000000E-01  8.50000000E-01
  8.00000000E-01  8.50000000E-01  8.50000000E-01  8.50000000E-01  8.00000000E-01
  8.50000000E-01  8.50000000E-01  8.50000000E-01  8.00000000E-01  8.50000000E-01
  8.50000000E-01  8.50000000E-01  8.00000000E-01  8.50000000E-01  8.50000000E-01
  8.50000000E-01  8.00000000E-01  8.50000000E-01  8.50000000E-01  8.50000000E-01
  8.00000000E-01  8.50000000E-01  8.50000000E-01  8.50000000E-01  8.00000000E-01
  8.50000000E-01  8.50000000E-01  8.50000000E-01  8.00000000E-01  8.50000000E-01
  8.50000000E-01  8.50000000E-01  8.00000000E-01  8.50000000E-01  8.50000000E-01
  8.50000000E-01  8.00000000E-01  8.50000000E-01  8.50000000E-01  8.50000000E-01
  8.00000000E-01  8.50000000E-01  8.50000000E-01  8.50000000E-01  8.00000000E-01
  8.50000000E-01  8.50000000E-01  8.50000000E-01  8.00000000E-01  8.50000000E-01
  8.50000000E-01  8.50000000E-01  8.00000000E-01  8.50000000E-01  8.50000000E-01
  8.50000000E-01  8.00000000E-01  8.50000000E-01  8.50000000E-01  8.50000000E-01
  8.00000000E-01  8.50000000E-01  8.50000000E-01  8.50000000E-01  8.00000000E-01
  8.50000000E-01  8.50000000E-01  8.50000000E-01  8.00000000E-01  8.50000000E-01
  8.50000000E-01  8.50000000E-01  8.00000000E-01  8.50000000E-01  8.50000000E-01
  8.50000000E-01  8.00000000E-01  8.50000000E-01  8.50000000E-01  8.50000000E-01
  8.00000000E-01  8.50000000E-01  8.50000000E-01  8.50000000E-01  8.00000000E-01
  8.50000000E-01  8.50000000E-01  8.50000000E-01  8.00000000E-01  8.50000000E-01
  8.50000000E-01  8.50000000E-01  8.00000000E-01  8.50000000E-01  8.50000000E-01
  8.50000000E-01  8.00000000E-01  8.50000000E-01  8.50000000E-01  8.50000000E-01
  8.00000000E-01  8.50000000E-01  8.50000000E-01  8.50000000E-01  8.00000000E-01
  8.50000000E-01  8.50000000E-01  8.50000000E-01  8.00000000E-01  8.50000000E-01
  8.50000000E-01  8.50000000E-01  8.00000000E-01  8.50000000E-01  8.50000000E-01
  8.50000000E-01  8.00000000E-01  8.50000000E-01  8.50000000E-01  8.50000000E-01
  8.00000000E-01  8.50000000E-01  8.50000000E-01  8.50000000E-01  8.00000000E-01
  8.50000000E-01  8.50000000E-01  8.50000000E-01  8.00000000E-01  8.50000000E-01
  8.50000000E-01  8.50000000E-01  8.00000000E-01  8.50000000E-01  8.50000000E-01
  8.50000000E-01  8.00000000E-01  8.50000000E-01  8.50000000E-01  8.50000000E-01
  8.00000000E-01  8.50000000E-01  8.50000000E-01  8.50000000E-01  8.00000000E-01
  8.50000000E-01  8.50000000E-01  8.50000000E-01  8.00000000E-01  8.50000000E-01
  8.50000000E-01  8.50000000E-01  8.00000000E-01  8.50000000E-01  8.50000000E-01
  8.50000000E-01  8.00000000E-01  8.50000000E-01  8.50000000E-01  8.50000000E-01
  8.00000000E-01  8.50000000E-01  8.50000000E-01  8.50000000E-01  8.00000000E-01
  8.50000000E-01  8.50000000E-01  8.50000000E-01  8.00000000E-01  8.50000000E-01
  8.50000000E-01  8.50000000E-01  8.00000000E-01  8.50000000E-01  8.50000000E-01
  8.50000000E-01  8.00000000E-01  8.50000000E-01  8.50000000E-01  8.50000000E-01
  8.00000000E-01  8.50000000E-01  8.50000000E-01  8.50000000E-01  8.00000000E-01
  8.50000000E-01  8.50000000E-01  8.50000000E-01  8.00000000E-01  8.50000000E-01
  8.50000000E-01  8.50000000E-01  8.00000000E-01  8.50000000E-01  8.50000000E-01
  8.50000000E-01  8.00000000E-01  8.50000000E-01  8.50000000E-01  8.50000000E-01
  8.00000000E-01  8.50000000E-01  8.50000000E-01  8.50000000E-01  8.00000000E-01
  8.50000000E-01  8.50000000E-01  8.50000000E-01  8.00000000E-01  8.50000000E-01
  8.50000000E-01  8.50000000E-01  8.00000000E-01  8.50000000E-01  8.50000000E-01
  8.50000000E-01  8.00000000E-01  8.50000000E-01  8.50000000E-01  8.50000000E-01
  8.00000000E-01  8.50000000E-01  8.50000000E-01  8.50000000E-01  8.00000000E-01
  8.50000000E-01  8.50000000E-01  8.50000000E-01  8.00000000E-01  8.50000000E-01
  8.50000000E-01  8.50000000E-01  8.00000000E-01  8.50000000E-01  8.50000000E-01
  8.50000000E-01  8.00000000E-01  8.50000000E-01  8.50000000E-01  8.50000000E-01
  8.00000000E-01  8.50000000E-01  8.50000000E-01  8.50000000E-01  8.00000000E-01
  8.50000000E-01  8.50000000E-01  8.50000000E-01  8.00000000E-01  8.50000000E-01
  8.50000000E-01  8.50000000E-01  8.00000000E-01  8.50000000E-01  8.50000000E-01
  8.50000000E-01  8.00000000E-01  8.50000000E-01  8.50000000E-01  8.50000000E-01
  8.00000000E-01  8.50000000E-01  8.50000000E-01  8.50000000E-01  8.00000000E-01
  8.50000000E-01  8.50000000E-01  8.50000000E-01  8.00000000E-01  8.50000000E-01
  8.50000000E-01  8.50000000E-01  8.00000000E-01  8.50000000E-01  8.50000000E-01
  8.50000000E-01  8.00000000E-01  8.50000000E-01  8.50000000E-01  8.50000000E-01
  8.00000000E-01  8.50000000E-01  8.50000000E-01  8.50000000E-01  8.00000000E-01
  8.50000000E-01  8.50000000E-01  8.50000000E-01  8.00000000E-01  8.50000000E-01
  8.50000000E-01  8.50000000E-01  8.00000000E-01  8.50000000E-01  8.50000000E-01
  8.50000000E-01  8.00000000E-01  8.50000000E-01  8.50000000E-01  8.50000000E-01
  8.00000000E-01  8.50000000E-01  8.50000000E-01  8.50000000E-01  8.00000000E-01
  8.50000000E-01  8.50000000E-01  8.50000000E-01  8.00000000E-01  8.50000000E-01
  8.50000000E-01  8.50000000E-01  8.00000000E-01  8.50000000E-01  8.50000000E-01
  8.50000000E-01  8.00000000E-01  8.50000000E-01  8.50000000E-01  8.50000000E-01
  8.00000000E-01  8.50000000E-01  8.50000000E-01  8.50000000E-01  8.00000000E-01
  8.50000000E-01  8.50000000E-01  8.50000000E-01  8.00000000E-01  8.50000000E-01
  8.50000000E-01  8.50000000E-01  8.00000000E-01  8.50000000E-01  8.50000000E-01
  8.50000000E-01  8.00000000E-01  8.50000000E-01  8.50000000E-01  8.50000000E-01
  8.00000000E-01  8.50000000E-01  8.50000000E-01  8.50000000E-01  8.00000000E-01
  8.50000000E-01  8.50000000E-01  8.50000000E-01  8.00000000E-01  8.50000000E-01
  8.50000000E-01  8.50000000E-01  8.00000000E-01  8.50000000E-01  8.50000000E-01
  8.50000000E-01  8.00000000E-01  8.50000000E-01  8.50000000E-01  8.50000000E-01
  8.00000000E-01  8.50000000E-01  8.50000000E-01  8.50000000E-01  8.00000000E-01
  8.50000000E-01  8.50000000E-01  8.50000000E-01  8.00000000E-01  8.50000000E-01
  8.50000000E-01  8.50000000E-01  8.00000000E-01  8.50000000E-01  8.50000000E-01
  8.50000000E-01  8.00000000E-01  8.50000000E-01  8.50000000E-01  8.50000000E-01
  8.00000000E-01  8.50000000E-01  8.50000000E-01  8.50000000E-01  8.00000000E-01
  8.50000000E-01  8.50000000E-01  8.50000000E-01  8.00000000E-01  8.50000000E-01
  8.50000000E-01  8.50000000E-01  8.00000000E-01  8.50000000E-01  8.50000000E-01
  8.50000000E-01  8.00000000E-01  8.50000000E-01  8.50000000E-01  8.50000000E-01
  8.00000000E-01  8.50000000E-01  8.50000000E-01  8.50000000E-01  8.00000000E-01
  8.50000000E-01  8.50000000E-01  8.50000000E-01  8.00000000E-01  8.50000000E-01
  8.50000000E-01  8.50000000E-01  8.00000000E-01  8.50000000E-01  8.50000000E-01
  8.50000000E-01  8.00000000E-01  8.50000000E-01  8.50000000E-01  8.50000000E-01
  8.00000000E-01  8.50000000E-01  8.50000000E-01  8.50000000E-01  8.00000000E-01
  8.50000000E-01  8.50000000E-01  8.50000000E-01  8.00000000E-01  8.50000000E-01
  8.50000000E-01  8.50000000E-01  8.00000000E-01  8.50000000E-01  8.50000000E-01
  8.50000000E-01  8.00000000E-01  8.50000000E-01  8.50000000E-01  8.50000000E-01
  8.00000000E-01  8.50000000E-01  8.50000000E-01  8.50000000E-01  8.00000000E-01
  8.50000000E-01  8.50000000E-01  8.50000000E-01  8.00000000E-01  8.50000000E-01
  8.50000000E-01  8.50000000E-01  8.00000000E-01  8.50000000E-01  8.50000000E-01
  8.50000000E-01  8.00000000E-01  8.50000000E-01  8.50000000E-01  8.50000000E-01
  8.00000000E-01  8.50000000E-01  8.50000000E-01  8.50000000E-01  8.00000000E-01
  8.50000000E-01  8.50000000E-01  8.50000000E-01  8.00000000E-01  8.50000000E-01
  8.50000000E-01  8.50000000E-01  8.00000000E-01  8.50000000E-01  8.50000000E-01
  8.50000000E-01  8.00000000E-01  8.50000000E-01  8.50000000E-01  8.50000000E-01
  8.00000000E-01  8.50000000E-01  8.50000000E-01  8.50000000E-01  8.00000000E-01
  8.50000000E-01  8.50000000E-01  8.50000000E-01  8.00000000E-01  8.50000000E-01
  8.50000000E-01  8.50000000E-01  8.00000000E-01  8.50000000E-01  8.50000000E-01
  8.50000000E-01  8.00000000E-01  8.50000000E-01  8.50000000E-01  8.50000000E-01
  8.00000000E-01  8.50000000E-01  8.50000000E-01  8.50000000E-01  8.00000000E-01
  8.50000000E-01  8.50000000E-01  8.50000000E-01  8.00000000E-01  8.50000000E-01
  8.50000000E-01  8.50000000E-01  8.00000000E-01  8.50000000E-01  8.50000000E-01
  8.50000000E-01  8.00000000E-01  8.50000000E-01  8.50000000E-01  8.50000000E-01
  8.00000000E-01  8.50000000E-01  8.50000000E-01  8.50000000E-01  8.00000000E-01
  8.50000000E-01  8.50000000E-01  8.50000000E-01  8.00000000E-01  8.50000000E-01
  8.50000000E-01  8.50000000E-01  8.00000000E-01  8.50000000E-01  8.50000000E-01
  8.50000000E-01  8.00000000E-01  8.50000000E-01  8.50000000E-01  8.50000000E-01
  8.00000000E-01  8.50000000E-01  8.50000000E-01  8.50000000E-01  8.00000000E-01
  8.50000000E-01  8.50000000E-01  8.50000000E-01  8.00000000E-01  8.50000000E-01
  8.50000000E-01  8.50000000E-01  8.00000000E-01  8.50000000E-01  8.50000000E-01
  8.50000000E-01  8.00000000E-01  8.50000000E-01  8.50000000E-01  8.50000000E-01
  8.00000000E-01  8.50000000E-01  8.50000000E-01  8.50000000E-01  8.00000000E-01
  8.50000000E-01  8.50000000E-01  8.50000000E-01  8.00000000E-01  8.50000000E-01
  8.50000000E-01  8.50000000E-01  8.00000000E-01  8.50000000E-01  8.50000000E-01
  8.50000000E-01  8.00000000E-01  8.50000000E-01  8.50000000E-01  8.50000000E-01
  8.00000000E-01  8.50000000E-01  8.50000000E-01  8.50000000E-01  8.00000000E-01
  8.50000000E-01  8.50000000E-01  8.50000000E-01  8.00000000E-01  8.50000000E-01
  8.50000000E-01  8.50000000E-01  8.00000000E-01  8.50000000E-01  8.50000000E-01
  8.50000000E-01  8.00000000E-01  8.50000000E-01  8.50000000E-01  8.50000000E-01
  8.00000000E-01  8.50000000E-01  8.50000000E-01  8.50000000E-01  8.00000000E-01
  8.50000000E-01  8.50000000E-01  8.50000000E-01  8.00000000E-01  8.50000000E-01
  8.50000000E-01  8.50000000E-01  8.00000000E-01  8.50000000E-01  8.50000000E-01
  8.50000000E-01  8.00000000E-01  8.50000000E-01  8.50000000E-01  8.50000000E-01
  8.00000000E-01  8.50000000E-01  8.50000000E-01  8.50000000E-01  8.00000000E-01
  8.50000000E-01  8.50000000E-01  8.50000000E-01  8.00000000E-01  8.50000000E-01
  8.50000000E-01  8.50000000E-01  8.00000000E-01  8.50000000E-01  8.50000000E-01
  8.50000000E-01  8.00000000E-01  8.50000000E-01  8.50000000E-01  8.50000000E-01
  8.00000000E-01  8.50000000E-01  8.50000000E-01  8.50000000E-01  8.00000000E-01
  8.50000000E-01  8.50000000E-01  8.50000000E-01  8.00000000E-01  8.50000000E-01
  8.50000000E-01  8.50000000E-01  8.00000000E-01  8.50000000E-01  8.50000000E-01
  8.50000000E-01  8.00000000E-01  8.50000000E-01  8.50000000E-01  8.50000000E-01
  8.00000000E-01  8.50000000E-01  8.50000000E-01  8.50000000E-01  8.00000000E-01
  8.50000000E-01  8.50000000E-01  8.50000000E-01  8.00000000E-01  8.50000000E-01
  8.50000000E-01  8.50000000E-01  8.00000000E-01  8.50000000E-01  8.50000000E-01
  8.50000000E-01  8.00000000E-01  8.50000000E-01  8.50000000E-01  8.50000000E-01
  8.00000000E-01  8.50000000E-01  8.50000000E-01  8.50000000E-01  8.00000000E-01
  8.50000000E-01  8.50000000E-01  8.50000000E-01  8.00000000E-01  8.50000000E-01
  8.50000000E-01  8.50000000E-01  8.00000000E-01  8.50000000E-01  8.50000000E-01
  8.50000000E-01  8.00000000E-01  8.50000000E-01  8.50000000E-01  8.50000000E-01
  8.00000000E-01  8.50000000E-01  8.50000000E-01  8.50000000E-01  8.00000000E-01
  8.50000000E-01  8.50000000E-01  8.50000000E-01  8.00000000E-01  8.50000000E-01
  8.50000000E-01  8.50000000E-01  8.00000000E-01  8.50000000E-01  8.50000000E-01
  8.50000000E-01  8.00000000E-01  8.50000000E-01  8.50000000E-01  8.50000000E-01
  8.00000000E-01  8.50000000E-01  8.50000000E-01  8.50000000E-01  8.00000000E-01
  8.50000000E-01  8.50000000E-01  8.50000000E-01  8.00000000E-01  8.50000000E-01
  8.50000000E-01  8.50000000E-01  8.00000000E-01  8.50000000E-01  8.50000000E-01
  8.50000000E-01  8.00000000E-01  8.50000000E-01  8.50000000E-01  8.50000000E-01
  8.00000000E-01  8.50000000E-01  8.50000000E-01  8.50000000E-01  8.00000000E-01
  8.50000000E-01  8.50000000E-01  8.50000000E-01  8.00000000E-01  8.50000000E-01
  8.50000000E-01  8.50000000E-01  8.00000000E-01  8.50000000E-01  8.50000000E-01
  8.50000000E-01  8.00000000E-01  8.50000000E-01  8.50000000E-01  8.50000000E-01
  8.00000000E-01  8.50000000E-01  8.50000000E-01  8.50000000E-01  8.00000000E-01
  8.50000000E-01  8.50000000E-01  8.50000000E-01  8.00000000E-01  8.50000000E-01
  8.50000000E-01  8.50000000E-01  8.00000000E-01  8.50000000E-01  8.50000000E-01
  8.50000000E-01  8.00000000E-01  8.50000000E-01  8.50000000E-01  8.50000000E-01
  8.00000000E-01  8.50000000E-01  8.50000000E-01  8.50000000E-01  8.00000000E-01
  8.50000000E-01  8.50000000E-01  8.50000000E-01  8.00000000E-01  8.50000000E-01
  8.50000000E-01  8.50000000E-01  8.00000000E-01  8.50000000E-01  8.50000000E-01
  8.50000000E-01  8.00000000E-01  8.50000000E-01  8.50000000E-01  8.50000000E-01
  8.00000000E-01  8.50000000E-01  8.50000000E-01  8.50000000E-01  8.00000000E-01
  8.50000000E-01  8.50000000E-01  8.50000000E-01  8.00000000E-01  8.50000000E-01
  8.50000000E-01  8.50000000E-01  8.00000000E-01  8.50000000E-01  8.50000000E-01
  8.50000000E-01  8.00000000E-01  8.50000000E-01  8.50000000E-01  8.50000000E-01
  8.00000000E-01  8.50000000E-01  8.50000000E-01  8.50000000E-01  8.00000000E-01
  8.50000000E-01  8.50000000E-01  8.50000000E-01  8.00000000E-01  8.50000000E-01
  8.50000000E-01  8.50000000E-01  8.00000000E-01  8.50000000E-01  8.50000000E-01
  8.50000000E-01  8.00000000E-01  8.50000000E-01  8.50000000E-01  8.50000000E-01
  8.00000000E-01  8.50000000E-01  8.50000000E-01  8.50000000E-01  8.00000000E-01
  8.50000000E-01  8.50000000E-01  8.50000000E-01  8.00000000E-01  8.50000000E-01
  8.50000000E-01  8.50000000E-01  8.00000000E-01  8.50000000E-01  8.50000000E-01
  8.50000000E-01  8.00000000E-01  8.50000000E-01  8.50000000E-01  8.50000000E-01
  8.00000000E-01  8.50000000E-01  8.50000000E-01  8.50000000E-01  8.00000000E-01
  8.50000000E-01  8.50000000E-01  8.50000000E-01  8.00000000E-01  8.50000000E-01
  8.50000000E-01  8.50000000E-01  8.00000000E-01  8.50000000E-01  8.50000000E-01
  8.50000000E-01  8.00000000E-01  8.50000000E-01  8.50000000E-01  8.50000000E-01
  8.00000000E-01  8.50000000E-01  8.50000000E-01  8.50000000E-01  8.00000000E-01
  8.50000000E-01  8.50000000E-01  8.50000000E-01  8.00000000E-01  8.50000000E-01
  8.50000000E-01  8.50000000E-01  8.00000000E-01  8.50000000E-01  8.50000000E-01
  8.50000000E-01  8.00000000E-01  8.50000000E-01  8.50000000E-01  8.50000000E-01
  8.00000000E-01  8.50000000E-01  8.50000000E-01  8.50000000E-01  8.00000000E-01
  8.50000000E-01  8.50000000E-01  8.50000000E-01  8.00000000E-01  8.50000000E-01
  8.50000000E-01  8.50000000E-01  8.00000000E-01  8.50000000E-01  8.50000000E-01
  8.50000000E-01  8.00000000E-01  8.50000000E-01  8.50000000E-01  8.50000000E-01
  8.00000000E-01  8.50000000E-01  8.50000000E-01  8.50000000E-01  8.00000000E-01
  8.50000000E-01  8.50000000E-01  8.50000000E-01  8.00000000E-01  8.50000000E-01
  8.50000000E-01  8.50000000E-01  8.00000000E-01  8.50000000E-01  8.50000000E-01
  8.50000000E-01  8.00000000E-01  8.50000000E-01  8.50000000E-01  8.50000000E-01
  8.00000000E-01  8.50000000E-01  8.50000000E-01  8.50000000E-01  8.00000000E-01
  8.50000000E-01  8.50000000E-01  8.50000000E-01  8.00000000E-01  8.50000000E-01
  8.50000000E-01  8.50000000E-01  8.00000000E-01  8.50000000E-01  8.50000000E-01
  8.50000000E-01  8.00000000E-01  8.50000000E-01  8.50000000E-01  8.50000000E-01
  8.00000000E-01  8.50000000E-01  8.50000000E-01  8.50000000E-01  8.00000000E-01
  8.50000000E-01  8.50000000E-01  8.50000000E-01  8.00000000E-01  8.50000000E-01
  8.50000000E-01  8.50000000E-01  8.00000000E-01  8.50000000E-01  8.50000000E-01
  8.50000000E-01  8.00000000E-01  8.50000000E-01  8.50000000E-01  8.50000000E-01
  8.00000000E-01  8.50000000E-01  8.50000000E-01  8.50000000E-01  8.00000000E-01
  8.50000000E-01  8.50000000E-01  8.50000000E-01  8.00000000E-01  8.50000000E-01
  8.50000000E-01  8.50000000E-01  8.00000000E-01  8.50000000E-01  8.50000000E-01
  8.50000000E-01  8.00000000E-01  8.50000000E-01  8.50000000E-01  8.50000000E-01
  8.00000000E-01  8.50000000E-01  8.50000000E-01  8.50000000E-01  8.00000000E-01
  8.50000000E-01  8.50000000E-01  8.50000000E-01  8.00000000E-01  8.50000000E-01
  8.50000000E-01  8.50000000E-01  8.00000000E-01  8.50000000E-01  8.50000000E-01
  8.50000000E-01  8.00000000E-01  8.50000000E-01  8.50000000E-01  8.50000000E-01
  8.00000000E-01  8.50000000E-01  8.50000000E-01  8.50000000E-01  8.00000000E-01
  8.50000000E-01  8.50000000E-01  8.50000000E-01  8.00000000E-01  8.50000000E-01
  8.50000000E-01  8.50000000E-01  8.00000000E-01  8.50000000E-01  8.50000000E-01
  8.50000000E-01  8.00000000E-01  8.50000000E-01  8.50000000E-01  8.50000000E-01
  8.00000000E-01  8.50000000E-01  8.50000000E-01  8.50000000E-01  8.00000000E-01
  8.50000000E-01  8.50000000E-01  8.50000000E-01  8.00000000E-01  8.50000000E-01
  8.50000000E-01  8.50000000E-01  8.00000000E-01  8.50000000E-01  8.50000000E-01
  8.50000000E-01  8.00000000E-01  8.50000000E-01  8.50000000E-01  8.50000000E-01
  8.00000000E-01  8.50000000E-01  8.50000000E-01  8.50000000E-01  8.00000000E-01
  8.50000000E-01  8.50000000E-01  8.50000000E-01  8.00000000E-01  8.50000000E-01
  8.50000000E-01  8.50000000E-01  8.00000000E-01  8.50000000E-01  8.50000000E-01
  8.50000000E-01  8.00000000E-01  8.50000000E-01  8.50000000E-01  8.50000000E-01
  8.00000000E-01  8.50000000E-01  8.50000000E-01  8.50000000E-01  8.00000000E-01
  8.50000000E-01  8.50000000E-01  8.50000000E-01  8.00000000E-01  8.50000000E-01
  8.50000000E-01  8.50000000E-01  8.00000000E-01  8.50000000E-01  8.50000000E-01
  8.50000000E-01  8.00000000E-01  8.50000000E-01  8.50000000E-01  8.50000000E-01
  8.00000000E-01  8.50000000E-01  8.50000000E-01  8.50000000E-01  8.00000000E-01
  8.50000000E-01  8.50000000E-01  8.50000000E-01  8.00000000E-01  8.50000000E-01
  8.50000000E-01  8.50000000E-01  8.00000000E-01  8.50000000E-01  8.50000000E-01
  8.50000000E-01  8.00000000E-01  8.50000000E-01  8.50000000E-01  8.50000000E-01
  8.00000000E-01  8.50000000E-01  8.50000000E-01  8.50000000E-01  8.00000000E-01
  8.50000000E-01  8.50000000E-01  8.50000000E-01  8.00000000E-01  8.50000000E-01
  8.50000000E-01  8.50000000E-01  8.00000000E-01  8.50000000E-01  8.50000000E-01
  8.50000000E-01  8.00000000E-01  8.50000000E-01  8.50000000E-01  8.50000000E-01
  8.00000000E-01  8.50000000E-01  8.50000000E-01  8.50000000E-01  8.00000000E-01
  8.50000000E-01  8.50000000E-01  8.50000000E-01  8.00000000E-01  8.50000000E-01
  8.50000000E-01  8.50000000E-01  8.00000000E-01  8.50000000E-01  8.50000000E-01
  8.50000000E-01  8.00000000E-01  8.50000000E-01  8.50000000E-01  8.50000000E-01
  8.00000000E-01  8.50000000E-01  8.50000000E-01  8.50000000E-01  8.00000000E-01
  8.50000000E-01  8.50000000E-01  8.50000000E-01  8.00000000E-01  8.50000000E-01
  8.50000000E-01  8.50000000E-01  8.00000000E-01  8.50000000E-01  8.50000000E-01
  8.50000000E-01  8.00000000E-01  8.50000000E-01  8.50000000E-01  8.50000000E-01
  8.00000000E-01  8.50000000E-01  8.50000000E-01  8.50000000E-01  8.00000000E-01
  8.50000000E-01  8.50000000E-01  8.50000000E-01  8.00000000E-01  8.50000000E-01
  8.50000000E-01  8.50000000E-01  8.00000000E-01  8.50000000E-01  8.50000000E-01
  8.50000000E-01  8.00000000E-01  8.50000000E-01  8.50000000E-01  8.50000000E-01
  8.00000000E-01  8.50000000E-01  8.50000000E-01  8.50000000E-01  8.00000000E-01
  8.50000000E-01  8.50000000E-01  8.50000000E-01  8.00000000E-01  8.50000000E-01
  8.50000000E-01  8.50000000E-01  8.00000000E-01  8.50000000E-01  8.50000000E-01
  8.50000000E-01  8.00000000E-01  8.50000000E-01  8.50000000E-01  8.50000000E-01
  8.00000000E-01  8.50000000E-01  8.50000000E-01  8.50000000E-01  8.00000000E-01
  8.50000000E-01  8.50000000E-01  8.50000000E-01  8.00000000E-01  8.50000000E-01
  8.50000000E-01  8.50000000E-01  8.00000000E-01  8.50000000E-01  8.50000000E-01
  8.50000000E-01  8.00000000E-01  8.50000000E-01  8.50000000E-01  8.50000000E-01
  8.00000000E-01  8.50000000E-01  8.50000000E-01  8.50000000E-01  8.00000000E-01
  8.50000000E-01  8.50000000E-01  8.50000000E-01  8.00000000E-01  8.50000000E-01
  8.50000000E-01  8.50000000E-01  8.00000000E-01  8.50000000E-01  8.50000000E-01
  8.50000000E-01  8.00000000E-01  8.50000000E-01  8.50000000E-01  8.50000000E-01
  8.00000000E-01  8.50000000E-01  8.50000000E-01  8.50000000E-01  8.00000000E-01
  8.50000000E-01  8.50000000E-01  8.50000000E-01  8.00000000E-01  8.50000000E-01
  8.50000000E-01  8.50000000E-01  8.00000000E-01  8.50000000E-01  8.50000000E-01
  8.50000000E-01  8.00000000E-01  8.50000000E-01  8.50000000E-01  8.50000000E-01
  8.00000000E-01  8.50000000E-01  8.50000000E-01  8.50000000E-01  8.00000000E-01
  8.50000000E-01  8.50000000E-01  8.50000000E-01  8.00000000E-01  8.50000000E-01
  8.50000000E-01  8.50000000E-01  8.00000000E-01  8.50000000E-01  8.50000000E-01
  8.50000000E-01  8.00000000E-01  8.50000000E-01  8.50000000E-01  8.50000000E-01
  8.00000000E-01  8.50000000E-01  8.50000000E-01  8.50000000E-01  8.00000000E-01
  8.50000000E-01  8.50000000E-01  8.50000000E-01  8.00000000E-01  8.50000000E-01
  8.50000000E-01  8.50000000E-01  8.00000000E-01  8.50000000E-01  8.50000000E-01
  8.50000000E-01  8.00000000E-01  8.50000000E-01  8.50000000E-01  8.50000000E-01
  8.00000000E-01  8.50000000E-01  8.50000000E-01  8.50000000E-01  8.00000000E-01
  8.50000000E-01  8.50000000E-01  8.50000000E-01  8.00000000E-01  8.50000000E-01
  8.50000000E-01  8.50000000E-01  8.00000000E-01  8.50000000E-01  8.50000000E-01
  8.50000000E-01  8.00000000E-01  8.50000000E-01  8.50000000E-01  8.50000000E-01
  8.00000000E-01  8.50000000E-01  8.50000000E-01  8.50000000E-01  8.00000000E-01
  8.50000000E-01  8.50000000E-01  8.50000000E-01  8.00000000E-01  8.50000000E-01
  8.50000000E-01  8.50000000E-01  8.00000000E-01  8.50000000E-01  8.50000000E-01
  8.50000000E-01  8.00000000E-01  8.50000000E-01  8.50000000E-01  8.50000000E-01
  8.00000000E-01  8.50000000E-01  8.50000000E-01  8.50000000E-01  8.00000000E-01
  8.50000000E-01  8.50000000E-01  8.50000000E-01  8.00000000E-01  8.50000000E-01
  8.50000000E-01  8.50000000E-01  8.00000000E-01  8.50000000E-01  8.50000000E-01
  8.50000000E-01  8.00000000E-01  8.50000000E-01  8.50000000E-01  8.50000000E-01
  8.00000000E-01  8.50000000E-01  8.50000000E-01  8.50000000E-01  8.00000000E-01
  8.50000000E-01  8.50000000E-01  8.50000000E-01  8.00000000E-01  8.50000000E-01
  8.50000000E-01  8.50000000E-01  8.00000000E-01  8.50000000E-01  8.50000000E-01
  8.50000000E-01  8.00000000E-01  8.50000000E-01  8.50000000E-01  8.50000000E-01
  8.00000000E-01  8.50000000E-01  8.50000000E-01  8.50000000E-01  8.00000000E-01
  8.50000000E-01  8.50000000E-01  8.50000000E-01  8.00000000E-01  8.50000000E-01
  8.50000000E-01  8.50000000E-01  8.00000000E-01  8.50000000E-01  8.50000000E-01
  8.50000000E-01  8.00000000E-01  8.50000000E-01  8.50000000E-01  8.50000000E-01
  8.00000000E-01  8.50000000E-01  8.50000000E-01  8.50000000E-01  8.00000000E-01
  8.50000000E-01  8.50000000E-01  8.50000000E-01  8.00000000E-01  8.50000000E-01
  8.50000000E-01  8.50000000E-01  8.00000000E-01  8.50000000E-01  8.50000000E-01
  8.50000000E-01  8.00000000E-01  8.50000000E-01  8.50000000E-01  8.50000000E-01
  8.00000000E-01  8.50000000E-01  8.50000000E-01  8.50000000E-01  8.00000000E-01
  8.50000000E-01  8.50000000E-01  8.50000000E-01  8.00000000E-01  8.50000000E-01
  8.50000000E-01  8.50000000E-01  8.00000000E-01  8.50000000E-01  8.50000000E-01
  8.50000000E-01  8.00000000E-01  8.50000000E-01  8.50000000E-01  8.50000000E-01
  8.00000000E-01  8.50000000E-01  8.50000000E-01  8.50000000E-01  8.00000000E-01
  8.50000000E-01  8.50000000E-01  8.50000000E-01  8.00000000E-01  8.50000000E-01
  8.50000000E-01  8.50000000E-01  8.00000000E-01  8.50000000E-01  8.50000000E-01
  8.50000000E-01  8.00000000E-01  8.50000000E-01  8.50000000E-01  8.50000000E-01
  8.00000000E-01  8.50000000E-01  8.50000000E-01  8.50000000E-01  8.00000000E-01
  8.50000000E-01  8.50000000E-01  8.50000000E-01  8.00000000E-01  8.50000000E-01
  8.50000000E-01  8.50000000E-01  8.00000000E-01  8.50000000E-01  8.50000000E-01
  8.50000000E-01  8.00000000E-01  8.50000000E-01  8.50000000E-01  8.50000000E-01
  8.00000000E-01  8.50000000E-01  8.50000000E-01  8.50000000E-01  8.00000000E-01
  8.50000000E-01  8.50000000E-01  8.50000000E-01  8.00000000E-01  8.50000000E-01
  8.50000000E-01  8.50000000E-01  8.00000000E-01  8.50000000E-01  8.50000000E-01
  8.50000000E-01  8.00000000E-01  8.50000000E-01  8.50000000E-01  8.50000000E-01
  8.00000000E-01  8.50000000E-01  8.50000000E-01  8.50000000E-01  8.00000000E-01
  8.50000000E-01  8.50000000E-01  8.50000000E-01  8.00000000E-01  8.50000000E-01
  8.50000000E-01  8.50000000E-01  8.00000000E-01  8.50000000E-01  8.50000000E-01
  8.50000000E-01  8.00000000E-01  8.50000000E-01  8.50000000E-01  8.50000000E-01
  8.00000000E-01  8.50000000E-01  8.50000000E-01  8.50000000E-01  8.00000000E-01
  8.50000000E-01  8.50000000E-01  8.50000000E-01  8.00000000E-01  8.50000000E-01
  8.50000000E-01  8.50000000E-01  8.00000000E-01  8.50000000E-01  8.50000000E-01
  8.50000000E-01  8.00000000E-01  8.50000000E-01  8.50000000E-01  8.50000000E-01
  8.00000000E-01  8.50000000E-01  8.50000000E-01  8.50000000E-01  8.00000000E-01
  8.50000000E-01  8.50000000E-01  8.50000000E-01  8.00000000E-01  8.50000000E-01
  8.50000000E-01  8.50000000E-01  8.00000000E-01  8.50000000E-01  8.50000000E-01
  8.50000000E-01  8.00000000E-01  8.50000000E-01  8.50000000E-01  8.50000000E-01
  8.00000000E-01  8.50000000E-01  8.50000000E-01  8.50000000E-01  8.00000000E-01
  8.50000000E-01  8.50000000E-01  8.50000000E-01  8.00000000E-01  8.50000000E-01
  8.50000000E-01  8.50000000E-01  8.00000000E-01  8.50000000E-01  8.50000000E-01
  8.50000000E-01  8.00000000E-01  8.50000000E-01  8.50000000E-01  8.50000000E-01
  8.00000000E-01  8.50000000E-01  8.50000000E-01  8.50000000E-01  8.00000000E-01
  8.50000000E-01  8.50000000E-01  8.50000000E-01  8.00000000E-01  8.50000000E-01
  8.50000000E-01  8.50000000E-01  8.00000000E-01  8.50000000E-01  8.50000000E-01
  8.50000000E-01  8.00000000E-01  8.50000000E-01  8.50000000E-01  8.50000000E-01
  8.00000000E-01  8.50000000E-01  8.50000000E-01  8.50000000E-01  8.00000000E-01
  8.50000000E-01  8.50000000E-01  8.50000000E-01  8.00000000E-01  8.50000000E-01
  8.50000000E-01  8.50000000E-01  8.00000000E-01  8.50000000E-01  8.50000000E-01
  8.50000000E-01  8.00000000E-01  8.50000000E-01  8.50000000E-01  8.50000000E-01
  8.00000000E-01  8.50000000E-01  8.50000000E-01  8.50000000E-01  8.00000000E-01
  8.50000000E-01  8.50000000E-01  8.50000000E-01  8.00000000E-01  8.50000000E-01
  8.50000000E-01  8.50000000E-01  8.00000000E-01  8.50000000E-01  8.50000000E-01
  8.50000000E-01  8.00000000E-01  8.50000000E-01  8.50000000E-01  8.50000000E-01
  8.00000000E-01  8.50000000E-01  8.50000000E-01  8.50000000E-01  8.00000000E-01
  8.50000000E-01  8.50000000E-01  8.50000000E-01  8.00000000E-01  8.50000000E-01
  8.50000000E-01  8.50000000E-01  8.00000000E-01  8.50000000E-01  8.50000000E-01
  8.50000000E-01  8.00000000E-01  8.50000000E-01  8.50000000E-01  8.50000000E-01
  8.00000000E-01  8.50000000E-01  8.50000000E-01  8.50000000E-01  8.00000000E-01
  8.50000000E-01  8.50000000E-01  8.50000000E-01  8.00000000E-01  8.50000000E-01
  8.50000000E-01  8.50000000E-01  8.00000000E-01  8.50000000E-01  8.50000000E-01
  8.50000000E-01  8.00000000E-01  8.50000000E-01  8.50000000E-01  8.50000000E-01
  8.00000000E-01  8.50000000E-01  8.50000000E-01  8.50000000E-01  8.00000000E-01
  8.50000000E-01  8.50000000E-01  8.50000000E-01  8.00000000E-01  8.50000000E-01
  8.50000000E-01  8.50000000E-01  8.00000000E-01  8.50000000E-01  8.50000000E-01
  8.50000000E-01  8.00000000E-01  8.50000000E-01  8.50000000E-01  8.50000000E-01
  8.00000000E-01  8.50000000E-01  8.50000000E-01  8.50000000E-01  8.00000000E-01
  8.50000000E-01  8.50000000E-01  8.50000000E-01  8.00000000E-01  8.50000000E-01
  8.50000000E-01  8.50000000E-01  8.00000000E-01  8.50000000E-01  8.50000000E-01
  8.50000000E-01  8.00000000E-01  8.50000000E-01  8.50000000E-01  8.50000000E-01
  8.00000000E-01  8.50000000E-01  8.50000000E-01  8.50000000E-01  8.00000000E-01
  8.50000000E-01  8.50000000E-01  8.50000000E-01  8.00000000E-01  8.50000000E-01
  8.50000000E-01  8.50000000E-01  8.00000000E-01  8.50000000E-01  8.50000000E-01
  8.50000000E-01  8.00000000E-01  8.50000000E-01  8.50000000E-01  8.50000000E-01
  8.00000000E-01  8.50000000E-01  8.50000000E-01  8.50000000E-01  8.00000000E-01
  8.50000000E-01  8.50000000E-01  8.50000000E-01  8.00000000E-01  8.50000000E-01
  8.50000000E-01  8.50000000E-01  8.00000000E-01  8.50000000E-01  8.50000000E-01
  8.50000000E-01  8.00000000E-01  8.50000000E-01  8.50000000E-01  8.50000000E-01
  8.00000000E-01  8.50000000E-01  8.50000000E-01  8.50000000E-01  8.00000000E-01
  8.50000000E-01  8.50000000E-01  8.50000000E-01  8.00000000E-01  8.50000000E-01
  8.50000000E-01  8.50000000E-01  8.00000000E-01  8.50000000E-01  8.50000000E-01
  8.50000000E-01  8.00000000E-01  8.50000000E-01  8.50000000E-01  8.50000000E-01
  8.00000000E-01  8.50000000E-01  8.50000000E-01  8.50000000E-01  8.00000000E-01
  8.50000000E-01  8.50000000E-01  8.50000000E-01  8.00000000E-01  8.50000000E-01
  8.50000000E-01  8.50000000E-01  8.00000000E-01  8.50000000E-01  8.50000000E-01
  8.50000000E-01  8.00000000E-01  8.50000000E-01  8.50000000E-01  8.50000000E-01
  8.00000000E-01  8.50000000E-01  8.50000000E-01  8.50000000E-01  8.00000000E-01
  8.50000000E-01  8.50000000E-01  8.50000000E-01  8.00000000E-01  8.50000000E-01
  8.50000000E-01  8.50000000E-01  8.00000000E-01  8.50000000E-01  8.50000000E-01
  8.50000000E-01  8.00000000E-01  8.50000000E-01  8.50000000E-01  8.50000000E-01
  8.00000000E-01  8.50000000E-01  8.50000000E-01  8.50000000E-01  8.00000000E-01
  8.50000000E-01  8.50000000E-01  8.50000000E-01  8.00000000E-01  8.50000000E-01
  8.50000000E-01  8.50000000E-01  8.00000000E-01  8.50000000E-01  8.50000000E-01
  8.50000000E-01  8.00000000E-01  8.50000000E-01  8.50000000E-01  8.50000000E-01
  8.00000000E-01  8.50000000E-01  8.50000000E-01  8.50000000E-01  8.00000000E-01
  8.50000000E-01  8.50000000E-01  8.50000000E-01  8.00000000E-01  8.50000000E-01
  8.50000000E-01  8.50000000E-01  8.00000000E-01  8.50000000E-01  8.50000000E-01
  8.50000000E-01  8.00000000E-01  8.50000000E-01  8.50000000E-01  8.50000000E-01
  8.00000000E-01  8.50000000E-01  8.50000000E-01  8.50000000E-01  8.00000000E-01
  8.50000000E-01  8.50000000E-01  8.50000000E-01  8.00000000E-01  8.50000000E-01
  8.50000000E-01  8.50000000E-01  8.00000000E-01  8.50000000E-01  8.50000000E-01
  8.50000000E-01  8.00000000E-01  8.50000000E-01  8.50000000E-01  8.50000000E-01
  8.00000000E-01  8.50000000E-01  8.50000000E-01  8.50000000E-01  8.00000000E-01
  8.50000000E-01  8.50000000E-01  8.50000000E-01  8.00000000E-01  8.50000000E-01
  8.50000000E-01  8.50000000E-01  8.00000000E-01  8.50000000E-01  8.50000000E-01
  8.50000000E-01  8.00000000E-01  8.50000000E-01  8.50000000E-01  8.50000000E-01
  8.00000000E-01  8.50000000E-01  8.50000000E-01  8.50000000E-01  8.00000000E-01
  8.50000000E-01  8.50000000E-01  8.50000000E-01  8.00000000E-01  8.50000000E-01
  8.50000000E-01  8.50000000E-01  8.00000000E-01  8.50000000E-01  8.50000000E-01
  8.50000000E-01  8.00000000E-01  8.50000000E-01  8.50000000E-01  8.50000000E-01
  8.00000000E-01  8.50000000E-01  8.50000000E-01  8.50000000E-01  8.00000000E-01
  8.50000000E-01  8.50000000E-01  8.50000000E-01  8.00000000E-01  8.50000000E-01
  8.50000000E-01  8.50000000E-01  8.00000000E-01  8.50000000E-01  8.50000000E-01
  8.50000000E-01  8.00000000E-01  8.50000000E-01  8.50000000E-01  8.50000000E-01
  8.00000000E-01  8.50000000E-01  8.50000000E-01  8.50000000E-01  8.00000000E-01
  8.50000000E-01  8.50000000E-01  8.50000000E-01  8.00000000E-01  8.50000000E-01
  8.50000000E-01  8.50000000E-01  8.00000000E-01  8.50000000E-01  8.50000000E-01
  8.50000000E-01  8.00000000E-01  8.50000000E-01  8.50000000E-01  8.50000000E-01
  8.00000000E-01  8.50000000E-01  8.50000000E-01  8.50000000E-01  8.00000000E-01
  8.50000000E-01  8.50000000E-01  8.50000000E-01  8.00000000E-01  8.50000000E-01
  8.50000000E-01  8.50000000E-01  8.00000000E-01  8.50000000E-01  8.50000000E-01
  8.50000000E-01  8.00000000E-01  8.50000000E-01  8.50000000E-01  8.50000000E-01
  8.00000000E-01  8.50000000E-01  8.50000000E-01  8.50000000E-01  8.00000000E-01
  8.50000000E-01  8.50000000E-01  8.50000000E-01  8.00000000E-01  8.50000000E-01
  8.50000000E-01  8.50000000E-01  8.00000000E-01  8.50000000E-01  8.50000000E-01
  8.50000000E-01  8.00000000E-01  8.50000000E-01  8.50000000E-01  8.50000000E-01
  8.00000000E-01  8.50000000E-01  8.50000000E-01  8.50000000E-01  8.00000000E-01
  8.50000000E-01  8.50000000E-01  8.50000000E-01  8.00000000E-01  8.50000000E-01
  8.50000000E-01  8.50000000E-01  8.00000000E-01  8.50000000E-01  8.50000000E-01
  8.50000000E-01  8.00000000E-01  8.50000000E-01  8.50000000E-01  8.50000000E-01
  8.00000000E-01  8.50000000E-01  8.50000000E-01  8.50000000E-01  8.00000000E-01
  8.50000000E-01  8.50000000E-01  8.50000000E-01  8.00000000E-01  8.50000000E-01
  8.50000000E-01  8.50000000E-01  8.00000000E-01  8.50000000E-01  8.50000000E-01
  8.50000000E-01  8.00000000E-01  8.50000000E-01  8.50000000E-01  8.50000000E-01
  8.00000000E-01  8.50000000E-01  8.50000000E-01  8.50000000E-01  8.00000000E-01
  8.50000000E-01  8.50000000E-01  8.50000000E-01  8.00000000E-01  8.50000000E-01
  8.50000000E-01  8.50000000E-01  8.00000000E-01  8.50000000E-01  8.50000000E-01
  8.50000000E-01  8.00000000E-01  8.50000000E-01  8.50000000E-01  8.50000000E-01
  8.00000000E-01  8.50000000E-01  8.50000000E-01  8.50000000E-01  8.00000000E-01
  8.50000000E-01  8.50000000E-01  8.50000000E-01  8.00000000E-01  8.50000000E-01
  8.50000000E-01  8.50000000E-01  8.00000000E-01  8.50000000E-01  8.50000000E-01
  8.50000000E-01  8.00000000E-01  8.50000000E-01  8.50000000E-01  8.50000000E-01
  8.00000000E-01  8.50000000E-01  8.50000000E-01  8.50000000E-01  8.00000000E-01
  8.50000000E-01  8.50000000E-01  8.50000000E-01  8.00000000E-01  8.50000000E-01
  8.50000000E-01  8.50000000E-01  8.00000000E-01  8.50000000E-01  8.50000000E-01
  8.50000000E-01  8.00000000E-01  8.50000000E-01  8.50000000E-01  8.50000000E-01
  8.00000000E-01  8.50000000E-01  8.50000000E-01  8.50000000E-01  8.00000000E-01
  8.50000000E-01  8.50000000E-01  8.50000000E-01  8.00000000E-01  8.50000000E-01
  8.50000000E-01  8.50000000E-01  8.00000000E-01  8.50000000E-01  8.50000000E-01
  8.50000000E-01  8.00000000E-01  8.50000000E-01  8.50000000E-01  8.50000000E-01
  8.00000000E-01  8.50000000E-01  8.50000000E-01  8.50000000E-01  8.00000000E-01
  8.50000000E-01  8.50000000E-01  8.50000000E-01  8.00000000E-01  8.50000000E-01
  8.50000000E-01  8.50000000E-01  8.00000000E-01  8.50000000E-01  8.50000000E-01
  8.50000000E-01  8.00000000E-01  8.50000000E-01  8.50000000E-01  8.50000000E-01
  8.00000000E-01  8.50000000E-01  8.50000000E-01  8.50000000E-01  8.00000000E-01
  8.50000000E-01  8.50000000E-01  8.50000000E-01  8.00000000E-01  8.50000000E-01
  8.50000000E-01  8.50000000E-01  8.00000000E-01  8.50000000E-01  8.50000000E-01
  8.50000000E-01  8.00000000E-01  8.50000000E-01  8.50000000E-01  8.50000000E-01
  8.00000000E-01  8.50000000E-01  8.50000000E-01  8.50000000E-01  8.00000000E-01
  8.50000000E-01  8.50000000E-01  8.50000000E-01  8.00000000E-01  8.50000000E-01
  8.50000000E-01  8.50000000E-01  8.00000000E-01  8.50000000E-01  8.50000000E-01
  8.50000000E-01  8.00000000E-01  8.50000000E-01  8.50000000E-01  8.50000000E-01
  8.00000000E-01  8.50000000E-01  8.50000000E-01  8.50000000E-01  8.00000000E-01
  8.50000000E-01  8.50000000E-01  8.50000000E-01  8.00000000E-01  8.50000000E-01
  8.50000000E-01  8.50000000E-01  8.00000000E-01  8.50000000E-01  8.50000000E-01
  8.50000000E-01  8.00000000E-01  8.50000000E-01  8.50000000E-01  8.50000000E-01
  8.00000000E-01  8.50000000E-01  8.50000000E-01  8.50000000E-01  8.00000000E-01
  8.50000000E-01  8.50000000E-01  8.50000000E-01  8.00000000E-01  8.50000000E-01
  8.50000000E-01  8.50000000E-01  8.00000000E-01  8.50000000E-01  8.50000000E-01
  8.50000000E-01  8.00000000E-01  8.50000000E-01  8.50000000E-01  8.50000000E-01
  8.00000000E-01  8.50000000E-01  8.50000000E-01  8.50000000E-01  8.00000000E-01
  8.50000000E-01  8.50000000E-01  8.50000000E-01  8.00000000E-01  8.50000000E-01
  8.50000000E-01  8.50000000E-01  8.00000000E-01  8.50000000E-01  8.50000000E-01
  8.50000000E-01  8.00000000E-01  8.50000000E-01  8.50000000E-01  8.50000000E-01
  8.00000000E-01  8.50000000E-01  8.50000000E-01  8.50000000E-01  8.00000000E-01
  8.50000000E-01  8.50000000E-01  8.50000000E-01  8.00000000E-01  8.50000000E-01
  8.50000000E-01  8.50000000E-01  8.00000000E-01  8.50000000E-01  8.50000000E-01
  8.50000000E-01  8.00000000E-01  8.50000000E-01  8.50000000E-01  8.50000000E-01
  8.00000000E-01  8.50000000E-01  8.50000000E-01  8.50000000E-01  8.00000000E-01
  8.50000000E-01  8.50000000E-01  8.50000000E-01  8.00000000E-01  8.50000000E-01
  8.50000000E-01  8.50000000E-01  8.00000000E-01  8.50000000E-01  8.50000000E-01
  8.50000000E-01  8.00000000E-01  8.50000000E-01  8.50000000E-01  8.50000000E-01
  8.00000000E-01  8.50000000E-01  8.50000000E-01  8.50000000E-01  8.00000000E-01
  8.50000000E-01  8.50000000E-01  8.50000000E-01  8.00000000E-01  8.50000000E-01
  8.50000000E-01  8.50000000E-01  8.00000000E-01  8.50000000E-01  8.50000000E-01
  8.50000000E-01  8.00000000E-01  8.50000000E-01  8.50000000E-01  8.50000000E-01
  8.00000000E-01  8.50000000E-01  8.50000000E-01  8.50000000E-01  8.00000000E-01
  8.50000000E-01  8.50000000E-01  8.50000000E-01  8.00000000E-01  8.50000000E-01
  8.50000000E-01  8.50000000E-01  8.00000000E-01  8.50000000E-01  8.50000000E-01
  8.50000000E-01  8.00000000E-01  8.50000000E-01  8.50000000E-01  8.50000000E-01
  8.00000000E-01  8.50000000E-01  8.50000000E-01  8.50000000E-01  8.00000000E-01
  8.50000000E-01  8.50000000E-01  8.50000000E-01  8.00000000E-01  8.50000000E-01
  8.50000000E-01  8.50000000E-01  8.00000000E-01  8.50000000E-01  8.50000000E-01
  8.50000000E-01  8.00000000E-01  8.50000000E-01  8.50000000E-01  8.50000000E-01
  8.00000000E-01  8.50000000E-01  8.50000000E-01  8.50000000E-01  8.00000000E-01
  8.50000000E-01  8.50000000E-01  8.50000000E-01  8.00000000E-01  8.50000000E-01
  8.50000000E-01  8.50000000E-01  8.00000000E-01  8.50000000E-01  8.50000000E-01
  8.50000000E-01  8.00000000E-01  8.50000000E-01  8.50000000E-01  8.50000000E-01
  8.00000000E-01  8.50000000E-01  8.50000000E-01  8.50000000E-01  8.00000000E-01
  8.50000000E-01  8.50000000E-01  8.50000000E-01  8.00000000E-01  8.50000000E-01
  8.50000000E-01  8.50000000E-01  8.00000000E-01  8.50000000E-01  8.50000000E-01
  8.50000000E-01  8.00000000E-01  8.50000000E-01  8.50000000E-01  8.50000000E-01
  8.00000000E-01  8.50000000E-01  8.50000000E-01  8.50000000E-01  8.00000000E-01
  8.50000000E-01  8.50000000E-01  8.50000000E-01  8.00000000E-01  8.50000000E-01
  8.50000000E-01  8.50000000E-01  8.00000000E-01  8.50000000E-01  8.50000000E-01
  8.50000000E-01  8.00000000E-01  8.50000000E-01  8.50000000E-01  8.50000000E-01
  8.00000000E-01  8.50000000E-01  8.50000000E-01  8.50000000E-01  8.00000000E-01
  8.50000000E-01  8.50000000E-01  8.50000000E-01  8.00000000E-01  8.50000000E-01
  8.50000000E-01  8.50000000E-01  8.00000000E-01  8.50000000E-01  8.50000000E-01
  8.50000000E-01  8.00000000E-01  8.50000000E-01  8.50000000E-01  8.50000000E-01
  8.00000000E-01  8.50000000E-01  8.50000000E-01  8.50000000E-01  8.00000000E-01
  8.50000000E-01  8.50000000E-01  8.50000000E-01  8.00000000E-01  8.50000000E-01
  8.50000000E-01  8.50000000E-01  8.00000000E-01  8.50000000E-01  8.50000000E-01
  8.50000000E-01  8.00000000E-01  8.50000000E-01  8.50000000E-01  8.50000000E-01
  8.00000000E-01  8.50000000E-01  8.50000000E-01  8.50000000E-01  8.00000000E-01
  8.50000000E-01  8.50000000E-01  8.50000000E-01  8.00000000E-01  8.50000000E-01
  8.50000000E-01  8.50000000E-01  8.00000000E-01  8.50000000E-01  8.50000000E-01
  8.50000000E-01  8.00000000E-01  8.50000000E-01  8.50000000E-01  8.50000000E-01
  8.00000000E-01  8.50000000E-01  8.50000000E-01  8.50000000E-01  8.00000000E-01
  8.50000000E-01  8.50000000E-01  8.50000000E-01  8.00000000E-01  8.50000000E-01
  8.50000000E-01  8.50000000E-01  8.00000000E-01  8.50000000E-01  8.50000000E-01
  8.50000000E-01  8.00000000E-01  8.50000000E-01  8.50000000E-01  8.50000000E-01
  8.00000000E-01  8.50000000E-01  8.50000000E-01  8.50000000E-01  8.00000000E-01
  8.50000000E-01  8.50000000E-01  8.50000000E-01  8.00000000E-01  8.50000000E-01
  8.50000000E-01  8.50000000E-01  8.00000000E-01  8.50000000E-01  8.50000000E-01
  8.50000000E-01  8.00000000E-01  8.50000000E-01  8.50000000E-01  8.50000000E-01
  8.00000000E-01  8.50000000E-01  8.50000000E-01  8.50000000E-01  8.00000000E-01
  8.50000000E-01  8.50000000E-01  8.50000000E-01  8.00000000E-01  8.50000000E-01
  8.50000000E-01  8.50000000E-01  8.00000000E-01  8.50000000E-01  8.50000000E-01
  8.50000000E-01  8.00000000E-01  8.50000000E-01  8.50000000E-01  8.50000000E-01
  8.00000000E-01  8.50000000E-01  8.50000000E-01  8.50000000E-01  8.00000000E-01
  8.50000000E-01  8.50000000E-01  8.50000000E-01  8.00000000E-01  8.50000000E-01
  8.50000000E-01  8.50000000E-01  8.00000000E-01  8.50000000E-01  8.50000000E-01
  8.50000000E-01  8.00000000E-01  8.50000000E-01  8.50000000E-01  8.50000000E-01
  8.00000000E-01  8.50000000E-01  8.50000000E-01  8.50000000E-01  8.00000000E-01
  8.50000000E-01  8.50000000E-01  8.50000000E-01  8.00000000E-01  8.50000000E-01
  8.50000000E-01  8.50000000E-01  8.00000000E-01  8.50000000E-01  8.50000000E-01
  8.50000000E-01  8.00000000E-01  8.50000000E-01  8.50000000E-01  8.50000000E-01
  8.00000000E-01  8.50000000E-01  8.50000000E-01  8.50000000E-01  8.00000000E-01
  8.50000000E-01  8.50000000E-01  8.50000000E-01  8.00000000E-01  8.50000000E-01
  8.50000000E-01  8.50000000E-01  8.00000000E-01  8.50000000E-01  8.50000000E-01
  8.50000000E-01  8.00000000E-01  8.50000000E-01  8.50000000E-01  8.50000000E-01
  8.00000000E-01  8.50000000E-01  8.50000000E-01  8.50000000E-01  8.00000000E-01
  8.50000000E-01  8.50000000E-01  8.50000000E-01  8.00000000E-01  8.50000000E-01
  8.50000000E-01  8.50000000E-01  8.00000000E-01  8.50000000E-01  8.50000000E-01
  8.50000000E-01  8.00000000E-01  8.50000000E-01  8.50000000E-01  8.50000000E-01
  8.00000000E-01  8.50000000E-01  8.50000000E-01  8.50000000E-01  8.00000000E-01
  8.50000000E-01  8.50000000E-01  8.50000000E-01  8.00000000E-01  8.50000000E-01
  8.50000000E-01  8.50000000E-01  8.00000000E-01  8.50000000E-01  8.50000000E-01
  8.50000000E-01  8.00000000E-01  8.50000000E-01  8.50000000E-01  8.50000000E-01
  8.00000000E-01  8.50000000E-01  8.50000000E-01  8.50000000E-01  8.00000000E-01
  8.50000000E-01  8.50000000E-01  8.50000000E-01  8.00000000E-01  8.50000000E-01
  8.50000000E-01  8.50000000E-01  8.00000000E-01  8.50000000E-01  8.50000000E-01
  8.50000000E-01  8.00000000E-01  8.50000000E-01  8.50000000E-01  8.50000000E-01
  8.00000000E-01  8.50000000E-01  8.50000000E-01  8.50000000E-01  8.00000000E-01
  8.50000000E-01  8.50000000E-01  8.50000000E-01  8.00000000E-01  8.50000000E-01
  8.50000000E-01  8.50000000E-01  8.00000000E-01  8.50000000E-01  8.50000000E-01
  8.50000000E-01  8.00000000E-01  8.50000000E-01  8.50000000E-01  8.50000000E-01
  8.00000000E-01  8.50000000E-01  8.50000000E-01  8.50000000E-01  8.00000000E-01
  8.50000000E-01  8.50000000E-01  8.50000000E-01  8.00000000E-01  8.50000000E-01
  8.50000000E-01  8.50000000E-01  8.00000000E-01  8.50000000E-01  8.50000000E-01
  8.50000000E-01  8.00000000E-01  8.50000000E-01  8.50000000E-01  8.50000000E-01
  8.00000000E-01  8.50000000E-01  8.50000000E-01  8.50000000E-01  8.00000000E-01
  8.50000000E-01  8.50000000E-01  8.50000000E-01  8.00000000E-01  8.50000000E-01
  8.50000000E-01  8.50000000E-01  8.00000000E-01  8.50000000E-01  8.50000000E-01
  8.50000000E-01  8.00000000E-01  8.50000000E-01  8.50000000E-01  8.50000000E-01
  8.00000000E-01  8.50000000E-01  8.50000000E-01  8.50000000E-01  8.00000000E-01
  8.50000000E-01  8.50000000E-01  8.50000000E-01  8.00000000E-01  8.50000000E-01
  8.50000000E-01  8.50000000E-01  8.00000000E-01  8.50000000E-01  8.50000000E-01
  8.50000000E-01  8.00000000E-01  8.50000000E-01  8.50000000E-01  8.50000000E-01
  8.00000000E-01  8.50000000E-01  8.50000000E-01  8.50000000E-01  8.00000000E-01
  8.50000000E-01  8.50000000E-01  8.50000000E-01  8.00000000E-01  8.50000000E-01
  8.50000000E-01  8.50000000E-01  8.00000000E-01  8.50000000E-01  8.50000000E-01
  8.50000000E-01  8.00000000E-01  8.50000000E-01  8.50000000E-01  8.50000000E-01
  8.00000000E-01  8.50000000E-01  8.50000000E-01  8.50000000E-01  8.00000000E-01
  8.50000000E-01  8.50000000E-01  8.50000000E-01  8.00000000E-01  8.50000000E-01
  8.50000000E-01  8.50000000E-01  8.00000000E-01  8.50000000E-01  8.50000000E-01
  8.50000000E-01  8.00000000E-01  8.50000000E-01  8.50000000E-01  8.50000000E-01
  8.00000000E-01  8.50000000E-01  8.50000000E-01  8.50000000E-01  8.00000000E-01
  8.50000000E-01  8.50000000E-01  8.50000000E-01  8.00000000E-01  8.50000000E-01
  8.50000000E-01  8.50000000E-01  8.00000000E-01  8.50000000E-01  8.50000000E-01
  8.50000000E-01  8.00000000E-01  8.50000000E-01  8.50000000E-01  8.50000000E-01
  8.00000000E-01  8.50000000E-01  8.50000000E-01  8.50000000E-01  8.00000000E-01
  8.50000000E-01  8.50000000E-01  8.50000000E-01  8.00000000E-01  8.50000000E-01
  8.50000000E-01  8.50000000E-01  8.00000000E-01  8.50000000E-01  8.50000000E-01
  8.50000000E-01  8.00000000E-01  8.50000000E-01  8.50000000E-01  8.50000000E-01
  8.00000000E-01  8.50000000E-01  8.50000000E-01  8.50000000E-01  8.00000000E-01
  8.50000000E-01  8.50000000E-01  8.50000000E-01  8.00000000E-01  8.50000000E-01
  8.50000000E-01  8.50000000E-01  8.00000000E-01  8.50000000E-01  8.50000000E-01
  8.50000000E-01  8.00000000E-01  8.50000000E-01  8.50000000E-01  8.50000000E-01
  8.00000000E-01  8.50000000E-01  8.50000000E-01  8.50000000E-01  8.00000000E-01
  8.50000000E-01  8.50000000E-01  8.50000000E-01  8.00000000E-01  8.50000000E-01
  8.50000000E-01  8.50000000E-01  8.00000000E-01  8.50000000E-01  8.50000000E-01
  8.50000000E-01  8.00000000E-01  8.50000000E-01  8.50000000E-01  8.50000000E-01
  8.00000000E-01  8.50000000E-01  8.50000000E-01  8.50000000E-01  8.00000000E-01
  8.50000000E-01  8.50000000E-01  8.50000000E-01  8.00000000E-01  8.50000000E-01
  8.50000000E-01  8.50000000E-01  8.00000000E-01  8.50000000E-01  8.50000000E-01
  8.50000000E-01  8.00000000E-01  8.50000000E-01  8.50000000E-01  8.50000000E-01
  8.00000000E-01  8.50000000E-01  8.50000000E-01  8.50000000E-01  8.00000000E-01
  8.50000000E-01  8.50000000E-01  8.50000000E-01  8.00000000E-01  8.50000000E-01
  8.50000000E-01  8.50000000E-01  8.00000000E-01  8.50000000E-01  8.50000000E-01
  8.50000000E-01  8.00000000E-01  8.50000000E-01  8.50000000E-01  8.50000000E-01
  8.00000000E-01  8.50000000E-01  8.50000000E-01  8.50000000E-01  8.00000000E-01
  8.50000000E-01  8.50000000E-01  8.50000000E-01  8.00000000E-01  8.50000000E-01
  8.50000000E-01  8.50000000E-01  8.00000000E-01  8.50000000E-01  8.50000000E-01
  8.50000000E-01  8.00000000E-01  8.50000000E-01  8.50000000E-01  8.50000000E-01
  8.00000000E-01  8.50000000E-01  8.50000000E-01  8.50000000E-01  8.00000000E-01
  8.50000000E-01  8.50000000E-01  8.50000000E-01  8.00000000E-01  8.50000000E-01
  8.50000000E-01  8.50000000E-01  8.00000000E-01  8.50000000E-01  8.50000000E-01
  8.50000000E-01  8.00000000E-01  8.50000000E-01  8.50000000E-01  8.50000000E-01
  8.00000000E-01  8.50000000E-01  8.50000000E-01  8.50000000E-01  8.00000000E-01
  8.50000000E-01  8.50000000E-01  8.50000000E-01  8.00000000E-01  8.50000000E-01
  8.50000000E-01  8.50000000E-01  8.00000000E-01  8.50000000E-01  8.50000000E-01
  8.50000000E-01  8.00000000E-01  8.50000000E-01  8.50000000E-01  8.50000000E-01
  8.00000000E-01  8.50000000E-01  8.50000000E-01  8.50000000E-01  8.00000000E-01
  8.50000000E-01  8.50000000E-01  8.50000000E-01  8.00000000E-01  8.50000000E-01
  8.50000000E-01  8.50000000E-01  8.00000000E-01  8.50000000E-01  8.50000000E-01
  8.50000000E-01  8.00000000E-01  8.50000000E-01  8.50000000E-01  8.50000000E-01
  8.00000000E-01  8.50000000E-01  8.50000000E-01  8.50000000E-01  8.00000000E-01
  8.50000000E-01  8.50000000E-01  8.50000000E-01  8.00000000E-01  8.50000000E-01
  8.50000000E-01  8.50000000E-01  8.00000000E-01  8.50000000E-01  8.50000000E-01
  8.50000000E-01  8.00000000E-01  8.50000000E-01  8.50000000E-01  8.50000000E-01
  8.00000000E-01  8.50000000E-01  8.50000000E-01  8.50000000E-01  8.00000000E-01
  8.50000000E-01  8.50000000E-01  8.50000000E-01  8.00000000E-01  8.50000000E-01
  8.50000000E-01  8.50000000E-01  8.00000000E-01  8.50000000E-01  8.50000000E-01
  8.50000000E-01  8.00000000E-01  8.50000000E-01  8.50000000E-01  8.50000000E-01
  8.00000000E-01  8.50000000E-01  8.50000000E-01  8.50000000E-01  8.00000000E-01
  8.50000000E-01  8.50000000E-01  8.50000000E-01  8.00000000E-01  8.50000000E-01
  8.50000000E-01  8.50000000E-01  8.00000000E-01  8.50000000E-01  8.50000000E-01
  8.50000000E-01  8.00000000E-01  8.50000000E-01  8.50000000E-01  8.50000000E-01
  8.00000000E-01  8.50000000E-01  8.50000000E-01  8.50000000E-01  8.00000000E-01
  8.50000000E-01  8.50000000E-01  8.50000000E-01  8.00000000E-01  8.50000000E-01
  8.50000000E-01  8.50000000E-01  8.00000000E-01  8.50000000E-01  8.50000000E-01
  8.50000000E-01  8.00000000E-01  8.50000000E-01  8.50000000E-01  8.50000000E-01
  8.00000000E-01  8.50000000E-01  8.50000000E-01  8.50000000E-01  8.00000000E-01
  8.50000000E-01  8.50000000E-01  8.50000000E-01  8.00000000E-01  8.50000000E-01
  8.50000000E-01  8.50000000E-01  8.00000000E-01  8.50000000E-01  8.50000000E-01
  8.50000000E-01  8.00000000E-01  8.50000000E-01  8.50000000E-01  8.50000000E-01
  8.00000000E-01  8.50000000E-01  8.50000000E-01  8.50000000E-01  8.00000000E-01
  8.50000000E-01  8.50000000E-01  8.50000000E-01  8.00000000E-01  8.50000000E-01
  8.50000000E-01  8.50000000E-01  8.00000000E-01  8.50000000E-01  8.50000000E-01
  8.50000000E-01  8.00000000E-01  8.50000000E-01  8.50000000E-01  8.50000000E-01
  8.00000000E-01  8.50000000E-01  8.50000000E-01  8.50000000E-01  8.00000000E-01
  8.50000000E-01  8.50000000E-01  8.50000000E-01  8.00000000E-01  8.50000000E-01
  8.50000000E-01  8.50000000E-01  8.00000000E-01  8.50000000E-01  8.50000000E-01
  8.50000000E-01  8.00000000E-01  8.50000000E-01  8.50000000E-01  8.50000000E-01
  8.00000000E-01  8.50000000E-01  8.50000000E-01  8.50000000E-01  8.00000000E-01
  8.50000000E-01  8.50000000E-01  8.50000000E-01  8.00000000E-01  8.50000000E-01
  8.50000000E-01  8.50000000E-01  8.00000000E-01  8.50000000E-01  8.50000000E-01
  8.50000000E-01  8.00000000E-01  8.50000000E-01  8.50000000E-01  8.50000000E-01
  8.00000000E-01  8.50000000E-01  8.50000000E-01  8.50000000E-01  8.00000000E-01
  8.50000000E-01  8.50000000E-01  8.50000000E-01  8.00000000E-01  8.50000000E-01
  8.50000000E-01  8.50000000E-01  8.00000000E-01  8.50000000E-01  8.50000000E-01
  8.50000000E-01  8.00000000E-01  8.50000000E-01  8.50000000E-01  8.50000000E-01
  8.00000000E-01  8.50000000E-01  8.50000000E-01  8.50000000E-01  8.00000000E-01
  8.50000000E-01  8.50000000E-01  8.50000000E-01  8.00000000E-01  8.50000000E-01
  8.50000000E-01  8.50000000E-01  8.00000000E-01  8.50000000E-01  8.50000000E-01
  8.50000000E-01  8.00000000E-01  8.50000000E-01  8.50000000E-01  8.50000000E-01
  8.00000000E-01  8.50000000E-01  8.50000000E-01  8.50000000E-01  8.00000000E-01
  8.50000000E-01  8.50000000E-01  8.50000000E-01  8.00000000E-01  8.50000000E-01
  8.50000000E-01  8.50000000E-01  8.00000000E-01  8.50000000E-01  8.50000000E-01
  8.50000000E-01  8.00000000E-01  8.50000000E-01  8.50000000E-01  8.50000000E-01
  8.00000000E-01  8.50000000E-01  8.50000000E-01  8.50000000E-01  8.00000000E-01
  8.50000000E-01  8.50000000E-01  8.50000000E-01  8.00000000E-01  8.50000000E-01
  8.50000000E-01  8.50000000E-01  8.00000000E-01  8.50000000E-01  8.50000000E-01
  8.50000000E-01  8.00000000E-01  8.50000000E-01  8.50000000E-01  8.50000000E-01
  8.00000000E-01  8.50000000E-01  8.50000000E-01  8.50000000E-01  8.00000000E-01
  8.50000000E-01  8.50000000E-01  8.50000000E-01  8.00000000E-01  8.50000000E-01
  8.50000000E-01  8.50000000E-01  8.00000000E-01  8.50000000E-01  8.50000000E-01
  8.50000000E-01  8.00000000E-01  8.50000000E-01  8.50000000E-01  8.50000000E-01
  8.00000000E-01  8.50000000E-01  8.50000000E-01  8.50000000E-01  8.00000000E-01
  8.50000000E-01  8.50000000E-01  8.50000000E-01  8.00000000E-01  8.50000000E-01
  8.50000000E-01  8.50000000E-01  8.00000000E-01  8.50000000E-01  8.50000000E-01
  8.50000000E-01  8.00000000E-01  8.50000000E-01  8.50000000E-01  8.50000000E-01
  8.00000000E-01  8.50000000E-01  8.50000000E-01  8.50000000E-01  8.00000000E-01
  8.50000000E-01  8.50000000E-01  8.50000000E-01  8.00000000E-01  8.50000000E-01
  8.50000000E-01  8.50000000E-01  8.00000000E-01  8.50000000E-01  8.50000000E-01
  8.50000000E-01  8.00000000E-01  8.50000000E-01  8.50000000E-01  8.50000000E-01
  8.00000000E-01  8.50000000E-01  8.50000000E-01  8.50000000E-01  8.00000000E-01
  8.50000000E-01  8.50000000E-01  8.50000000E-01  8.00000000E-01  8.50000000E-01
  8.50000000E-01  8.50000000E-01  8.00000000E-01  8.50000000E-01  8.50000000E-01
  8.50000000E-01  8.00000000E-01  8.50000000E-01  8.50000000E-01  8.50000000E-01
  8.00000000E-01  8.50000000E-01  8.50000000E-01  8.50000000E-01  8.00000000E-01
  8.50000000E-01  8.50000000E-01  8.50000000E-01  8.00000000E-01  8.50000000E-01
  8.50000000E-01  8.50000000E-01  8.00000000E-01  8.50000000E-01  8.50000000E-01
  8.50000000E-01  8.00000000E-01  8.50000000E-01  8.50000000E-01  8.50000000E-01
  8.00000000E-01  8.50000000E-01  8.50000000E-01  8.50000000E-01  8.00000000E-01
  8.50000000E-01  8.50000000E-01  8.50000000E-01  8.00000000E-01  8.50000000E-01
  8.50000000E-01  8.50000000E-01  8.00000000E-01  8.50000000E-01  8.50000000E-01
  8.50000000E-01  8.00000000E-01  8.50000000E-01  8.50000000E-01  8.50000000E-01
  8.00000000E-01  8.50000000E-01  8.50000000E-01  8.50000000E-01  8.00000000E-01
  8.50000000E-01  8.50000000E-01  8.50000000E-01  8.00000000E-01  8.50000000E-01
  8.50000000E-01  8.50000000E-01  8.00000000E-01  8.50000000E-01  8.50000000E-01
  8.50000000E-01  8.00000000E-01  8.50000000E-01  8.50000000E-01  8.50000000E-01
  8.00000000E-01  8.50000000E-01  8.50000000E-01  8.50000000E-01  8.00000000E-01
  8.50000000E-01  8.50000000E-01  8.50000000E-01  8.00000000E-01  8.50000000E-01
  8.50000000E-01  8.50000000E-01  8.00000000E-01  8.50000000E-01  8.50000000E-01
  8.50000000E-01  8.00000000E-01  8.50000000E-01  8.50000000E-01  8.50000000E-01
  8.00000000E-01  8.50000000E-01  8.50000000E-01  8.50000000E-01  8.00000000E-01
  8.50000000E-01  8.50000000E-01  8.50000000E-01  8.00000000E-01  8.50000000E-01
  8.50000000E-01  8.50000000E-01  8.00000000E-01  8.50000000E-01  8.50000000E-01
  8.50000000E-01  8.00000000E-01  8.50000000E-01  8.50000000E-01  8.50000000E-01
  8.00000000E-01  8.50000000E-01  8.50000000E-01  8.50000000E-01  8.00000000E-01
  8.50000000E-01  8.50000000E-01  8.50000000E-01  8.00000000E-01  8.50000000E-01
  8.50000000E-01  8.50000000E-01  8.00000000E-01  8.50000000E-01  8.50000000E-01
  8.50000000E-01  8.00000000E-01  8.50000000E-01  8.50000000E-01  8.50000000E-01
  8.00000000E-01  8.50000000E-01  8.50000000E-01  8.50000000E-01  8.00000000E-01
  8.50000000E-01  8.50000000E-01  8.50000000E-01  8.00000000E-01  8.50000000E-01
  8.50000000E-01  8.50000000E-01  8.00000000E-01  8.50000000E-01  8.50000000E-01
  8.50000000E-01  8.00000000E-01  8.50000000E-01  8.50000000E-01  8.50000000E-01
  8.00000000E-01  8.50000000E-01  8.50000000E-01  8.50000000E-01  8.00000000E-01
  8.50000000E-01  8.50000000E-01  8.50000000E-01  8.00000000E-01  8.50000000E-01
  8.50000000E-01  8.50000000E-01  8.00000000E-01  8.50000000E-01  8.50000000E-01
  8.50000000E-01  8.00000000E-01  8.50000000E-01  8.50000000E-01  8.50000000E-01
  8.00000000E-01  8.50000000E-01  8.50000000E-01  8.50000000E-01  8.00000000E-01
  8.50000000E-01  8.50000000E-01  8.50000000E-01  8.00000000E-01  8.50000000E-01
  8.50000000E-01  8.50000000E-01  8.00000000E-01  8.50000000E-01  8.50000000E-01
  8.50000000E-01  8.00000000E-01  8.50000000E-01  8.50000000E-01  8.50000000E-01
  8.00000000E-01  8.50000000E-01  8.50000000E-01  8.50000000E-01  8.00000000E-01
  8.50000000E-01  8.50000000E-01  8.50000000E-01  8.00000000E-01  8.50000000E-01
  8.50000000E-01  8.50000000E-01  8.00000000E-01  8.50000000E-01  8.50000000E-01
  8.50000000E-01  8.00000000E-01  8.50000000E-01  8.50000000E-01  8.50000000E-01
  8.00000000E-01  8.50000000E-01  8.50000000E-01  8.50000000E-01  8.00000000E-01
  8.50000000E-01  8.50000000E-01  8.50000000E-01  8.00000000E-01  8.50000000E-01
  8.50000000E-01  8.50000000E-01  8.00000000E-01  8.50000000E-01  8.50000000E-01
  8.50000000E-01  8.00000000E-01  8.50000000E-01  8.50000000E-01  8.50000000E-01
  8.00000000E-01  8.50000000E-01  8.50000000E-01  8.50000000E-01  8.00000000E-01
  8.50000000E-01  8.50000000E-01  8.50000000E-01  8.00000000E-01  8.50000000E-01
  8.50000000E-01  8.50000000E-01  8.00000000E-01  8.50000000E-01  8.50000000E-01
  8.50000000E-01  8.00000000E-01  8.50000000E-01  8.50000000E-01  8.50000000E-01
  8.00000000E-01  8.50000000E-01  8.50000000E-01  8.50000000E-01  8.00000000E-01
  8.50000000E-01  8.50000000E-01  8.50000000E-01  8.00000000E-01  8.50000000E-01
  8.50000000E-01  8.50000000E-01  8.00000000E-01  8.50000000E-01  8.50000000E-01
  8.50000000E-01  8.00000000E-01  8.50000000E-01  8.50000000E-01  8.50000000E-01
  8.00000000E-01  8.50000000E-01  8.50000000E-01  8.50000000E-01  8.00000000E-01
  8.50000000E-01  8.50000000E-01  8.50000000E-01  8.00000000E-01  8.50000000E-01
  8.50000000E-01  8.50000000E-01  8.00000000E-01  8.50000000E-01  8.50000000E-01
  8.50000000E-01  8.00000000E-01  8.50000000E-01  8.50000000E-01  8.50000000E-01
  8.00000000E-01  8.50000000E-01  8.50000000E-01  8.50000000E-01  8.00000000E-01
  8.50000000E-01  8.50000000E-01  8.50000000E-01  8.00000000E-01  8.50000000E-01
  8.50000000E-01  8.50000000E-01  8.00000000E-01  8.50000000E-01  8.50000000E-01
  8.50000000E-01  8.00000000E-01  8.50000000E-01  8.50000000E-01  8.50000000E-01
  8.00000000E-01  8.50000000E-01  8.50000000E-01  8.50000000E-01  8.00000000E-01
  8.50000000E-01  8.50000000E-01  8.50000000E-01  8.00000000E-01  8.50000000E-01
  8.50000000E-01  8.50000000E-01  8.00000000E-01  8.50000000E-01  8.50000000E-01
  8.50000000E-01  8.00000000E-01  8.50000000E-01  8.50000000E-01  8.50000000E-01
  8.00000000E-01  8.50000000E-01  8.50000000E-01  8.50000000E-01  8.00000000E-01
  8.50000000E-01  8.50000000E-01  8.50000000E-01  8.00000000E-01  8.50000000E-01
  8.50000000E-01  8.50000000E-01  8.00000000E-01  8.50000000E-01  8.50000000E-01
  8.50000000E-01  8.00000000E-01  8.50000000E-01  8.50000000E-01  8.50000000E-01
  8.00000000E-01  8.50000000E-01  8.50000000E-01  8.50000000E-01  8.00000000E-01
  8.50000000E-01  8.50000000E-01  8.50000000E-01  8.00000000E-01  8.50000000E-01
  8.50000000E-01  8.50000000E-01  8.00000000E-01  8.50000000E-01  8.50000000E-01
  8.50000000E-01  8.00000000E-01  8.50000000E-01  8.50000000E-01  8.50000000E-01
  8.00000000E-01  8.50000000E-01  8.50000000E-01  8.50000000E-01  8.00000000E-01
  8.50000000E-01  8.50000000E-01  8.50000000E-01  8.00000000E-01  8.50000000E-01
  8.50000000E-01  8.50000000E-01  8.00000000E-01  8.50000000E-01  8.50000000E-01
  8.50000000E-01  8.00000000E-01  8.50000000E-01  8.50000000E-01  8.50000000E-01
  8.00000000E-01  8.50000000E-01  8.50000000E-01  8.50000000E-01  8.00000000E-01
  8.50000000E-01  8.50000000E-01  8.50000000E-01  8.00000000E-01  8.50000000E-01
  8.50000000E-01  8.50000000E-01  8.00000000E-01  8.50000000E-01  8.50000000E-01
  8.50000000E-01  8.00000000E-01  8.50000000E-01  8.50000000E-01  8.50000000E-01
  8.00000000E-01  8.50000000E-01  8.50000000E-01  8.50000000E-01  8.00000000E-01
  8.50000000E-01  8.50000000E-01  8.50000000E-01  8.00000000E-01  8.50000000E-01
  8.50000000E-01  8.50000000E-01  8.00000000E-01  8.50000000E-01  8.50000000E-01
  8.50000000E-01  8.00000000E-01  8.50000000E-01  8.50000000E-01  8.50000000E-01
  8.00000000E-01  8.50000000E-01  8.50000000E-01  8.50000000E-01  8.00000000E-01
  8.50000000E-01  8.50000000E-01  8.50000000E-01  8.00000000E-01  8.50000000E-01
  8.50000000E-01  8.50000000E-01  8.00000000E-01  8.50000000E-01  8.50000000E-01
  8.50000000E-01  8.00000000E-01  8.50000000E-01  8.50000000E-01  8.50000000E-01
  8.00000000E-01  8.50000000E-01  8.50000000E-01  8.50000000E-01  8.00000000E-01
  8.50000000E-01  8.50000000E-01  8.50000000E-01  8.00000000E-01  8.50000000E-01
  8.50000000E-01  8.50000000E-01  8.00000000E-01  8.50000000E-01  8.50000000E-01
  8.50000000E-01  8.00000000E-01  8.50000000E-01  8.50000000E-01  8.50000000E-01
  8.00000000E-01  8.50000000E-01  8.50000000E-01  8.50000000E-01  8.00000000E-01
  8.50000000E-01  8.50000000E-01  8.50000000E-01  8.00000000E-01  8.50000000E-01
  8.50000000E-01  8.50000000E-01  8.00000000E-01  8.50000000E-01  8.50000000E-01
  8.50000000E-01  8.00000000E-01  8.50000000E-01  8.50000000E-01  8.50000000E-01
  8.00000000E-01  8.50000000E-01  8.50000000E-01  8.50000000E-01  8.00000000E-01
  8.50000000E-01  8.50000000E-01  8.50000000E-01  8.00000000E-01  8.50000000E-01
  8.50000000E-01  8.50000000E-01  8.00000000E-01  8.50000000E-01  8.50000000E-01
  8.50000000E-01  8.00000000E-01  8.50000000E-01  8.50000000E-01  8.50000000E-01
  8.00000000E-01  8.50000000E-01  8.50000000E-01  8.50000000E-01  8.00000000E-01
  8.50000000E-01  8.50000000E-01  8.50000000E-01  8.00000000E-01  8.50000000E-01
  8.50000000E-01  8.50000000E-01  8.00000000E-01  8.50000000E-01  8.50000000E-01
  8.50000000E-01  8.00000000E-01  8.50000000E-01  8.50000000E-01  8.50000000E-01
  8.00000000E-01  8.50000000E-01  8.50000000E-01  8.50000000E-01  8.00000000E-01
  8.50000000E-01  8.50000000E-01  8.50000000E-01  8.00000000E-01  8.50000000E-01
  8.50000000E-01  8.50000000E-01  8.00000000E-01  8.50000000E-01  8.50000000E-01
  8.50000000E-01  8.00000000E-01  8.50000000E-01  8.50000000E-01  8.50000000E-01
  8.00000000E-01  8.50000000E-01  8.50000000E-01  8.50000000E-01  8.00000000E-01
  8.50000000E-01  8.50000000E-01  8.50000000E-01  8.00000000E-01  8.50000000E-01
  8.50000000E-01  8.50000000E-01  8.00000000E-01  8.50000000E-01  8.50000000E-01
  8.50000000E-01  8.00000000E-01  8.50000000E-01  8.50000000E-01  8.50000000E-01
  8.00000000E-01  8.50000000E-01  8.50000000E-01  8.50000000E-01  8.00000000E-01
  8.50000000E-01  8.50000000E-01  8.50000000E-01  8.00000000E-01  8.50000000E-01
  8.50000000E-01  8.50000000E-01  8.00000000E-01  8.50000000E-01  8.50000000E-01
  8.50000000E-01  8.00000000E-01  8.50000000E-01  8.50000000E-01  8.50000000E-01
  8.00000000E-01  8.50000000E-01  8.50000000E-01  8.50000000E-01  8.00000000E-01
  8.50000000E-01  8.50000000E-01  8.50000000E-01  8.00000000E-01  8.50000000E-01
  8.50000000E-01  8.50000000E-01  8.00000000E-01  8.50000000E-01  8.50000000E-01
  8.50000000E-01  8.00000000E-01  8.50000000E-01  8.50000000E-01  8.50000000E-01
  8.00000000E-01  8.50000000E-01  8.50000000E-01  8.50000000E-01  8.00000000E-01
  8.50000000E-01  8.50000000E-01  8.50000000E-01  8.00000000E-01  8.50000000E-01
  8.50000000E-01  8.50000000E-01  8.00000000E-01  8.50000000E-01  8.50000000E-01
  8.50000000E-01  8.00000000E-01  8.50000000E-01  8.50000000E-01  8.50000000E-01
  8.00000000E-01  8.50000000E-01  8.50000000E-01  8.50000000E-01  8.00000000E-01
  8.50000000E-01  8.50000000E-01  8.50000000E-01  8.00000000E-01  8.50000000E-01
  8.50000000E-01  8.50000000E-01  8.00000000E-01  8.50000000E-01  8.50000000E-01
  8.50000000E-01  8.00000000E-01  8.50000000E-01  8.50000000E-01  8.50000000E-01
  8.00000000E-01  8.50000000E-01  8.50000000E-01  8.50000000E-01  8.00000000E-01
  8.50000000E-01  8.50000000E-01  8.50000000E-01  8.00000000E-01  8.50000000E-01
  8.50000000E-01  8.50000000E-01  8.00000000E-01  8.50000000E-01  8.50000000E-01
  8.50000000E-01  8.00000000E-01  8.50000000E-01  8.50000000E-01  8.50000000E-01
  8.00000000E-01  8.50000000E-01  8.50000000E-01  8.50000000E-01  8.00000000E-01
  8.50000000E-01  8.50000000E-01  8.50000000E-01  8.00000000E-01  8.50000000E-01
  8.50000000E-01  8.50000000E-01  8.00000000E-01  8.50000000E-01  8.50000000E-01
  8.50000000E-01  8.00000000E-01  8.50000000E-01  8.50000000E-01  8.50000000E-01
  8.00000000E-01  8.50000000E-01  8.50000000E-01  8.50000000E-01  8.00000000E-01
  8.50000000E-01  8.50000000E-01  8.50000000E-01  8.00000000E-01  8.50000000E-01
  8.50000000E-01  8.50000000E-01  8.00000000E-01  8.50000000E-01  8.50000000E-01
  8.50000000E-01  8.00000000E-01  8.50000000E-01  8.50000000E-01  8.50000000E-01
  8.00000000E-01  8.50000000E-01  8.50000000E-01  8.50000000E-01  8.00000000E-01
  8.50000000E-01  8.50000000E-01  8.50000000E-01  8.00000000E-01  8.50000000E-01
  8.50000000E-01  8.50000000E-01  8.00000000E-01  8.50000000E-01  8.50000000E-01
  8.50000000E-01  8.00000000E-01  8.50000000E-01  8.50000000E-01  8.50000000E-01
  8.00000000E-01  8.50000000E-01  8.50000000E-01  8.50000000E-01  8.00000000E-01
  8.50000000E-01  8.50000000E-01  8.50000000E-01  8.00000000E-01  8.50000000E-01
  8.50000000E-01  8.50000000E-01  8.00000000E-01  8.50000000E-01  8.50000000E-01
  8.50000000E-01  8.00000000E-01  8.50000000E-01  8.50000000E-01  8.50000000E-01
  8.00000000E-01  8.50000000E-01  8.50000000E-01  8.50000000E-01  8.00000000E-01
  8.50000000E-01  8.50000000E-01  8.50000000E-01  8.00000000E-01  8.50000000E-01
  8.50000000E-01  8.50000000E-01  8.00000000E-01  8.50000000E-01  8.50000000E-01
  8.50000000E-01  8.00000000E-01  8.50000000E-01  8.50000000E-01  8.50000000E-01
  8.00000000E-01  8.50000000E-01  8.50000000E-01  8.50000000E-01  8.00000000E-01
  8.50000000E-01  8.50000000E-01  8.50000000E-01  8.00000000E-01  8.50000000E-01
  8.50000000E-01  8.50000000E-01  8.00000000E-01  8.50000000E-01  8.50000000E-01
  8.50000000E-01  8.00000000E-01  8.50000000E-01  8.50000000E-01  8.50000000E-01
  8.00000000E-01  8.50000000E-01  8.50000000E-01  8.50000000E-01  8.00000000E-01
  8.50000000E-01  8.50000000E-01  8.50000000E-01  8.00000000E-01  8.50000000E-01
  8.50000000E-01  8.50000000E-01  8.00000000E-01  8.50000000E-01  8.50000000E-01
  8.50000000E-01  8.00000000E-01  8.50000000E-01  8.50000000E-01  8.50000000E-01
  8.00000000E-01  8.50000000E-01  8.50000000E-01  8.50000000E-01  8.00000000E-01
  8.50000000E-01  8.50000000E-01  8.50000000E-01  8.00000000E-01  8.50000000E-01
  8.50000000E-01  8.50000000E-01  8.00000000E-01  8.50000000E-01  8.50000000E-01
  8.50000000E-01  8.00000000E-01  8.50000000E-01  8.50000000E-01  8.50000000E-01
  8.00000000E-01  8.50000000E-01  8.50000000E-01  8.50000000E-01  8.00000000E-01
  8.50000000E-01  8.50000000E-01  8.50000000E-01  8.00000000E-01  8.50000000E-01
  8.50000000E-01  8.50000000E-01  8.00000000E-01  8.50000000E-01  8.50000000E-01
  8.50000000E-01  8.00000000E-01  8.50000000E-01  8.50000000E-01  8.50000000E-01
  8.00000000E-01  8.50000000E-01  8.50000000E-01  8.50000000E-01  8.00000000E-01
  8.50000000E-01  8.50000000E-01  8.50000000E-01  8.00000000E-01  8.50000000E-01
  8.50000000E-01  8.50000000E-01  8.00000000E-01  8.50000000E-01  8.50000000E-01
  8.50000000E-01  8.00000000E-01  8.50000000E-01  8.50000000E-01  8.50000000E-01
  8.00000000E-01  8.50000000E-01  8.50000000E-01  8.50000000E-01  8.00000000E-01
  8.50000000E-01  8.50000000E-01  8.50000000E-01  8.00000000E-01  8.50000000E-01
  8.50000000E-01  8.50000000E-01  8.00000000E-01  8.50000000E-01  8.50000000E-01
  8.50000000E-01  8.00000000E-01  8.50000000E-01  8.50000000E-01  8.50000000E-01
  8.00000000E-01  8.50000000E-01  8.50000000E-01  8.50000000E-01  8.00000000E-01
  8.50000000E-01  8.50000000E-01  8.50000000E-01  8.00000000E-01  8.50000000E-01
  8.50000000E-01  8.50000000E-01  8.00000000E-01  8.50000000E-01  8.50000000E-01
  8.50000000E-01  8.00000000E-01  8.50000000E-01  8.50000000E-01  8.50000000E-01
  8.00000000E-01  8.50000000E-01  8.50000000E-01  8.50000000E-01  8.00000000E-01
  8.50000000E-01  8.50000000E-01  8.50000000E-01  8.00000000E-01  8.50000000E-01
  8.50000000E-01  8.50000000E-01  8.00000000E-01  8.50000000E-01  8.50000000E-01
  8.50000000E-01  8.00000000E-01  8.50000000E-01  8.50000000E-01  8.50000000E-01
  8.00000000E-01  8.50000000E-01  8.50000000E-01  8.50000000E-01  8.00000000E-01
  8.50000000E-01  8.50000000E-01  8.50000000E-01  8.00000000E-01  8.50000000E-01
  8.50000000E-01  8.50000000E-01  8.00000000E-01  8.50000000E-01  8.50000000E-01
  8.50000000E-01  8.00000000E-01  8.50000000E-01  8.50000000E-01  8.50000000E-01
  8.00000000E-01  8.50000000E-01  8.50000000E-01  8.50000000E-01  8.00000000E-01
  8.50000000E-01  8.50000000E-01  8.50000000E-01  8.00000000E-01  8.50000000E-01
  8.50000000E-01  8.50000000E-01  8.00000000E-01  8.50000000E-01  8.50000000E-01
  8.50000000E-01  8.00000000E-01  8.50000000E-01  8.50000000E-01  8.50000000E-01
  8.00000000E-01  8.50000000E-01  8.50000000E-01  8.50000000E-01  8.00000000E-01
  8.50000000E-01  8.50000000E-01  8.50000000E-01  8.00000000E-01  8.50000000E-01
  8.50000000E-01  8.50000000E-01  8.00000000E-01  8.50000000E-01  8.50000000E-01
  8.50000000E-01  8.00000000E-01  8.50000000E-01  8.50000000E-01  8.50000000E-01
  8.00000000E-01  8.50000000E-01  8.50000000E-01  8.50000000E-01  8.00000000E-01
  8.50000000E-01  8.50000000E-01  8.50000000E-01  8.00000000E-01  8.50000000E-01
  8.50000000E-01  8.50000000E-01  8.00000000E-01  8.50000000E-01  8.50000000E-01
  8.50000000E-01  8.00000000E-01  8.50000000E-01  8.50000000E-01  8.50000000E-01
  8.00000000E-01  8.50000000E-01  8.50000000E-01  8.50000000E-01  8.00000000E-01
  8.50000000E-01  8.50000000E-01  8.50000000E-01  8.00000000E-01  8.50000000E-01
  8.50000000E-01  8.50000000E-01  8.00000000E-01  8.50000000E-01  8.50000000E-01
  8.50000000E-01  8.00000000E-01  8.50000000E-01  8.50000000E-01  8.50000000E-01
  8.00000000E-01  8.50000000E-01  8.50000000E-01  8.50000000E-01  8.00000000E-01
  8.50000000E-01  8.50000000E-01  8.50000000E-01  8.00000000E-01  8.50000000E-01
  8.50000000E-01  8.50000000E-01  8.00000000E-01  8.50000000E-01  8.50000000E-01
  8.50000000E-01  8.00000000E-01  8.50000000E-01  8.50000000E-01  8.50000000E-01
  8.00000000E-01  8.50000000E-01  8.50000000E-01  8.50000000E-01  8.00000000E-01
  8.50000000E-01  8.50000000E-01  8.50000000E-01  8.00000000E-01  8.50000000E-01
  8.50000000E-01  8.50000000E-01  8.00000000E-01  8.50000000E-01  8.50000000E-01
  8.50000000E-01  8.00000000E-01  8.50000000E-01  8.50000000E-01  8.50000000E-01
  8.00000000E-01  8.50000000E-01  8.50000000E-01  8.50000000E-01  8.00000000E-01
  8.50000000E-01  8.50000000E-01  8.50000000E-01  8.00000000E-01  8.50000000E-01
  8.50000000E-01  8.50000000E-01  8.00000000E-01  8.50000000E-01  8.50000000E-01
  8.50000000E-01  8.00000000E-01  8.50000000E-01  8.50000000E-01  8.50000000E-01
  8.00000000E-01  8.50000000E-01  8.50000000E-01  8.50000000E-01  8.00000000E-01
  8.50000000E-01  8.50000000E-01  8.50000000E-01  8.00000000E-01  8.50000000E-01
  8.50000000E-01  8.50000000E-01  8.00000000E-01  8.50000000E-01  8.50000000E-01
  8.50000000E-01  8.00000000E-01  8.50000000E-01  8.50000000E-01  8.50000000E-01
  8.00000000E-01  8.50000000E-01  8.50000000E-01  8.50000000E-01  8.00000000E-01
  8.50000000E-01  8.50000000E-01  8.50000000E-01  8.00000000E-01  8.50000000E-01
  8.50000000E-01  8.50000000E-01  8.00000000E-01  8.50000000E-01  8.50000000E-01
  8.50000000E-01  8.00000000E-01  8.50000000E-01  8.50000000E-01  8.50000000E-01
  8.00000000E-01  8.50000000E-01  8.50000000E-01  8.50000000E-01  8.00000000E-01
  8.50000000E-01  8.50000000E-01  8.50000000E-01  8.00000000E-01  8.50000000E-01
  8.50000000E-01  8.50000000E-01  8.00000000E-01  8.50000000E-01  8.50000000E-01
  8.50000000E-01  8.00000000E-01  8.50000000E-01  8.50000000E-01  8.50000000E-01
  8.00000000E-01  8.50000000E-01  8.50000000E-01  8.50000000E-01  8.00000000E-01
  8.50000000E-01  8.50000000E-01  8.50000000E-01  8.00000000E-01  8.50000000E-01
  8.50000000E-01  8.50000000E-01  8.00000000E-01  8.50000000E-01  8.50000000E-01
  8.50000000E-01  8.00000000E-01  8.50000000E-01  8.50000000E-01  8.50000000E-01
  8.00000000E-01  8.50000000E-01  8.50000000E-01  8.50000000E-01  8.00000000E-01
  8.50000000E-01  8.50000000E-01  8.50000000E-01  8.00000000E-01  8.50000000E-01
  8.50000000E-01  8.50000000E-01  8.00000000E-01  8.50000000E-01  8.50000000E-01
  8.50000000E-01  8.00000000E-01  8.50000000E-01  8.50000000E-01  8.50000000E-01
  8.00000000E-01  8.50000000E-01  8.50000000E-01  8.50000000E-01  8.00000000E-01
  8.50000000E-01  8.50000000E-01  8.50000000E-01  8.00000000E-01  8.50000000E-01
  8.50000000E-01  8.50000000E-01  8.00000000E-01  8.50000000E-01  8.50000000E-01
  8.50000000E-01  8.00000000E-01  8.50000000E-01  8.50000000E-01  8.50000000E-01
  8.00000000E-01  8.50000000E-01  8.50000000E-01  8.50000000E-01  8.00000000E-01
  8.50000000E-01  8.50000000E-01  8.50000000E-01  8.00000000E-01  8.50000000E-01
  8.50000000E-01  8.50000000E-01  8.00000000E-01  8.50000000E-01  8.50000000E-01
  8.50000000E-01  8.00000000E-01  8.50000000E-01  8.50000000E-01  8.50000000E-01
  8.00000000E-01  8.50000000E-01  8.50000000E-01  8.50000000E-01  8.00000000E-01
  8.50000000E-01  8.50000000E-01  8.50000000E-01  8.00000000E-01  8.50000000E-01
  8.50000000E-01  8.50000000E-01  8.00000000E-01  8.50000000E-01  8.50000000E-01
  8.50000000E-01  8.00000000E-01  8.50000000E-01  8.50000000E-01  8.50000000E-01
  8.00000000E-01  8.50000000E-01  8.50000000E-01  8.50000000E-01  8.00000000E-01
  8.50000000E-01  8.50000000E-01  8.50000000E-01  8.00000000E-01  8.50000000E-01
  8.50000000E-01  8.50000000E-01  8.00000000E-01  8.50000000E-01  8.50000000E-01
  8.50000000E-01  8.00000000E-01  8.50000000E-01  8.50000000E-01  8.50000000E-01
  8.00000000E-01  8.50000000E-01  8.50000000E-01  8.50000000E-01  8.00000000E-01
  8.50000000E-01  8.50000000E-01  8.50000000E-01  8.00000000E-01  8.50000000E-01
  8.50000000E-01  8.50000000E-01  8.00000000E-01  8.50000000E-01  8.50000000E-01
  8.50000000E-01  8.00000000E-01  8.50000000E-01  8.50000000E-01  8.50000000E-01
  8.00000000E-01  8.50000000E-01  8.50000000E-01  8.50000000E-01  8.00000000E-01
  8.50000000E-01  8.50000000E-01  8.50000000E-01  8.00000000E-01  8.50000000E-01
  8.50000000E-01  8.50000000E-01  8.00000000E-01  8.50000000E-01  8.50000000E-01
  8.50000000E-01  8.00000000E-01  8.50000000E-01  8.50000000E-01  8.50000000E-01
  8.00000000E-01  8.50000000E-01  8.50000000E-01  8.50000000E-01  8.00000000E-01
  8.50000000E-01  8.50000000E-01  8.50000000E-01  8.00000000E-01  8.50000000E-01
  8.50000000E-01  8.50000000E-01  8.00000000E-01  8.50000000E-01  8.50000000E-01
  8.50000000E-01  8.00000000E-01  8.50000000E-01  8.50000000E-01  8.50000000E-01
  8.00000000E-01  8.50000000E-01  8.50000000E-01  8.50000000E-01  8.00000000E-01
  8.50000000E-01  8.50000000E-01  8.50000000E-01  8.00000000E-01  8.50000000E-01
  8.50000000E-01  8.50000000E-01  8.00000000E-01  8.50000000E-01  8.50000000E-01
  8.50000000E-01  8.00000000E-01  8.50000000E-01  8.50000000E-01  8.50000000E-01
  8.00000000E-01  8.50000000E-01  8.50000000E-01  8.50000000E-01  8.00000000E-01
  8.50000000E-01  8.50000000E-01  8.50000000E-01  8.00000000E-01  8.50000000E-01
  8.50000000E-01  8.50000000E-01  8.00000000E-01  8.50000000E-01  8.50000000E-01
  8.50000000E-01  8.00000000E-01  8.50000000E-01  8.50000000E-01  8.50000000E-01
  8.00000000E-01  8.50000000E-01  8.50000000E-01  8.50000000E-01  8.00000000E-01
  8.50000000E-01  8.50000000E-01  8.50000000E-01  8.00000000E-01  8.50000000E-01
  8.50000000E-01  8.50000000E-01  8.00000000E-01  8.50000000E-01  8.50000000E-01
  8.50000000E-01  8.00000000E-01  8.50000000E-01  8.50000000E-01  8.50000000E-01
  8.00000000E-01  8.50000000E-01  8.50000000E-01  8.50000000E-01  8.00000000E-01
  8.50000000E-01  8.50000000E-01  8.50000000E-01  8.00000000E-01  8.50000000E-01
  8.50000000E-01  8.50000000E-01  8.00000000E-01  8.50000000E-01  8.50000000E-01
  8.50000000E-01  8.00000000E-01  8.50000000E-01  8.50000000E-01  8.50000000E-01
  8.00000000E-01  8.50000000E-01  8.50000000E-01  8.50000000E-01  8.00000000E-01
  8.50000000E-01  8.50000000E-01  8.50000000E-01  8.00000000E-01  8.50000000E-01
  8.50000000E-01  8.50000000E-01  8.00000000E-01  8.50000000E-01  8.50000000E-01
  8.50000000E-01  8.00000000E-01  8.50000000E-01  8.50000000E-01  8.50000000E-01
  8.00000000E-01  8.50000000E-01  8.50000000E-01  8.50000000E-01  8.00000000E-01
  8.50000000E-01  8.50000000E-01  8.50000000E-01  8.00000000E-01  8.50000000E-01
  8.50000000E-01  8.50000000E-01  8.00000000E-01  8.50000000E-01  8.50000000E-01
  8.50000000E-01  8.00000000E-01  8.50000000E-01  8.50000000E-01  8.50000000E-01
  8.00000000E-01  8.50000000E-01  8.50000000E-01  8.50000000E-01  8.00000000E-01
  8.50000000E-01  8.50000000E-01  8.50000000E-01  8.00000000E-01  8.50000000E-01
  8.50000000E-01  8.50000000E-01  8.00000000E-01  8.50000000E-01  8.50000000E-01
  8.50000000E-01  8.00000000E-01  8.50000000E-01  8.50000000E-01  8.50000000E-01
  8.00000000E-01  8.50000000E-01  8.50000000E-01  8.50000000E-01  8.00000000E-01
  8.50000000E-01  8.50000000E-01  8.50000000E-01  8.00000000E-01  8.50000000E-01
  8.50000000E-01  8.50000000E-01  8.00000000E-01  8.50000000E-01  8.50000000E-01
  8.50000000E-01  8.00000000E-01  8.50000000E-01  8.50000000E-01  8.50000000E-01
  8.00000000E-01  8.50000000E-01  8.50000000E-01  8.50000000E-01  8.00000000E-01
  8.50000000E-01  8.50000000E-01  8.50000000E-01  8.00000000E-01  8.50000000E-01
  8.50000000E-01  8.50000000E-01  8.00000000E-01  8.50000000E-01  8.50000000E-01
  8.50000000E-01  8.00000000E-01  8.50000000E-01  8.50000000E-01  8.50000000E-01
  8.00000000E-01  8.50000000E-01  8.50000000E-01  8.50000000E-01  8.00000000E-01
  8.50000000E-01  8.50000000E-01  8.50000000E-01  8.00000000E-01  8.50000000E-01
  8.50000000E-01  8.50000000E-01  8.00000000E-01  8.50000000E-01  8.50000000E-01
  8.50000000E-01  8.00000000E-01  8.50000000E-01  8.50000000E-01  8.50000000E-01
  8.00000000E-01  8.50000000E-01  8.50000000E-01  8.50000000E-01  8.00000000E-01
  8.50000000E-01  8.50000000E-01  8.50000000E-01  8.00000000E-01  8.50000000E-01
  8.50000000E-01  8.50000000E-01  8.00000000E-01  8.50000000E-01  8.50000000E-01
  8.50000000E-01  8.00000000E-01  8.50000000E-01  8.50000000E-01  8.50000000E-01
  8.00000000E-01  8.50000000E-01  8.50000000E-01  8.50000000E-01  8.00000000E-01
  8.50000000E-01  8.50000000E-01  8.50000000E-01  8.00000000E-01  8.50000000E-01
  8.50000000E-01  8.50000000E-01  8.00000000E-01  8.50000000E-01  8.50000000E-01
  8.50000000E-01  8.00000000E-01  8.50000000E-01  8.50000000E-01  8.50000000E-01
  8.00000000E-01  8.50000000E-01  8.50000000E-01  8.50000000E-01  8.00000000E-01
  8.50000000E-01  8.50000000E-01  8.50000000E-01  8.00000000E-01  8.50000000E-01
  8.50000000E-01  8.50000000E-01  8.00000000E-01  8.50000000E-01  8.50000000E-01
  8.50000000E-01  8.00000000E-01  8.50000000E-01  8.50000000E-01  8.50000000E-01
  8.00000000E-01  8.50000000E-01  8.50000000E-01  8.50000000E-01  8.00000000E-01
  8.50000000E-01  8.50000000E-01  8.50000000E-01  8.00000000E-01  8.50000000E-01
  8.50000000E-01  8.50000000E-01  8.00000000E-01  8.50000000E-01  8.50000000E-01
  8.50000000E-01  8.00000000E-01  8.50000000E-01  8.50000000E-01  8.50000000E-01
  8.00000000E-01  8.50000000E-01  8.50000000E-01  8.50000000E-01  8.00000000E-01
  8.50000000E-01  8.50000000E-01  8.50000000E-01  8.00000000E-01  8.50000000E-01
  8.50000000E-01  8.50000000E-01  8.00000000E-01  8.50000000E-01  8.50000000E-01
  8.50000000E-01  8.00000000E-01  8.50000000E-01  8.50000000E-01  8.50000000E-01
  8.00000000E-01  8.50000000E-01  8.50000000E-01  8.50000000E-01  8.00000000E-01
  8.50000000E-01  8.50000000E-01  8.50000000E-01  8.00000000E-01  8.50000000E-01
  8.50000000E-01  8.50000000E-01  8.00000000E-01  8.50000000E-01  8.50000000E-01
  8.50000000E-01  8.00000000E-01  8.50000000E-01  8.50000000E-01  8.50000000E-01
  8.00000000E-01  8.50000000E-01  8.50000000E-01  8.50000000E-01  8.00000000E-01
  8.50000000E-01  8.50000000E-01  8.50000000E-01  8.00000000E-01  8.50000000E-01
  8.50000000E-01  8.50000000E-01  8.00000000E-01  8.50000000E-01  8.50000000E-01
  8.50000000E-01  8.00000000E-01  8.50000000E-01  8.50000000E-01  8.50000000E-01
  8.00000000E-01  8.50000000E-01  8.50000000E-01  8.50000000E-01  8.00000000E-01
  8.50000000E-01  8.50000000E-01  8.50000000E-01  8.00000000E-01  8.50000000E-01
  8.50000000E-01  8.50000000E-01  8.00000000E-01  8.50000000E-01  8.50000000E-01
  8.50000000E-01  8.00000000E-01  8.50000000E-01  8.50000000E-01  8.50000000E-01
  8.00000000E-01  8.50000000E-01  8.50000000E-01  8.50000000E-01  8.00000000E-01
  8.50000000E-01  8.50000000E-01  8.50000000E-01  8.00000000E-01  8.50000000E-01
  8.50000000E-01  8.50000000E-01  8.00000000E-01  8.50000000E-01  8.50000000E-01
  8.50000000E-01  8.00000000E-01  8.50000000E-01  8.50000000E-01  8.50000000E-01
  8.00000000E-01  8.50000000E-01  8.50000000E-01  8.50000000E-01  8.00000000E-01
  8.50000000E-01  8.50000000E-01  8.50000000E-01  8.00000000E-01  8.50000000E-01
  8.50000000E-01  8.50000000E-01  8.00000000E-01  8.50000000E-01  8.50000000E-01
  8.50000000E-01  8.00000000E-01  8.50000000E-01  8.50000000E-01  8.50000000E-01
  8.00000000E-01  8.50000000E-01  8.50000000E-01  8.50000000E-01  8.00000000E-01
  8.50000000E-01  8.50000000E-01  8.50000000E-01  8.00000000E-01  8.50000000E-01
  8.50000000E-01  8.50000000E-01  8.00000000E-01  8.50000000E-01  8.50000000E-01
  8.50000000E-01  8.00000000E-01  8.50000000E-01  8.50000000E-01  8.50000000E-01
  8.00000000E-01  8.50000000E-01  8.50000000E-01  8.50000000E-01  8.00000000E-01
  8.50000000E-01  8.50000000E-01  8.50000000E-01  8.00000000E-01  8.50000000E-01
  8.50000000E-01  8.50000000E-01  8.00000000E-01  8.50000000E-01  8.50000000E-01
  8.50000000E-01  8.00000000E-01  8.50000000E-01  8.50000000E-01  8.50000000E-01
  8.00000000E-01  8.50000000E-01  8.50000000E-01  8.50000000E-01  8.00000000E-01
  8.50000000E-01  8.50000000E-01  8.50000000E-01  8.00000000E-01  8.50000000E-01
  8.50000000E-01  8.50000000E-01  8.00000000E-01  8.50000000E-01  8.50000000E-01
  8.50000000E-01  8.00000000E-01  8.50000000E-01  8.50000000E-01  8.50000000E-01
  8.00000000E-01  8.50000000E-01  8.50000000E-01  8.50000000E-01  8.00000000E-01
  8.50000000E-01  8.50000000E-01  8.50000000E-01  8.00000000E-01  8.50000000E-01
  8.50000000E-01  8.50000000E-01  8.00000000E-01  8.50000000E-01  8.50000000E-01
  8.50000000E-01  8.00000000E-01  8.50000000E-01  8.50000000E-01  8.50000000E-01
  8.00000000E-01  8.50000000E-01  8.50000000E-01  8.50000000E-01  8.00000000E-01
  8.50000000E-01  8.50000000E-01  8.50000000E-01  8.00000000E-01  8.50000000E-01
  8.50000000E-01  8.50000000E-01  8.00000000E-01  8.50000000E-01  8.50000000E-01
  8.50000000E-01  8.00000000E-01  8.50000000E-01  8.50000000E-01  8.50000000E-01
  8.00000000E-01  8.50000000E-01  8.50000000E-01  8.50000000E-01  8.00000000E-01
  8.50000000E-01  8.50000000E-01  8.50000000E-01  8.00000000E-01  8.50000000E-01
  8.50000000E-01  8.50000000E-01  8.00000000E-01  8.50000000E-01  8.50000000E-01
  8.50000000E-01  8.00000000E-01  8.50000000E-01  8.50000000E-01  8.50000000E-01
  8.00000000E-01  8.50000000E-01  8.50000000E-01  8.50000000E-01  8.00000000E-01
  8.50000000E-01  8.50000000E-01  8.50000000E-01  8.00000000E-01  8.50000000E-01
  8.50000000E-01  8.50000000E-01  8.00000000E-01  8.50000000E-01  8.50000000E-01
  8.50000000E-01  8.00000000E-01  8.50000000E-01  8.50000000E-01  8.50000000E-01
  8.00000000E-01  8.50000000E-01  8.50000000E-01  8.50000000E-01  8.00000000E-01
  8.50000000E-01  8.50000000E-01  8.50000000E-01  8.00000000E-01  8.50000000E-01
  8.50000000E-01  8.50000000E-01  8.00000000E-01  8.50000000E-01  8.50000000E-01
  8.50000000E-01  8.00000000E-01  8.50000000E-01  8.50000000E-01  8.50000000E-01
  8.00000000E-01  8.50000000E-01  8.50000000E-01  8.50000000E-01  8.00000000E-01
  8.50000000E-01  8.50000000E-01  8.50000000E-01  8.00000000E-01  8.50000000E-01
  8.50000000E-01  8.50000000E-01  8.00000000E-01  8.50000000E-01  8.50000000E-01
  8.50000000E-01  8.00000000E-01  8.50000000E-01  8.50000000E-01  8.50000000E-01
  8.00000000E-01  8.50000000E-01  8.50000000E-01  8.50000000E-01  8.00000000E-01
  8.50000000E-01  8.50000000E-01  8.50000000E-01  8.00000000E-01  8.50000000E-01
  8.50000000E-01  8.50000000E-01  8.00000000E-01  8.50000000E-01  8.50000000E-01
  8.50000000E-01  8.00000000E-01  8.50000000E-01  8.50000000E-01  8.50000000E-01
  8.00000000E-01  8.50000000E-01  8.50000000E-01  8.50000000E-01  8.00000000E-01
  8.50000000E-01  8.50000000E-01  8.50000000E-01  8.00000000E-01  8.50000000E-01
  8.50000000E-01  8.50000000E-01  8.00000000E-01  8.50000000E-01  8.50000000E-01
  8.50000000E-01  8.00000000E-01  8.50000000E-01  8.50000000E-01  8.50000000E-01
  8.00000000E-01  8.50000000E-01  8.50000000E-01  8.50000000E-01  8.00000000E-01
  8.50000000E-01  8.50000000E-01  8.50000000E-01  8.00000000E-01  8.50000000E-01
  8.50000000E-01  8.50000000E-01  8.00000000E-01  8.50000000E-01  8.50000000E-01
  8.50000000E-01  8.00000000E-01  8.50000000E-01  8.50000000E-01  8.50000000E-01
  8.00000000E-01  8.50000000E-01  8.50000000E-01  8.50000000E-01  8.00000000E-01
  8.50000000E-01  8.50000000E-01  8.50000000E-01  8.00000000E-01  8.50000000E-01
  8.50000000E-01  8.50000000E-01  8.00000000E-01  8.50000000E-01  8.50000000E-01
  8.50000000E-01  8.00000000E-01  8.50000000E-01  8.50000000E-01  8.50000000E-01
  8.00000000E-01  8.50000000E-01  8.50000000E-01  8.50000000E-01  8.00000000E-01
  8.50000000E-01  8.50000000E-01  8.50000000E-01  8.00000000E-01  8.50000000E-01
  8.50000000E-01  8.50000000E-01  8.00000000E-01  8.50000000E-01  8.50000000E-01
  8.50000000E-01  8.00000000E-01  8.50000000E-01  8.50000000E-01  8.50000000E-01
  8.00000000E-01  8.50000000E-01  8.50000000E-01  8.50000000E-01  8.00000000E-01
  8.50000000E-01  8.50000000E-01  8.50000000E-01  8.00000000E-01  8.50000000E-01
  8.50000000E-01  8.50000000E-01  8.00000000E-01  8.50000000E-01  8.50000000E-01
  8.50000000E-01  8.00000000E-01  8.50000000E-01  8.50000000E-01  8.50000000E-01
  8.00000000E-01  8.50000000E-01  8.50000000E-01  8.50000000E-01  8.00000000E-01
  8.50000000E-01  8.50000000E-01  8.50000000E-01  8.00000000E-01  8.50000000E-01
  8.50000000E-01  8.50000000E-01  8.00000000E-01  8.50000000E-01  8.50000000E-01
  8.50000000E-01  8.00000000E-01  8.50000000E-01  8.50000000E-01  8.50000000E-01
  8.00000000E-01  8.50000000E-01  8.50000000E-01  8.50000000E-01  8.00000000E-01
  8.50000000E-01  8.50000000E-01  8.50000000E-01  8.00000000E-01  8.50000000E-01
  8.50000000E-01  8.50000000E-01  8.00000000E-01  8.50000000E-01  8.50000000E-01
  8.50000000E-01  8.00000000E-01  8.50000000E-01  8.50000000E-01  8.50000000E-01
  8.00000000E-01  8.50000000E-01  8.50000000E-01  8.50000000E-01  8.00000000E-01
  8.50000000E-01  8.50000000E-01  8.50000000E-01  8.00000000E-01  8.50000000E-01
  8.50000000E-01  8.50000000E-01  8.00000000E-01  8.50000000E-01  8.50000000E-01
  8.50000000E-01  8.00000000E-01  8.50000000E-01  8.50000000E-01  8.50000000E-01
  8.00000000E-01  8.50000000E-01  8.50000000E-01  8.50000000E-01  8.00000000E-01
  8.50000000E-01  8.50000000E-01  8.50000000E-01  8.00000000E-01  8.50000000E-01
  8.50000000E-01  8.50000000E-01  8.00000000E-01  8.50000000E-01  8.50000000E-01
  8.50000000E-01  8.00000000E-01  8.50000000E-01  8.50000000E-01  8.50000000E-01
  8.00000000E-01  8.50000000E-01  8.50000000E-01  8.50000000E-01  8.00000000E-01
  8.50000000E-01  8.50000000E-01  8.50000000E-01  8.00000000E-01  8.50000000E-01
  8.50000000E-01  8.50000000E-01  8.00000000E-01  8.50000000E-01  8.50000000E-01
  8.50000000E-01  8.00000000E-01  8.50000000E-01  8.50000000E-01  8.50000000E-01
  8.00000000E-01  8.50000000E-01  8.50000000E-01  8.50000000E-01  8.00000000E-01
  8.50000000E-01  8.50000000E-01  8.50000000E-01  8.00000000E-01  8.50000000E-01
  8.50000000E-01  8.50000000E-01  8.00000000E-01  8.50000000E-01  8.50000000E-01
  8.50000000E-01  8.00000000E-01  8.50000000E-01  8.50000000E-01  8.50000000E-01
  8.00000000E-01  8.50000000E-01  8.50000000E-01  8.50000000E-01  8.00000000E-01
  8.50000000E-01  8.50000000E-01  8.50000000E-01  8.00000000E-01  8.50000000E-01
  8.50000000E-01  8.50000000E-01  8.00000000E-01  8.50000000E-01  8.50000000E-01
  8.50000000E-01  8.00000000E-01  8.50000000E-01  8.50000000E-01  8.50000000E-01
  8.00000000E-01  8.50000000E-01  8.50000000E-01  8.50000000E-01  8.00000000E-01
  8.50000000E-01  8.50000000E-01  8.50000000E-01  8.00000000E-01  8.50000000E-01
  8.50000000E-01  8.50000000E-01  8.00000000E-01  8.50000000E-01  8.50000000E-01
  8.50000000E-01  8.00000000E-01  8.50000000E-01  8.50000000E-01  8.50000000E-01
  8.00000000E-01  8.50000000E-01  8.50000000E-01  8.50000000E-01  8.00000000E-01
  8.50000000E-01  8.50000000E-01  8.50000000E-01  8.00000000E-01  8.50000000E-01
  8.50000000E-01  8.50000000E-01  8.00000000E-01  8.50000000E-01  8.50000000E-01
  8.50000000E-01  8.00000000E-01  8.50000000E-01  8.50000000E-01  8.50000000E-01
  8.00000000E-01  8.50000000E-01  8.50000000E-01  8.50000000E-01  8.00000000E-01
  8.50000000E-01  8.50000000E-01  8.50000000E-01  8.00000000E-01  8.50000000E-01
  8.50000000E-01  8.50000000E-01  8.00000000E-01  8.50000000E-01  8.50000000E-01
  8.50000000E-01  8.00000000E-01  8.50000000E-01  8.50000000E-01  8.50000000E-01
  8.00000000E-01  8.50000000E-01  8.50000000E-01  8.50000000E-01  8.00000000E-01
  8.50000000E-01  8.50000000E-01  8.50000000E-01  8.00000000E-01  8.50000000E-01
  8.50000000E-01  8.50000000E-01  8.00000000E-01  8.50000000E-01  8.50000000E-01
  8.50000000E-01  8.00000000E-01  8.50000000E-01  8.50000000E-01  8.50000000E-01
  8.00000000E-01  8.50000000E-01  8.50000000E-01  8.50000000E-01  8.00000000E-01
  8.50000000E-01  8.50000000E-01  8.50000000E-01  8.00000000E-01  8.50000000E-01
  8.50000000E-01  8.50000000E-01  8.00000000E-01  8.50000000E-01  8.50000000E-01
  8.50000000E-01  8.00000000E-01  8.50000000E-01  8.50000000E-01  8.50000000E-01
  8.00000000E-01  8.50000000E-01  8.50000000E-01  8.50000000E-01  8.00000000E-01
  8.50000000E-01  8.50000000E-01  8.50000000E-01  8.00000000E-01  8.50000000E-01
  8.50000000E-01  8.50000000E-01  8.00000000E-01  8.50000000E-01  8.50000000E-01
  8.50000000E-01  8.00000000E-01  8.50000000E-01  8.50000000E-01  8.50000000E-01
  8.00000000E-01  8.50000000E-01  8.50000000E-01  8.50000000E-01  8.00000000E-01
  8.50000000E-01  8.50000000E-01  8.50000000E-01  8.00000000E-01  8.50000000E-01
  8.50000000E-01  8.50000000E-01  8.00000000E-01  8.50000000E-01  8.50000000E-01
  8.50000000E-01  8.00000000E-01  8.50000000E-01  8.50000000E-01  8.50000000E-01
  8.00000000E-01  8.50000000E-01  8.50000000E-01  8.50000000E-01  8.00000000E-01
  8.50000000E-01  8.50000000E-01  8.50000000E-01  8.00000000E-01  8.50000000E-01
  8.50000000E-01  8.50000000E-01  8.00000000E-01  8.50000000E-01  8.50000000E-01
  8.50000000E-01  8.00000000E-01  8.50000000E-01  8.50000000E-01  8.50000000E-01
  8.00000000E-01  8.50000000E-01  8.50000000E-01  8.50000000E-01  8.00000000E-01
  8.50000000E-01  8.50000000E-01  8.50000000E-01  8.00000000E-01  8.50000000E-01
  8.50000000E-01  8.50000000E-01  8.00000000E-01  8.50000000E-01  8.50000000E-01
  8.50000000E-01  8.00000000E-01  8.50000000E-01  8.50000000E-01  8.50000000E-01
  8.00000000E-01  8.50000000E-01  8.50000000E-01  8.50000000E-01  8.00000000E-01
  8.50000000E-01  8.50000000E-01  8.50000000E-01  8.00000000E-01  8.50000000E-01
  8.50000000E-01  8.50000000E-01  8.00000000E-01  8.50000000E-01  8.50000000E-01
  8.50000000E-01  8.00000000E-01  8.50000000E-01  8.50000000E-01  8.50000000E-01
  8.00000000E-01  8.50000000E-01  8.50000000E-01  8.50000000E-01  8.00000000E-01
  8.50000000E-01  8.50000000E-01  8.50000000E-01  8.00000000E-01  8.50000000E-01
  8.50000000E-01  8.50000000E-01  8.00000000E-01  8.50000000E-01  8.50000000E-01
  8.50000000E-01  8.00000000E-01  8.50000000E-01  8.50000000E-01  8.50000000E-01
  8.00000000E-01  8.50000000E-01  8.50000000E-01  8.50000000E-01  8.00000000E-01
  8.50000000E-01  8.50000000E-01  8.50000000E-01  8.00000000E-01  8.50000000E-01
  8.50000000E-01  8.50000000E-01  8.00000000E-01  8.50000000E-01  8.50000000E-01
  8.50000000E-01  8.00000000E-01  8.50000000E-01  8.50000000E-01  8.50000000E-01
  8.00000000E-01  8.50000000E-01  8.50000000E-01  8.50000000E-01  8.00000000E-01
  8.50000000E-01  8.50000000E-01  8.50000000E-01  8.00000000E-01  8.50000000E-01
  8.50000000E-01  8.50000000E-01  8.00000000E-01  8.50000000E-01  8.50000000E-01
  8.50000000E-01  8.00000000E-01  8.50000000E-01  8.50000000E-01  8.50000000E-01
  8.00000000E-01  8.50000000E-01  8.50000000E-01  8.50000000E-01  8.00000000E-01
  8.50000000E-01  8.50000000E-01  8.50000000E-01  8.00000000E-01  8.50000000E-01
  8.50000000E-01  8.50000000E-01  8.00000000E-01  8.50000000E-01  8.50000000E-01
  8.50000000E-01  8.00000000E-01  8.50000000E-01  8.50000000E-01  8.50000000E-01
  8.00000000E-01  8.50000000E-01  8.50000000E-01  8.50000000E-01  8.00000000E-01
  8.50000000E-01  8.50000000E-01  8.50000000E-01  8.00000000E-01  8.50000000E-01
  8.50000000E-01  8.50000000E-01  8.00000000E-01  8.50000000E-01  8.50000000E-01
  8.50000000E-01  8.00000000E-01  8.50000000E-01  8.50000000E-01  8.50000000E-01
  8.00000000E-01  8.50000000E-01  8.50000000E-01  8.50000000E-01  8.00000000E-01
  8.50000000E-01  8.50000000E-01  8.50000000E-01  8.00000000E-01  8.50000000E-01
  8.50000000E-01  8.50000000E-01  8.00000000E-01  8.50000000E-01  8.50000000E-01
  8.50000000E-01  8.00000000E-01  8.50000000E-01  8.50000000E-01  8.50000000E-01
  8.00000000E-01  8.50000000E-01  8.50000000E-01  8.50000000E-01  8.00000000E-01
  8.50000000E-01  8.50000000E-01  8.50000000E-01  8.00000000E-01  8.50000000E-01
  8.50000000E-01  8.50000000E-01  8.00000000E-01  8.50000000E-01  8.50000000E-01
  8.50000000E-01  8.00000000E-01  8.50000000E-01  8.50000000E-01  8.50000000E-01
  8.00000000E-01  8.50000000E-01  8.50000000E-01  8.50000000E-01  8.00000000E-01
  8.50000000E-01  8.50000000E-01  8.50000000E-01  8.00000000E-01  8.50000000E-01
  8.50000000E-01  8.50000000E-01  8.00000000E-01  8.50000000E-01  8.50000000E-01
  8.50000000E-01  8.00000000E-01  8.50000000E-01  8.50000000E-01  8.50000000E-01
  8.00000000E-01  8.50000000E-01  8.50000000E-01  8.50000000E-01  8.00000000E-01
  8.50000000E-01  8.50000000E-01  8.50000000E-01  8.00000000E-01  8.50000000E-01
  8.50000000E-01  8.50000000E-01  8.00000000E-01  8.50000000E-01  8.50000000E-01
  8.50000000E-01  8.00000000E-01  8.50000000E-01  8.50000000E-01  8.50000000E-01
  8.00000000E-01  8.50000000E-01  8.50000000E-01  8.50000000E-01  8.00000000E-01
  8.50000000E-01  8.50000000E-01  8.50000000E-01  8.00000000E-01  8.50000000E-01
  8.50000000E-01  8.50000000E-01  8.00000000E-01  8.50000000E-01  8.50000000E-01
  8.50000000E-01  8.00000000E-01  8.50000000E-01  8.50000000E-01  8.50000000E-01
  8.00000000E-01  8.50000000E-01  8.50000000E-01  8.50000000E-01  8.00000000E-01
  8.50000000E-01  8.50000000E-01  8.50000000E-01  8.00000000E-01  8.50000000E-01
  8.50000000E-01  8.50000000E-01  8.00000000E-01  8.50000000E-01  8.50000000E-01
  8.50000000E-01  8.00000000E-01  8.50000000E-01  8.50000000E-01  8.50000000E-01
  8.00000000E-01  8.50000000E-01  8.50000000E-01  8.50000000E-01  8.00000000E-01
  8.50000000E-01  8.50000000E-01  8.50000000E-01  8.00000000E-01  8.50000000E-01
  8.50000000E-01  8.50000000E-01  8.00000000E-01  8.50000000E-01  8.50000000E-01
  8.50000000E-01  8.00000000E-01  8.50000000E-01  8.50000000E-01  8.50000000E-01
  8.00000000E-01  8.50000000E-01  8.50000000E-01  8.50000000E-01  8.00000000E-01
  8.50000000E-01  8.50000000E-01  8.50000000E-01  8.00000000E-01  8.50000000E-01
  8.50000000E-01  8.50000000E-01  8.00000000E-01  8.50000000E-01  8.50000000E-01
  8.50000000E-01  8.00000000E-01  8.50000000E-01  8.50000000E-01  8.50000000E-01
  8.00000000E-01  8.50000000E-01  8.50000000E-01  8.50000000E-01  8.00000000E-01
  8.50000000E-01  8.50000000E-01  8.50000000E-01  8.00000000E-01  8.50000000E-01
  8.50000000E-01  8.50000000E-01  8.00000000E-01  8.50000000E-01  8.50000000E-01
  8.50000000E-01  8.00000000E-01  8.50000000E-01  8.50000000E-01  8.50000000E-01
  8.00000000E-01  8.50000000E-01  8.50000000E-01  8.50000000E-01  8.00000000E-01
  8.50000000E-01  8.50000000E-01  8.50000000E-01  8.00000000E-01  8.50000000E-01
  8.50000000E-01  8.50000000E-01  8.00000000E-01  8.50000000E-01  8.50000000E-01
  8.50000000E-01  8.00000000E-01  8.50000000E-01  8.50000000E-01  8.50000000E-01
  8.00000000E-01  8.50000000E-01  8.50000000E-01  8.50000000E-01  8.00000000E-01
  8.50000000E-01  8.50000000E-01  8.50000000E-01  8.00000000E-01  8.50000000E-01
  8.50000000E-01  8.50000000E-01  8.00000000E-01  8.50000000E-01  8.50000000E-01
  8.50000000E-01  8.00000000E-01  8.50000000E-01  8.50000000E-01  8.50000000E-01
  8.00000000E-01  8.50000000E-01  8.50000000E-01  8.50000000E-01  8.00000000E-01
  8.50000000E-01  8.50000000E-01  8.50000000E-01  8.00000000E-01  8.50000000E-01
  8.50000000E-01  8.50000000E-01  8.00000000E-01  8.50000000E-01  8.50000000E-01
  8.50000000E-01  8.00000000E-01  8.50000000E-01  8.50000000E-01  8.50000000E-01
  8.00000000E-01  8.50000000E-01  8.50000000E-01  8.50000000E-01  8.00000000E-01
  8.50000000E-01  8.50000000E-01  8.50000000E-01  8.00000000E-01  8.50000000E-01
  8.50000000E-01  8.50000000E-01  8.00000000E-01  8.50000000E-01  8.50000000E-01
  8.50000000E-01  8.00000000E-01  8.50000000E-01  8.50000000E-01  8.50000000E-01
  8.00000000E-01  8.50000000E-01  8.50000000E-01  8.50000000E-01  8.00000000E-01
  8.50000000E-01  8.50000000E-01  8.50000000E-01  8.00000000E-01  8.50000000E-01
  8.50000000E-01  8.50000000E-01  8.00000000E-01  8.50000000E-01  8.50000000E-01
  8.50000000E-01  8.00000000E-01  8.50000000E-01  8.50000000E-01  8.50000000E-01
  8.00000000E-01  8.50000000E-01  8.50000000E-01  8.50000000E-01  8.00000000E-01
  8.50000000E-01  8.50000000E-01  8.50000000E-01  8.00000000E-01  8.50000000E-01
  8.50000000E-01  8.50000000E-01  8.00000000E-01  8.50000000E-01  8.50000000E-01
  8.50000000E-01  8.00000000E-01  8.50000000E-01  8.50000000E-01  8.50000000E-01
  8.00000000E-01  8.50000000E-01  8.50000000E-01  8.50000000E-01  8.00000000E-01
  8.50000000E-01  8.50000000E-01  8.50000000E-01  8.00000000E-01  8.50000000E-01
  8.50000000E-01  8.50000000E-01  8.00000000E-01  8.50000000E-01  8.50000000E-01
  8.50000000E-01  8.00000000E-01  8.50000000E-01  8.50000000E-01  8.50000000E-01
  8.00000000E-01  8.50000000E-01  8.50000000E-01  8.50000000E-01  8.00000000E-01
  8.50000000E-01  8.50000000E-01  8.50000000E-01  8.00000000E-01  8.50000000E-01
  8.50000000E-01  8.50000000E-01  8.00000000E-01  8.50000000E-01  8.50000000E-01
  8.50000000E-01  8.00000000E-01  8.50000000E-01  8.50000000E-01  8.50000000E-01
  8.00000000E-01  8.50000000E-01  8.50000000E-01  8.50000000E-01  8.00000000E-01
  8.50000000E-01  8.50000000E-01  8.50000000E-01  8.00000000E-01  8.50000000E-01
  8.50000000E-01  8.50000000E-01  8.00000000E-01  8.50000000E-01  8.50000000E-01
  8.50000000E-01  8.00000000E-01  8.50000000E-01  8.50000000E-01  8.50000000E-01
  8.00000000E-01  8.50000000E-01  8.50000000E-01  8.50000000E-01  8.00000000E-01
  8.50000000E-01  8.50000000E-01  8.50000000E-01  8.00000000E-01  8.50000000E-01
  8.50000000E-01  8.50000000E-01  8.00000000E-01  8.50000000E-01  8.50000000E-01
  8.50000000E-01  8.00000000E-01  8.50000000E-01  8.50000000E-01  8.50000000E-01
  8.00000000E-01  8.50000000E-01  8.50000000E-01  8.50000000E-01  8.00000000E-01
  8.50000000E-01  8.50000000E-01  8.50000000E-01  8.00000000E-01  8.50000000E-01
  8.50000000E-01  8.50000000E-01  8.00000000E-01  8.50000000E-01  8.50000000E-01
  8.50000000E-01  8.00000000E-01  8.50000000E-01  8.50000000E-01  8.50000000E-01
  8.00000000E-01  8.50000000E-01  8.50000000E-01  8.50000000E-01  8.00000000E-01
  8.50000000E-01  8.50000000E-01  8.50000000E-01  8.00000000E-01  8.50000000E-01
  8.50000000E-01  8.50000000E-01  8.00000000E-01  8.50000000E-01  8.50000000E-01
  8.50000000E-01  8.00000000E-01  8.50000000E-01  8.50000000E-01  8.50000000E-01
  8.00000000E-01  8.50000000E-01  8.50000000E-01  8.50000000E-01  8.00000000E-01
  8.50000000E-01  8.50000000E-01  8.50000000E-01  8.00000000E-01  8.50000000E-01
  8.50000000E-01  8.50000000E-01  8.00000000E-01  8.50000000E-01  8.50000000E-01
  8.50000000E-01  8.00000000E-01  8.50000000E-01  8.50000000E-01  8.50000000E-01
  8.00000000E-01  8.50000000E-01  8.50000000E-01  8.50000000E-01  8.00000000E-01
  8.50000000E-01  8.50000000E-01  8.50000000E-01  8.00000000E-01  8.50000000E-01
  8.50000000E-01  8.50000000E-01  8.00000000E-01  8.50000000E-01  8.50000000E-01
  8.50000000E-01  8.00000000E-01  8.50000000E-01  8.50000000E-01  8.50000000E-01
  8.00000000E-01  8.50000000E-01  8.50000000E-01  8.50000000E-01  8.00000000E-01
  8.50000000E-01  8.50000000E-01  8.50000000E-01  8.00000000E-01  8.50000000E-01
  8.50000000E-01  8.50000000E-01  8.00000000E-01  8.50000000E-01  8.50000000E-01
  8.50000000E-01  8.00000000E-01  8.50000000E-01  8.50000000E-01  8.50000000E-01
  8.00000000E-01  8.50000000E-01  8.50000000E-01  8.50000000E-01  8.00000000E-01
  8.50000000E-01  8.50000000E-01  8.50000000E-01  8.00000000E-01  8.50000000E-01
  8.50000000E-01  8.50000000E-01  8.00000000E-01  8.50000000E-01  8.50000000E-01
  8.50000000E-01  8.00000000E-01  8.50000000E-01  8.50000000E-01  8.50000000E-01
  8.00000000E-01  8.50000000E-01  8.50000000E-01  8.50000000E-01  8.00000000E-01
  8.50000000E-01  8.50000000E-01  8.50000000E-01  8.00000000E-01  8.50000000E-01
  8.50000000E-01  8.50000000E-01  8.00000000E-01  8.50000000E-01  8.50000000E-01
  8.50000000E-01  8.00000000E-01  8.50000000E-01  8.50000000E-01  8.50000000E-01
  8.00000000E-01  8.50000000E-01  8.50000000E-01  8.50000000E-01  8.00000000E-01
  8.50000000E-01  8.50000000E-01  8.50000000E-01  8.00000000E-01  8.50000000E-01
  8.50000000E-01  8.50000000E-01  8.00000000E-01  8.50000000E-01  8.50000000E-01
  8.50000000E-01  8.00000000E-01  8.50000000E-01  8.50000000E-01  8.50000000E-01
  8.00000000E-01  8.50000000E-01  8.50000000E-01  8.50000000E-01  8.00000000E-01
  8.50000000E-01  8.50000000E-01  8.50000000E-01  8.00000000E-01  8.50000000E-01
  8.50000000E-01  8.50000000E-01  8.00000000E-01  8.50000000E-01  8.50000000E-01
  8.50000000E-01  8.00000000E-01  8.50000000E-01  8.50000000E-01  8.50000000E-01
  8.00000000E-01  8.50000000E-01  8.50000000E-01  8.50000000E-01  8.00000000E-01
  8.50000000E-01  8.50000000E-01  8.50000000E-01  8.00000000E-01  8.50000000E-01
  8.50000000E-01  8.50000000E-01  8.00000000E-01  8.50000000E-01  8.50000000E-01
  8.50000000E-01  8.00000000E-01  8.50000000E-01  8.50000000E-01  8.50000000E-01
  8.00000000E-01  8.50000000E-01  8.50000000E-01  8.50000000E-01  8.00000000E-01
  8.50000000E-01  8.50000000E-01  8.50000000E-01  8.00000000E-01  8.50000000E-01
  8.50000000E-01  8.50000000E-01  8.00000000E-01  8.50000000E-01  8.50000000E-01
  8.50000000E-01  8.00000000E-01  8.50000000E-01  8.50000000E-01  8.50000000E-01
  8.00000000E-01  8.50000000E-01  8.50000000E-01  8.50000000E-01  8.00000000E-01
  8.50000000E-01  8.50000000E-01  8.50000000E-01  8.00000000E-01  8.50000000E-01
  8.50000000E-01  8.50000000E-01  8.00000000E-01  8.50000000E-01  8.50000000E-01
  8.50000000E-01  8.00000000E-01  8.50000000E-01  8.50000000E-01  8.50000000E-01
  8.00000000E-01  8.50000000E-01  8.50000000E-01  8.50000000E-01  8.00000000E-01
  8.50000000E-01  8.50000000E-01  8.50000000E-01  8.00000000E-01  8.50000000E-01
  8.50000000E-01  8.50000000E-01  8.00000000E-01  8.50000000E-01  8.50000000E-01
  8.50000000E-01  8.00000000E-01  8.50000000E-01  8.50000000E-01  8.50000000E-01
  8.00000000E-01  8.50000000E-01  8.50000000E-01  8.50000000E-01  8.00000000E-01
  8.50000000E-01  8.50000000E-01  8.50000000E-01  8.00000000E-01  8.50000000E-01
  8.50000000E-01  8.50000000E-01  8.00000000E-01  8.50000000E-01  8.50000000E-01
  8.50000000E-01  8.00000000E-01  8.50000000E-01  8.50000000E-01  8.50000000E-01
  8.00000000E-01  8.50000000E-01  8.50000000E-01  8.50000000E-01  8.00000000E-01
  8.50000000E-01  8.50000000E-01  8.50000000E-01  8.00000000E-01  8.50000000E-01
  8.50000000E-01  8.50000000E-01  8.00000000E-01  8.50000000E-01  8.50000000E-01
  8.50000000E-01  8.00000000E-01  8.50000000E-01  8.50000000E-01  8.50000000E-01
  8.00000000E-01  8.50000000E-01  8.50000000E-01  8.50000000E-01  8.00000000E-01
  8.50000000E-01  8.50000000E-01  8.50000000E-01  8.00000000E-01  8.50000000E-01
  8.50000000E-01  8.50000000E-01  8.00000000E-01  8.50000000E-01  8.50000000E-01
  8.50000000E-01  8.00000000E-01  8.50000000E-01  8.50000000E-01  8.50000000E-01
  8.00000000E-01  8.50000000E-01  8.50000000E-01  8.50000000E-01  8.00000000E-01
  8.50000000E-01  8.50000000E-01  8.50000000E-01  8.00000000E-01  8.50000000E-01
  8.50000000E-01  8.50000000E-01  8.00000000E-01  8.50000000E-01  8.50000000E-01
  8.50000000E-01  8.00000000E-01  8.50000000E-01  8.50000000E-01  8.50000000E-01
  8.00000000E-01  8.50000000E-01  8.50000000E-01  8.50000000E-01  8.00000000E-01
  8.50000000E-01  8.50000000E-01  8.50000000E-01  8.00000000E-01  8.50000000E-01
  8.50000000E-01  8.50000000E-01  8.00000000E-01  8.50000000E-01  8.50000000E-01
  8.50000000E-01  8.00000000E-01  8.50000000E-01  8.50000000E-01  8.50000000E-01
  8.00000000E-01  8.50000000E-01  8.50000000E-01  8.50000000E-01  8.00000000E-01
  8.50000000E-01  8.50000000E-01  8.50000000E-01  8.00000000E-01  8.50000000E-01
  8.50000000E-01  8.50000000E-01  8.00000000E-01  8.50000000E-01  8.50000000E-01
  8.50000000E-01  8.00000000E-01  8.50000000E-01  8.50000000E-01  8.50000000E-01
  8.00000000E-01  8.50000000E-01  8.50000000E-01  8.50000000E-01  8.00000000E-01
  8.50000000E-01  8.50000000E-01  8.50000000E-01  8.00000000E-01  8.50000000E-01
  8.50000000E-01  8.50000000E-01  8.00000000E-01  8.50000000E-01  8.50000000E-01
  8.50000000E-01  8.00000000E-01  8.50000000E-01  8.50000000E-01  8.50000000E-01
  8.00000000E-01  8.50000000E-01  8.50000000E-01  8.50000000E-01  8.00000000E-01
  8.50000000E-01  8.50000000E-01  8.50000000E-01  8.00000000E-01  8.50000000E-01
  8.50000000E-01  8.50000000E-01  8.00000000E-01  8.50000000E-01  8.50000000E-01
  8.50000000E-01  8.00000000E-01  8.50000000E-01  8.50000000E-01  8.50000000E-01
  8.00000000E-01  8.50000000E-01  8.50000000E-01  8.50000000E-01  8.00000000E-01
  8.50000000E-01  8.50000000E-01  8.50000000E-01  8.00000000E-01  8.50000000E-01
  8.50000000E-01  8.50000000E-01  8.00000000E-01  8.50000000E-01  8.50000000E-01
  8.50000000E-01  8.00000000E-01  8.50000000E-01  8.50000000E-01  8.50000000E-01
  8.00000000E-01  8.50000000E-01  8.50000000E-01  8.50000000E-01  8.00000000E-01
  8.50000000E-01  8.50000000E-01  8.50000000E-01  8.00000000E-01  8.50000000E-01
  8.50000000E-01  8.50000000E-01  8.00000000E-01  8.50000000E-01  8.50000000E-01
  8.50000000E-01  8.00000000E-01  8.50000000E-01  8.50000000E-01  8.50000000E-01
  8.00000000E-01  8.50000000E-01  8.50000000E-01  8.50000000E-01  8.00000000E-01
  8.50000000E-01  8.50000000E-01  8.50000000E-01  8.00000000E-01  8.50000000E-01
  8.50000000E-01  8.50000000E-01  8.00000000E-01  8.50000000E-01  8.50000000E-01
  8.50000000E-01  8.00000000E-01  8.50000000E-01  8.50000000E-01  8.50000000E-01
  8.00000000E-01  8.50000000E-01  8.50000000E-01  8.50000000E-01  8.00000000E-01
  8.50000000E-01  8.50000000E-01  8.50000000E-01  8.00000000E-01  8.50000000E-01
  8.50000000E-01  8.50000000E-01  8.00000000E-01  8.50000000E-01  8.50000000E-01
  8.50000000E-01  8.00000000E-01  8.50000000E-01  8.50000000E-01  8.50000000E-01
  8.00000000E-01  8.50000000E-01  8.50000000E-01  8.50000000E-01  8.00000000E-01
  8.50000000E-01  8.50000000E-01  8.50000000E-01  8.00000000E-01  8.50000000E-01
  8.50000000E-01  8.50000000E-01  8.00000000E-01  8.50000000E-01  8.50000000E-01
  8.50000000E-01  8.00000000E-01  8.50000000E-01  8.50000000E-01  8.50000000E-01
  8.00000000E-01  8.50000000E-01  8.50000000E-01  8.50000000E-01  8.00000000E-01
  8.50000000E-01  8.50000000E-01  8.50000000E-01  8.00000000E-01  8.50000000E-01
  8.50000000E-01  8.50000000E-01  8.00000000E-01  8.50000000E-01  8.50000000E-01
  8.50000000E-01  8.00000000E-01  8.50000000E-01  8.50000000E-01  8.50000000E-01
  8.00000000E-01  8.50000000E-01  8.50000000E-01  8.50000000E-01  8.00000000E-01
  8.50000000E-01  8.50000000E-01  8.50000000E-01  8.00000000E-01  8.50000000E-01
  8.50000000E-01  8.50000000E-01  8.00000000E-01  8.50000000E-01  8.50000000E-01
  8.50000000E-01  8.00000000E-01  8.50000000E-01  8.50000000E-01  8.50000000E-01
  8.00000000E-01  8.50000000E-01  8.50000000E-01  8.50000000E-01  8.00000000E-01
  8.50000000E-01  8.50000000E-01  8.50000000E-01  8.00000000E-01  8.50000000E-01
  8.50000000E-01  8.50000000E-01  8.00000000E-01  8.50000000E-01  8.50000000E-01
  8.50000000E-01  8.00000000E-01  8.50000000E-01  8.50000000E-01  8.50000000E-01
  8.00000000E-01  8.50000000E-01  8.50000000E-01  8.50000000E-01  8.00000000E-01
  8.50000000E-01  8.50000000E-01  8.50000000E-01  8.00000000E-01  8.50000000E-01
  8.50000000E-01  8.50000000E-01  8.00000000E-01  8.50000000E-01  8.50000000E-01
  8.50000000E-01  8.00000000E-01  8.50000000E-01  8.50000000E-01  8.50000000E-01
  8.00000000E-01  8.50000000E-01  8.50000000E-01  8.50000000E-01  8.00000000E-01
  8.50000000E-01  8.50000000E-01  8.50000000E-01  8.00000000E-01  8.50000000E-01
  8.50000000E-01  8.50000000E-01  8.00000000E-01  8.50000000E-01  8.50000000E-01
  8.50000000E-01  8.00000000E-01  8.50000000E-01  8.50000000E-01  8.50000000E-01
  8.00000000E-01  8.50000000E-01  8.50000000E-01  8.50000000E-01  8.00000000E-01
  8.50000000E-01  8.50000000E-01  8.50000000E-01  8.00000000E-01  8.50000000E-01
  8.50000000E-01  8.50000000E-01  8.00000000E-01  8.50000000E-01  8.50000000E-01
  8.50000000E-01  8.00000000E-01  8.50000000E-01  8.50000000E-01  8.50000000E-01
  8.00000000E-01  8.50000000E-01  8.50000000E-01  8.50000000E-01  8.00000000E-01
  8.50000000E-01  8.50000000E-01  8.50000000E-01  8.00000000E-01  8.50000000E-01
  8.50000000E-01  8.50000000E-01  8.00000000E-01  8.50000000E-01  8.50000000E-01
  8.50000000E-01  8.00000000E-01  8.50000000E-01  8.50000000E-01  8.50000000E-01
  8.00000000E-01  8.50000000E-01  8.50000000E-01  8.50000000E-01  8.00000000E-01
  8.50000000E-01  8.50000000E-01  8.50000000E-01  8.00000000E-01  8.50000000E-01
  8.50000000E-01  8.50000000E-01  8.00000000E-01  8.50000000E-01  8.50000000E-01
  8.50000000E-01  8.00000000E-01  8.50000000E-01  8.50000000E-01  8.50000000E-01
  8.00000000E-01  8.50000000E-01  8.50000000E-01  8.50000000E-01  8.00000000E-01
  8.50000000E-01  8.50000000E-01  8.50000000E-01  8.00000000E-01  8.50000000E-01
  8.50000000E-01  8.50000000E-01  8.00000000E-01  8.50000000E-01  8.50000000E-01
  8.50000000E-01  8.00000000E-01  8.50000000E-01  8.50000000E-01  8.50000000E-01
  8.00000000E-01  8.50000000E-01  8.50000000E-01  8.50000000E-01  8.00000000E-01
  8.50000000E-01  8.50000000E-01  8.50000000E-01  8.00000000E-01  8.50000000E-01
  8.50000000E-01  8.50000000E-01  8.00000000E-01  8.50000000E-01  8.50000000E-01
  8.50000000E-01  8.00000000E-01  8.50000000E-01  8.50000000E-01  8.50000000E-01
  8.00000000E-01  8.50000000E-01  8.50000000E-01  8.50000000E-01  8.00000000E-01
  8.50000000E-01  8.50000000E-01  8.50000000E-01  8.00000000E-01  8.50000000E-01
  8.50000000E-01  8.50000000E-01  8.00000000E-01  8.50000000E-01  8.50000000E-01
  8.50000000E-01  8.00000000E-01  8.50000000E-01  8.50000000E-01  8.50000000E-01
  8.00000000E-01  8.50000000E-01  8.50000000E-01  8.50000000E-01  8.00000000E-01
  8.50000000E-01  8.50000000E-01  8.50000000E-01  8.00000000E-01  8.50000000E-01
  8.50000000E-01  8.50000000E-01  8.00000000E-01  8.50000000E-01  8.50000000E-01
  8.50000000E-01  8.00000000E-01  8.50000000E-01  8.50000000E-01  8.50000000E-01
  8.00000000E-01  8.50000000E-01  8.50000000E-01  8.50000000E-01  8.00000000E-01
  8.50000000E-01  8.50000000E-01  8.50000000E-01  8.00000000E-01  8.50000000E-01
  8.50000000E-01  8.50000000E-01  8.00000000E-01  8.50000000E-01  8.50000000E-01
  8.50000000E-01  8.00000000E-01  8.50000000E-01  8.50000000E-01  8.50000000E-01
  8.00000000E-01  8.50000000E-01  8.50000000E-01  8.50000000E-01  8.00000000E-01
  8.50000000E-01  8.50000000E-01  8.50000000E-01  8.00000000E-01  8.50000000E-01
  8.50000000E-01  8.50000000E-01  8.00000000E-01  8.50000000E-01  8.50000000E-01
  8.50000000E-01  8.00000000E-01  8.50000000E-01  8.50000000E-01  8.50000000E-01
  8.00000000E-01  8.50000000E-01  8.50000000E-01  8.50000000E-01  8.00000000E-01
  8.50000000E-01  8.50000000E-01  8.50000000E-01  8.00000000E-01  8.50000000E-01
  8.50000000E-01  8.50000000E-01  8.00000000E-01  8.50000000E-01  8.50000000E-01
  8.50000000E-01  8.00000000E-01  8.50000000E-01  8.50000000E-01  8.50000000E-01
  8.00000000E-01  8.50000000E-01  8.50000000E-01  8.50000000E-01  8.00000000E-01
  8.50000000E-01  8.50000000E-01  8.50000000E-01  8.00000000E-01  8.50000000E-01
  8.50000000E-01  8.50000000E-01  8.00000000E-01  8.50000000E-01  8.50000000E-01
  8.50000000E-01  8.00000000E-01  8.50000000E-01  8.50000000E-01  8.50000000E-01
  8.00000000E-01  8.50000000E-01  8.50000000E-01  8.50000000E-01  8.00000000E-01
  8.50000000E-01  8.50000000E-01  8.50000000E-01  8.00000000E-01  8.50000000E-01
  8.50000000E-01  8.50000000E-01  8.00000000E-01  8.50000000E-01  8.50000000E-01
  8.50000000E-01  8.00000000E-01  8.50000000E-01  8.50000000E-01  8.50000000E-01
  8.00000000E-01  8.50000000E-01  8.50000000E-01  8.50000000E-01  8.00000000E-01
  8.50000000E-01  8.50000000E-01  8.50000000E-01  8.00000000E-01  8.50000000E-01
  8.50000000E-01  8.50000000E-01  8.00000000E-01  8.50000000E-01  8.50000000E-01
  8.50000000E-01  8.00000000E-01  8.50000000E-01  8.50000000E-01  8.50000000E-01
  8.00000000E-01  8.50000000E-01  8.50000000E-01  8.50000000E-01  8.00000000E-01
  8.50000000E-01  8.50000000E-01  8.50000000E-01  8.00000000E-01  8.50000000E-01
  8.50000000E-01  8.50000000E-01  8.00000000E-01  8.50000000E-01  8.50000000E-01
  8.50000000E-01  8.00000000E-01  8.50000000E-01  8.50000000E-01  8.50000000E-01
  8.00000000E-01  8.50000000E-01  8.50000000E-01  8.50000000E-01  8.00000000E-01
  8.50000000E-01  8.50000000E-01  8.50000000E-01  8.00000000E-01  8.50000000E-01
  8.50000000E-01  8.50000000E-01  8.00000000E-01  8.50000000E-01  8.50000000E-01
  8.50000000E-01  8.00000000E-01  8.50000000E-01  8.50000000E-01  8.50000000E-01
  8.00000000E-01  8.50000000E-01  8.50000000E-01  8.50000000E-01  8.00000000E-01
  8.50000000E-01  8.50000000E-01  8.50000000E-01  8.00000000E-01  8.50000000E-01
  8.50000000E-01  8.50000000E-01  8.00000000E-01  8.50000000E-01  8.50000000E-01
  8.50000000E-01  8.00000000E-01  8.50000000E-01  8.50000000E-01  8.50000000E-01
  8.00000000E-01  8.50000000E-01  8.50000000E-01  8.50000000E-01  8.00000000E-01
  8.50000000E-01  8.50000000E-01  8.50000000E-01  8.00000000E-01  8.50000000E-01
  8.50000000E-01  8.50000000E-01  8.00000000E-01  8.50000000E-01  8.50000000E-01
  8.50000000E-01  8.00000000E-01  8.50000000E-01  8.50000000E-01  8.50000000E-01
  8.00000000E-01  8.50000000E-01  8.50000000E-01  8.50000000E-01  8.00000000E-01
  8.50000000E-01  8.50000000E-01  8.50000000E-01  8.00000000E-01  8.50000000E-01
  8.50000000E-01  8.50000000E-01  8.00000000E-01  8.50000000E-01  8.50000000E-01
  8.50000000E-01  8.00000000E-01  8.50000000E-01  8.50000000E-01  8.50000000E-01
  8.00000000E-01  8.50000000E-01  8.50000000E-01  8.50000000E-01  8.00000000E-01
  8.50000000E-01  8.50000000E-01  8.50000000E-01  8.00000000E-01  8.50000000E-01
  8.50000000E-01  8.50000000E-01  8.00000000E-01  8.50000000E-01  8.50000000E-01
  8.50000000E-01  8.00000000E-01  8.50000000E-01  8.50000000E-01  8.50000000E-01
  8.00000000E-01  8.50000000E-01  8.50000000E-01  8.50000000E-01  8.00000000E-01
  8.50000000E-01  8.50000000E-01  8.50000000E-01  8.00000000E-01  8.50000000E-01
  8.50000000E-01  8.50000000E-01  8.00000000E-01  8.50000000E-01  8.50000000E-01
  8.50000000E-01  8.00000000E-01  8.50000000E-01  8.50000000E-01  8.50000000E-01
  8.00000000E-01  8.50000000E-01  8.50000000E-01  8.50000000E-01  8.00000000E-01
  8.50000000E-01  8.50000000E-01  8.50000000E-01  8.00000000E-01  8.50000000E-01
  8.50000000E-01  8.50000000E-01  8.00000000E-01  8.50000000E-01  8.50000000E-01
  8.50000000E-01  8.00000000E-01  8.50000000E-01  8.50000000E-01  8.50000000E-01
  8.00000000E-01  8.50000000E-01  8.50000000E-01  8.50000000E-01  8.00000000E-01
  8.50000000E-01  8.50000000E-01  8.50000000E-01  8.00000000E-01  8.50000000E-01
  8.50000000E-01  8.50000000E-01  8.00000000E-01  8.50000000E-01  8.50000000E-01
  8.50000000E-01  8.00000000E-01  8.50000000E-01  8.50000000E-01  8.50000000E-01
  8.00000000E-01  8.50000000E-01  8.50000000E-01  8.50000000E-01  8.00000000E-01
  8.50000000E-01  8.50000000E-01  8.50000000E-01  8.00000000E-01  8.50000000E-01
  8.50000000E-01  8.50000000E-01  8.00000000E-01  8.50000000E-01  8.50000000E-01
  8.50000000E-01  8.00000000E-01  8.50000000E-01  8.50000000E-01  8.50000000E-01
  8.00000000E-01  8.50000000E-01  8.50000000E-01  8.50000000E-01  8.00000000E-01
  8.50000000E-01  8.50000000E-01  8.50000000E-01  8.00000000E-01  8.50000000E-01
  8.50000000E-01  8.50000000E-01  8.00000000E-01  8.50000000E-01  8.50000000E-01
  8.50000000E-01  8.00000000E-01  8.50000000E-01  8.50000000E-01  8.50000000E-01
  8.00000000E-01  8.50000000E-01  8.50000000E-01  8.50000000E-01  8.00000000E-01
  8.50000000E-01  8.50000000E-01  8.50000000E-01  8.00000000E-01  8.50000000E-01
  8.50000000E-01  8.50000000E-01  8.00000000E-01  8.50000000E-01  8.50000000E-01
  8.50000000E-01  8.00000000E-01  8.50000000E-01  8.50000000E-01  8.50000000E-01
  8.00000000E-01  8.50000000E-01  8.50000000E-01  8.50000000E-01  8.00000000E-01
  8.50000000E-01  8.50000000E-01  8.50000000E-01  8.00000000E-01  8.50000000E-01
  8.50000000E-01  8.50000000E-01  8.00000000E-01  8.50000000E-01  8.50000000E-01
  8.50000000E-01  8.00000000E-01  8.50000000E-01  8.50000000E-01  8.50000000E-01
  8.00000000E-01  8.50000000E-01  8.50000000E-01  8.50000000E-01  8.00000000E-01
  8.50000000E-01  8.50000000E-01  8.50000000E-01  8.00000000E-01  8.50000000E-01
  8.50000000E-01  8.50000000E-01  8.00000000E-01  8.50000000E-01  8.50000000E-01
  8.50000000E-01  8.00000000E-01  8.50000000E-01  8.50000000E-01  8.50000000E-01
  8.00000000E-01  8.50000000E-01  8.50000000E-01  8.50000000E-01  8.00000000E-01
  8.50000000E-01  8.50000000E-01  8.50000000E-01  8.00000000E-01  8.50000000E-01
  8.50000000E-01  8.50000000E-01  8.00000000E-01  8.50000000E-01  8.50000000E-01
  8.50000000E-01  8.00000000E-01  8.50000000E-01  8.50000000E-01  8.50000000E-01
  8.00000000E-01  8.50000000E-01  8.50000000E-01  8.50000000E-01  8.00000000E-01
  8.50000000E-01  8.50000000E-01  8.50000000E-01  8.00000000E-01  8.50000000E-01
  8.50000000E-01  8.50000000E-01  8.00000000E-01  8.50000000E-01  8.50000000E-01
  8.50000000E-01  8.00000000E-01  8.50000000E-01  8.50000000E-01  8.50000000E-01
  8.00000000E-01  8.50000000E-01  8.50000000E-01  8.50000000E-01  8.00000000E-01
  8.50000000E-01  8.50000000E-01  8.50000000E-01  8.00000000E-01  8.50000000E-01
  8.50000000E-01  8.50000000E-01  8.00000000E-01  8.50000000E-01  8.50000000E-01
  8.50000000E-01  8.00000000E-01  8.50000000E-01  8.50000000E-01  8.50000000E-01
  8.00000000E-01  8.50000000E-01  8.50000000E-01  8.50000000E-01  8.00000000E-01
  8.50000000E-01  8.50000000E-01  8.50000000E-01  8.00000000E-01  8.50000000E-01
  8.50000000E-01  8.50000000E-01  8.00000000E-01  8.50000000E-01  8.50000000E-01
  8.50000000E-01  8.00000000E-01  8.50000000E-01  8.50000000E-01  8.50000000E-01
  8.00000000E-01  8.50000000E-01  8.50000000E-01  8.50000000E-01  8.00000000E-01
  8.50000000E-01  8.50000000E-01  8.50000000E-01  8.00000000E-01  8.50000000E-01
  8.50000000E-01  8.50000000E-01  8.00000000E-01  8.50000000E-01  8.50000000E-01
  8.50000000E-01  8.00000000E-01  8.50000000E-01  8.50000000E-01  8.50000000E-01
  8.00000000E-01  8.50000000E-01  8.50000000E-01  8.50000000E-01  8.00000000E-01
  8.50000000E-01  8.50000000E-01  8.50000000E-01  8.00000000E-01  8.50000000E-01
  8.50000000E-01  8.50000000E-01  8.00000000E-01  8.50000000E-01  8.50000000E-01
  8.50000000E-01  8.00000000E-01  8.50000000E-01  8.50000000E-01  8.50000000E-01
  8.00000000E-01  8.50000000E-01  8.50000000E-01  8.50000000E-01  8.00000000E-01
  8.50000000E-01  8.50000000E-01  8.50000000E-01  8.00000000E-01  8.50000000E-01
  8.50000000E-01  8.50000000E-01  8.00000000E-01  8.50000000E-01  8.50000000E-01
  8.50000000E-01  8.00000000E-01  8.50000000E-01  8.50000000E-01  8.50000000E-01
  8.00000000E-01  8.50000000E-01  8.50000000E-01  8.50000000E-01  8.00000000E-01
  8.50000000E-01  8.50000000E-01  8.50000000E-01  8.00000000E-01  8.50000000E-01
  8.50000000E-01  8.50000000E-01  8.00000000E-01  8.50000000E-01  8.50000000E-01
  8.50000000E-01  8.00000000E-01  8.50000000E-01  8.50000000E-01  8.50000000E-01
  8.00000000E-01  8.50000000E-01  8.50000000E-01  8.50000000E-01  8.00000000E-01
  8.50000000E-01  8.50000000E-01  8.50000000E-01  8.00000000E-01  8.50000000E-01
  8.50000000E-01  8.50000000E-01  8.00000000E-01  8.50000000E-01  8.50000000E-01
  8.50000000E-01  8.00000000E-01  8.50000000E-01  8.50000000E-01  8.50000000E-01
  8.00000000E-01  8.50000000E-01  8.50000000E-01  8.50000000E-01  8.00000000E-01
  8.50000000E-01  8.50000000E-01  8.50000000E-01  8.00000000E-01  8.50000000E-01
  8.50000000E-01  8.50000000E-01  8.00000000E-01  8.50000000E-01  8.50000000E-01
  8.50000000E-01  8.00000000E-01  8.50000000E-01  8.50000000E-01  8.50000000E-01
  8.00000000E-01  8.50000000E-01  8.50000000E-01  8.50000000E-01  8.00000000E-01
  8.50000000E-01  8.50000000E-01  8.50000000E-01  8.00000000E-01  8.50000000E-01
  8.50000000E-01  8.50000000E-01  8.00000000E-01  8.50000000E-01  8.50000000E-01
  8.50000000E-01  8.00000000E-01  8.50000000E-01  8.50000000E-01  8.50000000E-01
  8.00000000E-01  8.50000000E-01  8.50000000E-01  8.50000000E-01  8.00000000E-01
  8.50000000E-01  8.50000000E-01  8.50000000E-01  8.00000000E-01  8.50000000E-01
  8.50000000E-01  8.50000000E-01  8.00000000E-01  8.50000000E-01  8.50000000E-01
  8.50000000E-01  8.00000000E-01  8.50000000E-01  8.50000000E-01  8.50000000E-01
  8.00000000E-01  8.50000000E-01  8.50000000E-01  8.50000000E-01  8.00000000E-01
  8.50000000E-01  8.50000000E-01  8.50000000E-01  8.00000000E-01  8.50000000E-01
  8.50000000E-01  8.50000000E-01  8.00000000E-01  8.50000000E-01  8.50000000E-01
  8.50000000E-01  8.00000000E-01  8.50000000E-01  8.50000000E-01  8.50000000E-01
  8.00000000E-01  8.50000000E-01  8.50000000E-01  8.50000000E-01  8.00000000E-01
  8.50000000E-01  8.50000000E-01  8.50000000E-01  8.00000000E-01  8.50000000E-01
  8.50000000E-01  8.50000000E-01  8.00000000E-01  8.50000000E-01  8.50000000E-01
  8.50000000E-01  8.00000000E-01  8.50000000E-01  8.50000000E-01  8.50000000E-01
  8.00000000E-01  8.50000000E-01  8.50000000E-01  8.50000000E-01  8.00000000E-01
  8.50000000E-01  8.50000000E-01  8.50000000E-01  8.00000000E-01  8.50000000E-01
  8.50000000E-01  8.50000000E-01  8.00000000E-01  8.50000000E-01  8.50000000E-01
  8.50000000E-01  8.00000000E-01  8.50000000E-01  8.50000000E-01  8.50000000E-01
  8.00000000E-01  8.50000000E-01  8.50000000E-01  8.50000000E-01  8.00000000E-01
  8.50000000E-01  8.50000000E-01  8.50000000E-01  8.00000000E-01  8.50000000E-01
  8.50000000E-01  8.50000000E-01  8.00000000E-01  8.50000000E-01  8.50000000E-01
  8.50000000E-01  8.00000000E-01  8.50000000E-01  8.50000000E-01  8.50000000E-01
  8.00000000E-01  8.50000000E-01  8.50000000E-01  8.50000000E-01  8.00000000E-01
  8.50000000E-01  8.50000000E-01  8.50000000E-01  8.00000000E-01  8.50000000E-01
  8.50000000E-01  8.50000000E-01  8.00000000E-01  8.50000000E-01  8.50000000E-01
  8.50000000E-01  8.00000000E-01  8.50000000E-01  8.50000000E-01  8.50000000E-01
  8.00000000E-01  8.50000000E-01  8.50000000E-01  8.50000000E-01  8.00000000E-01
  8.50000000E-01  8.50000000E-01  8.50000000E-01  8.00000000E-01  8.50000000E-01
  8.50000000E-01  8.50000000E-01  8.00000000E-01  8.50000000E-01  8.50000000E-01
  8.50000000E-01  8.00000000E-01  8.50000000E-01  8.50000000E-01  8.50000000E-01
  8.00000000E-01  8.50000000E-01  8.50000000E-01  8.50000000E-01  8.00000000E-01
  8.50000000E-01  8.50000000E-01  8.50000000E-01  8.00000000E-01  8.50000000E-01
  8.50000000E-01  8.50000000E-01  8.00000000E-01  8.50000000E-01  8.50000000E-01
  8.50000000E-01  8.00000000E-01  8.50000000E-01  8.50000000E-01  8.50000000E-01
  8.00000000E-01  8.50000000E-01  8.50000000E-01  8.50000000E-01  8.00000000E-01
  8.50000000E-01  8.50000000E-01  8.50000000E-01  8.00000000E-01  8.50000000E-01
  8.50000000E-01  8.50000000E-01  8.00000000E-01  8.50000000E-01  8.50000000E-01
  8.50000000E-01  8.00000000E-01  8.50000000E-01  8.50000000E-01  8.50000000E-01
  8.00000000E-01  8.50000000E-01  8.50000000E-01  8.50000000E-01  8.00000000E-01
  8.50000000E-01  8.50000000E-01  8.50000000E-01  8.00000000E-01  8.50000000E-01
  8.50000000E-01  8.50000000E-01  8.00000000E-01  8.50000000E-01  8.50000000E-01
  8.50000000E-01  8.00000000E-01  8.50000000E-01  8.50000000E-01  8.50000000E-01
  8.00000000E-01  8.50000000E-01  8.50000000E-01  8.50000000E-01  8.00000000E-01
  8.50000000E-01  8.50000000E-01  8.50000000E-01  8.00000000E-01  8.50000000E-01
  8.50000000E-01  8.50000000E-01  8.00000000E-01  8.50000000E-01  8.50000000E-01
  8.50000000E-01  8.00000000E-01  8.50000000E-01  8.50000000E-01  8.50000000E-01
  8.00000000E-01  8.50000000E-01  8.50000000E-01  8.50000000E-01  8.00000000E-01
  8.50000000E-01  8.50000000E-01  8.50000000E-01  8.00000000E-01  8.50000000E-01
  8.50000000E-01  8.50000000E-01  8.00000000E-01  8.50000000E-01  8.50000000E-01
  8.50000000E-01  8.00000000E-01  8.50000000E-01  8.50000000E-01  8.50000000E-01
  8.00000000E-01  8.50000000E-01  8.50000000E-01  8.50000000E-01  8.00000000E-01
  8.50000000E-01  8.50000000E-01  8.50000000E-01  8.00000000E-01  8.50000000E-01
  8.50000000E-01  8.50000000E-01  8.00000000E-01  8.50000000E-01  8.50000000E-01
  8.50000000E-01  8.00000000E-01  8.50000000E-01  8.50000000E-01  8.50000000E-01
  8.00000000E-01  8.50000000E-01  8.50000000E-01  8.50000000E-01  8.00000000E-01
  8.50000000E-01  8.50000000E-01  8.50000000E-01  8.00000000E-01  8.50000000E-01
  8.50000000E-01  8.50000000E-01  8.00000000E-01  8.50000000E-01  8.50000000E-01
  8.50000000E-01  8.00000000E-01  8.50000000E-01  8.50000000E-01  8.50000000E-01
  8.00000000E-01  8.50000000E-01  8.50000000E-01  8.50000000E-01  8.00000000E-01
  8.50000000E-01  8.50000000E-01  8.50000000E-01  8.00000000E-01  8.50000000E-01
  8.50000000E-01  8.50000000E-01  8.00000000E-01  8.50000000E-01  8.50000000E-01
  8.50000000E-01  8.00000000E-01  8.50000000E-01  8.50000000E-01  8.50000000E-01
  8.00000000E-01  8.50000000E-01  8.50000000E-01  8.50000000E-01  8.00000000E-01
  8.50000000E-01  8.50000000E-01  8.50000000E-01  8.00000000E-01  8.50000000E-01
  8.50000000E-01  8.50000000E-01  8.00000000E-01  8.50000000E-01  8.50000000E-01
  8.50000000E-01  8.00000000E-01  8.50000000E-01  8.50000000E-01  8.50000000E-01
  8.00000000E-01  8.50000000E-01  8.50000000E-01  8.50000000E-01  8.00000000E-01
  8.50000000E-01  8.50000000E-01  8.50000000E-01  8.00000000E-01  8.50000000E-01
  8.50000000E-01  8.50000000E-01  8.00000000E-01  8.50000000E-01  8.50000000E-01
  8.50000000E-01  8.00000000E-01  8.50000000E-01  8.50000000E-01  8.50000000E-01
  8.00000000E-01  8.50000000E-01  8.50000000E-01  8.50000000E-01  8.00000000E-01
  8.50000000E-01  8.50000000E-01  8.50000000E-01  8.00000000E-01  8.50000000E-01
  8.50000000E-01  8.50000000E-01  8.00000000E-01  8.50000000E-01  8.50000000E-01
  8.50000000E-01  8.00000000E-01  8.50000000E-01  8.50000000E-01  8.50000000E-01
  8.00000000E-01  8.50000000E-01  8.50000000E-01  8.50000000E-01  8.00000000E-01
  8.50000000E-01  8.50000000E-01  8.50000000E-01  8.00000000E-01  8.50000000E-01
  8.50000000E-01  8.50000000E-01  8.00000000E-01  8.50000000E-01  8.50000000E-01
  8.50000000E-01  8.00000000E-01  8.50000000E-01  8.50000000E-01  8.50000000E-01
  8.00000000E-01  8.50000000E-01  8.50000000E-01  8.50000000E-01  8.00000000E-01
  8.50000000E-01  8.50000000E-01  8.50000000E-01  8.00000000E-01  8.50000000E-01
  8.50000000E-01  8.50000000E-01  8.00000000E-01  8.50000000E-01  8.50000000E-01
  8.50000000E-01  8.00000000E-01  8.50000000E-01  8.50000000E-01  8.50000000E-01
  8.00000000E-01  8.50000000E-01  8.50000000E-01  8.50000000E-01  8.00000000E-01
  8.50000000E-01  8.50000000E-01  8.50000000E-01  8.00000000E-01  8.50000000E-01
  8.50000000E-01  8.50000000E-01  8.00000000E-01  8.50000000E-01  8.50000000E-01
  8.50000000E-01  8.00000000E-01  8.50000000E-01  8.50000000E-01  8.50000000E-01
  8.00000000E-01  8.50000000E-01  8.50000000E-01  8.50000000E-01  8.00000000E-01
  8.50000000E-01  8.50000000E-01  8.50000000E-01  8.00000000E-01  8.50000000E-01
  8.50000000E-01  8.50000000E-01  8.00000000E-01  8.50000000E-01  8.50000000E-01
  8.50000000E-01  8.00000000E-01  8.50000000E-01  8.50000000E-01  8.50000000E-01
  8.00000000E-01  8.50000000E-01  8.50000000E-01  8.50000000E-01  8.00000000E-01
  8.50000000E-01  8.50000000E-01  8.50000000E-01  8.00000000E-01  8.50000000E-01
  8.50000000E-01  8.50000000E-01  8.00000000E-01  8.50000000E-01  8.50000000E-01
  8.50000000E-01  8.00000000E-01  8.50000000E-01  8.50000000E-01  8.50000000E-01
  8.00000000E-01  8.50000000E-01  8.50000000E-01  8.50000000E-01  8.00000000E-01
  8.50000000E-01  8.50000000E-01  8.50000000E-01  8.00000000E-01  8.50000000E-01
  8.50000000E-01  8.50000000E-01  8.00000000E-01  8.50000000E-01  8.50000000E-01
  8.50000000E-01  8.00000000E-01  8.50000000E-01  8.50000000E-01  8.50000000E-01
  8.00000000E-01  8.50000000E-01  8.50000000E-01  8.50000000E-01  8.00000000E-01
  8.50000000E-01  8.50000000E-01  8.50000000E-01  8.00000000E-01  8.50000000E-01
  8.50000000E-01  8.50000000E-01  8.00000000E-01  8.50000000E-01  8.50000000E-01
  8.50000000E-01  8.00000000E-01  8.50000000E-01  8.50000000E-01  8.50000000E-01
  8.00000000E-01  8.50000000E-01  8.50000000E-01  8.50000000E-01  8.00000000E-01
  8.50000000E-01  8.50000000E-01  8.50000000E-01  8.00000000E-01  8.50000000E-01
  8.50000000E-01  8.50000000E-01  8.00000000E-01  8.50000000E-01  8.50000000E-01
  8.50000000E-01  8.00000000E-01  8.50000000E-01  8.50000000E-01  8.50000000E-01
  8.00000000E-01  8.50000000E-01  8.50000000E-01  8.50000000E-01  8.00000000E-01
  8.50000000E-01  8.50000000E-01  8.50000000E-01  8.00000000E-01  8.50000000E-01
  8.50000000E-01  8.50000000E-01  8.00000000E-01  8.50000000E-01  8.50000000E-01
  8.50000000E-01  8.00000000E-01  8.50000000E-01  8.50000000E-01  8.50000000E-01
  8.00000000E-01  8.50000000E-01  8.50000000E-01  8.50000000E-01  8.00000000E-01
  8.50000000E-01  8.50000000E-01  8.50000000E-01  8.00000000E-01  8.50000000E-01
  8.50000000E-01  8.50000000E-01  8.00000000E-01  8.50000000E-01  8.50000000E-01
  8.50000000E-01  8.00000000E-01  8.50000000E-01  8.50000000E-01  8.50000000E-01
  8.00000000E-01  8.50000000E-01  8.50000000E-01  8.50000000E-01  8.00000000E-01
  8.50000000E-01  8.50000000E-01  8.50000000E-01  8.00000000E-01  8.50000000E-01
  8.50000000E-01  8.50000000E-01  8.00000000E-01  8.50000000E-01  8.50000000E-01
  8.50000000E-01  8.00000000E-01  8.50000000E-01  8.50000000E-01  8.50000000E-01
  8.00000000E-01  8.50000000E-01  8.50000000E-01  8.50000000E-01  8.00000000E-01
  8.50000000E-01  8.50000000E-01  8.50000000E-01  8.00000000E-01  8.50000000E-01
  8.50000000E-01  8.50000000E-01  8.00000000E-01  8.50000000E-01  8.50000000E-01
  8.50000000E-01  8.00000000E-01  8.50000000E-01  8.50000000E-01  8.50000000E-01
  8.00000000E-01  8.50000000E-01  8.50000000E-01  8.50000000E-01  8.00000000E-01
  8.50000000E-01  8.50000000E-01  8.50000000E-01  8.00000000E-01  8.50000000E-01
  8.50000000E-01  8.50000000E-01  8.00000000E-01  8.50000000E-01  8.50000000E-01
  8.50000000E-01  8.00000000E-01  8.50000000E-01  8.50000000E-01  8.50000000E-01
  8.00000000E-01  8.50000000E-01  8.50000000E-01  8.50000000E-01  8.00000000E-01
  8.50000000E-01  8.50000000E-01  8.50000000E-01  8.00000000E-01  8.50000000E-01
  8.50000000E-01  8.50000000E-01  8.00000000E-01  8.50000000E-01  8.50000000E-01
  8.50000000E-01  8.00000000E-01  8.50000000E-01  8.50000000E-01  8.50000000E-01
  8.00000000E-01  8.50000000E-01  8.50000000E-01  8.50000000E-01  8.00000000E-01
  8.50000000E-01  8.50000000E-01  8.50000000E-01  8.00000000E-01  8.50000000E-01
  8.50000000E-01  8.50000000E-01  8.00000000E-01  8.50000000E-01  8.50000000E-01
  8.50000000E-01  8.00000000E-01  8.50000000E-01  8.50000000E-01  8.50000000E-01
  8.00000000E-01  8.50000000E-01  8.50000000E-01  8.50000000E-01  8.00000000E-01
  8.50000000E-01  8.50000000E-01  8.50000000E-01  8.00000000E-01  8.50000000E-01
  8.50000000E-01  8.50000000E-01  8.00000000E-01  8.50000000E-01  8.50000000E-01
  8.50000000E-01  8.00000000E-01  8.50000000E-01  8.50000000E-01  8.50000000E-01
  8.00000000E-01  8.50000000E-01  8.50000000E-01  8.50000000E-01  8.00000000E-01
  8.50000000E-01  8.50000000E-01  8.50000000E-01  8.00000000E-01  8.50000000E-01
  8.50000000E-01  8.50000000E-01  8.00000000E-01  8.50000000E-01  8.50000000E-01
  8.50000000E-01  8.00000000E-01  8.50000000E-01  8.50000000E-01  8.50000000E-01
  8.00000000E-01  8.50000000E-01  8.50000000E-01  8.50000000E-01  8.00000000E-01
  8.50000000E-01  8.50000000E-01  8.50000000E-01  8.00000000E-01  8.50000000E-01
  8.50000000E-01  8.50000000E-01  8.00000000E-01  8.50000000E-01  8.50000000E-01
  8.50000000E-01  8.00000000E-01  8.50000000E-01  8.50000000E-01  8.50000000E-01
  8.00000000E-01  8.50000000E-01  8.50000000E-01  8.50000000E-01  8.00000000E-01
  8.50000000E-01  8.50000000E-01  8.50000000E-01  8.00000000E-01  8.50000000E-01
  8.50000000E-01  8.50000000E-01  8.00000000E-01  8.50000000E-01  8.50000000E-01
  8.50000000E-01  8.00000000E-01  8.50000000E-01  8.50000000E-01  8.50000000E-01
  8.00000000E-01  8.50000000E-01  8.50000000E-01  8.50000000E-01  8.00000000E-01
  8.50000000E-01  8.50000000E-01  8.50000000E-01  8.00000000E-01  8.50000000E-01
  8.50000000E-01  8.50000000E-01  8.00000000E-01  8.50000000E-01  8.50000000E-01
  8.50000000E-01  8.00000000E-01  8.50000000E-01  8.50000000E-01  8.50000000E-01
  8.00000000E-01  8.50000000E-01  8.50000000E-01  8.50000000E-01  8.00000000E-01
  8.50000000E-01  8.50000000E-01  8.50000000E-01  8.00000000E-01  8.50000000E-01
  8.50000000E-01  8.50000000E-01  8.00000000E-01  8.50000000E-01  8.50000000E-01
  8.50000000E-01  8.00000000E-01  8.50000000E-01  8.50000000E-01  8.50000000E-01
  8.00000000E-01  8.50000000E-01  8.50000000E-01  8.50000000E-01  8.00000000E-01
  8.50000000E-01  8.50000000E-01  8.50000000E-01  8.00000000E-01  8.50000000E-01
  8.50000000E-01  8.50000000E-01  8.00000000E-01  8.50000000E-01  8.50000000E-01
  8.50000000E-01  8.00000000E-01  8.50000000E-01  8.50000000E-01  8.50000000E-01
  8.00000000E-01  8.50000000E-01  8.50000000E-01  8.50000000E-01  8.00000000E-01
  8.50000000E-01  8.50000000E-01  8.50000000E-01  8.00000000E-01  8.50000000E-01
  8.50000000E-01  8.50000000E-01  8.00000000E-01  8.50000000E-01  8.50000000E-01
  8.50000000E-01  8.00000000E-01  8.50000000E-01  8.50000000E-01  8.50000000E-01
  8.00000000E-01  8.50000000E-01  8.50000000E-01  8.50000000E-01  8.00000000E-01
  8.50000000E-01  8.50000000E-01  8.50000000E-01  8.00000000E-01  8.50000000E-01
  8.50000000E-01  8.50000000E-01  8.00000000E-01  8.50000000E-01  8.50000000E-01
  8.50000000E-01  8.00000000E-01  8.50000000E-01  8.50000000E-01  8.50000000E-01
  8.00000000E-01  8.50000000E-01  8.50000000E-01  8.50000000E-01  8.00000000E-01
  8.50000000E-01  8.50000000E-01  8.50000000E-01  8.00000000E-01  8.50000000E-01
  8.50000000E-01  8.50000000E-01  8.00000000E-01  8.50000000E-01  8.50000000E-01
  8.50000000E-01  8.00000000E-01  8.50000000E-01  8.50000000E-01  8.50000000E-01
  8.00000000E-01  8.50000000E-01  8.50000000E-01  8.50000000E-01  8.00000000E-01
  8.50000000E-01  8.50000000E-01  8.50000000E-01  8.00000000E-01  8.50000000E-01
  8.50000000E-01  8.50000000E-01  8.00000000E-01  8.50000000E-01  8.50000000E-01
  8.50000000E-01  8.00000000E-01  8.50000000E-01  8.50000000E-01  8.50000000E-01
  8.00000000E-01  8.50000000E-01  8.50000000E-01  8.50000000E-01  8.00000000E-01
  8.50000000E-01  8.50000000E-01  8.50000000E-01  8.00000000E-01  8.50000000E-01
  8.50000000E-01  8.50000000E-01  8.00000000E-01  8.50000000E-01  8.50000000E-01
  8.50000000E-01  8.00000000E-01  8.50000000E-01  8.50000000E-01  8.50000000E-01
  8.00000000E-01  8.50000000E-01  8.50000000E-01  8.50000000E-01  8.00000000E-01
  8.50000000E-01  8.50000000E-01  8.50000000E-01  8.00000000E-01  8.50000000E-01
  8.50000000E-01  8.50000000E-01  8.00000000E-01  8.50000000E-01  8.50000000E-01
  8.50000000E-01  8.00000000E-01  8.50000000E-01  8.50000000E-01  8.50000000E-01
  8.00000000E-01  8.50000000E-01  8.50000000E-01  8.50000000E-01  8.00000000E-01
  8.50000000E-01  8.50000000E-01  8.50000000E-01  8.00000000E-01  8.50000000E-01
  8.50000000E-01  8.50000000E-01  8.00000000E-01  8.50000000E-01  8.50000000E-01
  8.50000000E-01  8.00000000E-01  8.50000000E-01  8.50000000E-01  8.50000000E-01
  8.00000000E-01  8.50000000E-01  8.50000000E-01  8.50000000E-01  8.00000000E-01
  8.50000000E-01  8.50000000E-01  8.50000000E-01  8.00000000E-01  8.50000000E-01
  8.50000000E-01  8.50000000E-01  8.00000000E-01  8.50000000E-01  8.50000000E-01
  8.50000000E-01  8.00000000E-01  8.50000000E-01  8.50000000E-01  8.50000000E-01
  8.00000000E-01  8.50000000E-01  8.50000000E-01  8.50000000E-01  8.00000000E-01
  8.50000000E-01  8.50000000E-01  8.50000000E-01  8.00000000E-01  8.50000000E-01
  8.50000000E-01  8.50000000E-01  8.00000000E-01  8.50000000E-01  8.50000000E-01
  8.50000000E-01  8.00000000E-01  8.50000000E-01  8.50000000E-01  8.50000000E-01
  8.00000000E-01  8.50000000E-01  8.50000000E-01  8.50000000E-01  8.00000000E-01
  8.50000000E-01  8.50000000E-01  8.50000000E-01  8.00000000E-01  8.50000000E-01
  8.50000000E-01  8.50000000E-01  8.00000000E-01  8.50000000E-01  8.50000000E-01
  8.50000000E-01  8.00000000E-01  8.50000000E-01  8.50000000E-01  8.50000000E-01
  8.00000000E-01  8.50000000E-01  8.50000000E-01  8.50000000E-01  8.00000000E-01
  8.50000000E-01  8.50000000E-01  8.50000000E-01  8.00000000E-01  8.50000000E-01
  8.50000000E-01  8.50000000E-01  8.00000000E-01  8.50000000E-01  8.50000000E-01
  8.50000000E-01  8.00000000E-01  8.50000000E-01  8.50000000E-01  8.50000000E-01
  8.00000000E-01  8.50000000E-01  8.50000000E-01  8.50000000E-01  8.00000000E-01
  8.50000000E-01  8.50000000E-01  8.50000000E-01  8.00000000E-01  8.50000000E-01
  8.50000000E-01  8.50000000E-01  8.00000000E-01  8.50000000E-01  8.50000000E-01
  8.50000000E-01  8.00000000E-01  8.50000000E-01  8.50000000E-01  8.50000000E-01
  8.00000000E-01  8.50000000E-01  8.50000000E-01  8.50000000E-01  8.00000000E-01
  8.50000000E-01  8.50000000E-01  8.50000000E-01  8.00000000E-01  8.50000000E-01
  8.50000000E-01  8.50000000E-01  8.00000000E-01  8.50000000E-01  8.50000000E-01
  8.50000000E-01  8.00000000E-01  8.50000000E-01  8.50000000E-01  8.50000000E-01
  8.00000000E-01  8.50000000E-01  8.50000000E-01  8.50000000E-01  8.00000000E-01
  8.50000000E-01  8.50000000E-01  8.50000000E-01  8.00000000E-01  8.50000000E-01
  8.50000000E-01  8.50000000E-01  8.00000000E-01  8.50000000E-01  8.50000000E-01
  8.50000000E-01  8.00000000E-01  8.50000000E-01  8.50000000E-01  8.50000000E-01
  8.00000000E-01  8.50000000E-01  8.50000000E-01  8.50000000E-01  8.00000000E-01
  8.50000000E-01  8.50000000E-01  8.50000000E-01  8.00000000E-01  8.50000000E-01
  8.50000000E-01  8.50000000E-01  8.00000000E-01  8.50000000E-01  8.50000000E-01
  8.50000000E-01  8.00000000E-01  8.50000000E-01  8.50000000E-01  8.50000000E-01
  8.00000000E-01  8.50000000E-01  8.50000000E-01  8.50000000E-01  8.00000000E-01
  8.50000000E-01  8.50000000E-01  8.50000000E-01  8.00000000E-01  8.50000000E-01
  8.50000000E-01  8.50000000E-01  8.00000000E-01  8.50000000E-01  8.50000000E-01
  8.50000000E-01  8.00000000E-01  8.50000000E-01  8.50000000E-01  8.50000000E-01
  8.00000000E-01  8.50000000E-01  8.50000000E-01  8.50000000E-01  8.00000000E-01
  8.50000000E-01  8.50000000E-01  8.50000000E-01  8.00000000E-01  8.50000000E-01
  8.50000000E-01  8.50000000E-01  8.00000000E-01  8.50000000E-01  8.50000000E-01
  8.50000000E-01  8.00000000E-01  8.50000000E-01  8.50000000E-01  8.50000000E-01
  8.00000000E-01  8.50000000E-01  8.50000000E-01  8.50000000E-01  8.00000000E-01
  8.50000000E-01  8.50000000E-01  8.50000000E-01  8.00000000E-01  8.50000000E-01
  8.50000000E-01  8.50000000E-01  8.00000000E-01  8.50000000E-01  8.50000000E-01
  8.50000000E-01  8.00000000E-01  8.50000000E-01  8.50000000E-01  8.50000000E-01
  8.00000000E-01  8.50000000E-01  8.50000000E-01  8.50000000E-01  8.00000000E-01
  8.50000000E-01  8.50000000E-01  8.50000000E-01  8.00000000E-01  8.50000000E-01
  8.50000000E-01  8.50000000E-01  8.00000000E-01  8.50000000E-01  8.50000000E-01
  8.50000000E-01  8.00000000E-01  8.50000000E-01  8.50000000E-01  8.50000000E-01
  8.00000000E-01  8.50000000E-01  8.50000000E-01  8.50000000E-01  8.00000000E-01
  8.50000000E-01  8.50000000E-01  8.50000000E-01  8.00000000E-01  8.50000000E-01
  8.50000000E-01  8.50000000E-01  8.00000000E-01  8.50000000E-01  8.50000000E-01
  8.50000000E-01  8.00000000E-01  8.50000000E-01  8.50000000E-01  8.50000000E-01
  8.00000000E-01  8.50000000E-01  8.50000000E-01  8.50000000E-01  8.00000000E-01
  8.50000000E-01  8.50000000E-01  8.50000000E-01  8.00000000E-01  8.50000000E-01
  8.50000000E-01  8.50000000E-01  8.00000000E-01  8.50000000E-01  8.50000000E-01
  8.50000000E-01  8.00000000E-01  8.50000000E-01  8.50000000E-01  8.50000000E-01
  8.00000000E-01  8.50000000E-01  8.50000000E-01  8.50000000E-01  8.00000000E-01
  8.50000000E-01  8.50000000E-01  8.50000000E-01  8.00000000E-01  8.50000000E-01
  8.50000000E-01  8.50000000E-01  8.00000000E-01  8.50000000E-01  8.50000000E-01
  8.50000000E-01  8.00000000E-01  8.50000000E-01  8.50000000E-01  8.50000000E-01
  8.00000000E-01  8.50000000E-01  8.50000000E-01  8.50000000E-01  8.00000000E-01
  8.50000000E-01  8.50000000E-01  8.50000000E-01  8.00000000E-01  8.50000000E-01
  8.50000000E-01  8.50000000E-01  8.00000000E-01  8.50000000E-01  8.50000000E-01
  8.50000000E-01  8.00000000E-01  8.50000000E-01  8.50000000E-01  8.50000000E-01
  8.00000000E-01  8.50000000E-01  8.50000000E-01  8.50000000E-01  8.00000000E-01
  8.50000000E-01  8.50000000E-01  8.50000000E-01  8.00000000E-01  8.50000000E-01
  8.50000000E-01  8.50000000E-01  8.00000000E-01  8.50000000E-01  8.50000000E-01
  8.50000000E-01  8.00000000E-01  8.50000000E-01  8.50000000E-01  8.50000000E-01
  8.00000000E-01  8.50000000E-01  8.50000000E-01  8.50000000E-01  8.00000000E-01
  8.50000000E-01  8.50000000E-01  8.50000000E-01  8.00000000E-01  8.50000000E-01
  8.50000000E-01  8.50000000E-01  8.00000000E-01  8.50000000E-01  8.50000000E-01
  8.50000000E-01  8.00000000E-01  8.50000000E-01  8.50000000E-01  8.50000000E-01
  8.00000000E-01  8.50000000E-01  8.50000000E-01  8.50000000E-01  8.00000000E-01
  8.50000000E-01  8.50000000E-01  8.50000000E-01  8.00000000E-01  8.50000000E-01
  8.50000000E-01  8.50000000E-01  8.00000000E-01  8.50000000E-01  8.50000000E-01
  8.50000000E-01  8.00000000E-01  8.50000000E-01  8.50000000E-01  8.50000000E-01
  8.00000000E-01  8.50000000E-01  8.50000000E-01  8.50000000E-01  8.00000000E-01
  8.50000000E-01  8.50000000E-01  8.50000000E-01  8.00000000E-01  8.50000000E-01
  8.50000000E-01  8.50000000E-01  8.00000000E-01  8.50000000E-01  8.50000000E-01
  8.50000000E-01  8.00000000E-01  8.50000000E-01  8.50000000E-01  8.50000000E-01
  8.00000000E-01  8.50000000E-01  8.50000000E-01  8.50000000E-01  8.00000000E-01
  8.50000000E-01  8.50000000E-01  8.50000000E-01  8.00000000E-01  8.50000000E-01
  8.50000000E-01  8.50000000E-01  8.00000000E-01  8.50000000E-01  8.50000000E-01
  8.50000000E-01  8.00000000E-01  8.50000000E-01  8.50000000E-01  8.50000000E-01
  8.00000000E-01  8.50000000E-01  8.50000000E-01  8.50000000E-01  8.00000000E-01
  8.50000000E-01  8.50000000E-01  8.50000000E-01  8.00000000E-01  8.50000000E-01
  8.50000000E-01  8.50000000E-01  8.00000000E-01  8.50000000E-01  8.50000000E-01
  8.50000000E-01  8.00000000E-01  8.50000000E-01  8.50000000E-01  8.50000000E-01
  8.00000000E-01  8.50000000E-01  8.50000000E-01  8.50000000E-01  8.00000000E-01
  8.50000000E-01  8.50000000E-01  8.50000000E-01  8.00000000E-01  8.50000000E-01
  8.50000000E-01  8.50000000E-01  8.00000000E-01  8.50000000E-01  8.50000000E-01
  8.50000000E-01  8.00000000E-01  8.50000000E-01  8.50000000E-01  8.50000000E-01
  8.00000000E-01  8.50000000E-01  8.50000000E-01  8.50000000E-01  8.00000000E-01
  8.50000000E-01  8.50000000E-01  8.50000000E-01  8.00000000E-01  8.50000000E-01
  8.50000000E-01  8.50000000E-01  8.00000000E-01  8.50000000E-01  8.50000000E-01
  8.50000000E-01  8.00000000E-01  8.50000000E-01  8.50000000E-01  8.50000000E-01
  8.00000000E-01  8.50000000E-01  8.50000000E-01  8.50000000E-01  8.00000000E-01
  8.50000000E-01  8.50000000E-01  8.50000000E-01  8.00000000E-01  8.50000000E-01
  8.50000000E-01  8.50000000E-01  8.00000000E-01  8.50000000E-01  8.50000000E-01
  8.50000000E-01  8.00000000E-01  8.50000000E-01  8.50000000E-01  8.50000000E-01
  8.00000000E-01  8.50000000E-01  8.50000000E-01  8.50000000E-01  8.00000000E-01
  8.50000000E-01  8.50000000E-01  8.50000000E-01  8.00000000E-01  8.50000000E-01
  8.50000000E-01  8.50000000E-01  8.00000000E-01  8.50000000E-01  8.50000000E-01
  8.50000000E-01  8.00000000E-01  8.50000000E-01  8.50000000E-01  8.50000000E-01
  8.00000000E-01  8.50000000E-01  8.50000000E-01  8.50000000E-01  8.00000000E-01
  8.50000000E-01  8.50000000E-01  8.50000000E-01  8.00000000E-01  8.50000000E-01
  8.50000000E-01  8.50000000E-01  8.00000000E-01  8.50000000E-01  8.50000000E-01
  8.50000000E-01  8.00000000E-01  8.50000000E-01  8.50000000E-01  8.50000000E-01
  8.00000000E-01  8.50000000E-01  8.50000000E-01  8.50000000E-01  8.00000000E-01
  8.50000000E-01  8.50000000E-01  8.50000000E-01  8.00000000E-01  8.50000000E-01
  8.50000000E-01  8.50000000E-01  8.00000000E-01  8.50000000E-01  8.50000000E-01
  8.50000000E-01  8.00000000E-01  8.50000000E-01  8.50000000E-01  8.50000000E-01
  8.00000000E-01  8.50000000E-01  8.50000000E-01  8.50000000E-01  8.00000000E-01
  8.50000000E-01  8.50000000E-01  8.50000000E-01  8.00000000E-01  8.50000000E-01
  8.50000000E-01  8.50000000E-01  8.00000000E-01  8.50000000E-01  8.50000000E-01
  8.50000000E-01  8.00000000E-01  8.50000000E-01  8.50000000E-01  8.50000000E-01
  8.00000000E-01  8.50000000E-01  8.50000000E-01  8.50000000E-01  8.00000000E-01
  8.50000000E-01  8.50000000E-01  8.50000000E-01  8.00000000E-01  8.50000000E-01
  8.50000000E-01  8.50000000E-01  8.00000000E-01  8.50000000E-01  8.50000000E-01
  8.50000000E-01  8.00000000E-01  8.50000000E-01  8.50000000E-01  8.50000000E-01
  8.00000000E-01  8.50000000E-01  8.50000000E-01  8.50000000E-01  8.00000000E-01
  8.50000000E-01  8.50000000E-01  8.50000000E-01  8.00000000E-01  8.50000000E-01
  8.50000000E-01  8.50000000E-01  8.00000000E-01  8.50000000E-01  8.50000000E-01
  8.50000000E-01  8.00000000E-01  8.50000000E-01  8.50000000E-01  8.50000000E-01
  8.00000000E-01  8.50000000E-01  8.50000000E-01  8.50000000E-01  8.00000000E-01
  8.50000000E-01  8.50000000E-01  8.50000000E-01  8.00000000E-01  8.50000000E-01
  8.50000000E-01  8.50000000E-01  8.00000000E-01  8.50000000E-01  8.50000000E-01
  8.50000000E-01  8.00000000E-01  8.50000000E-01  8.50000000E-01  8.50000000E-01
  8.00000000E-01  8.50000000E-01  8.50000000E-01  8.50000000E-01  8.00000000E-01
  8.50000000E-01  8.50000000E-01  8.50000000E-01  8.00000000E-01  8.50000000E-01
  8.50000000E-01  8.50000000E-01  8.00000000E-01  8.50000000E-01  8.50000000E-01
  8.50000000E-01  8.00000000E-01  8.50000000E-01  8.50000000E-01  8.50000000E-01
  8.00000000E-01  8.50000000E-01  8.50000000E-01  8.50000000E-01  8.00000000E-01
  8.50000000E-01  8.50000000E-01  8.50000000E-01  8.00000000E-01  8.50000000E-01
  8.50000000E-01  8.50000000E-01  8.00000000E-01  8.50000000E-01  8.50000000E-01
  8.50000000E-01  8.00000000E-01  8.50000000E-01  8.50000000E-01  8.50000000E-01
  8.00000000E-01  8.50000000E-01  8.50000000E-01  8.50000000E-01  8.00000000E-01
  8.50000000E-01  8.50000000E-01  8.50000000E-01  8.00000000E-01  8.50000000E-01
  8.50000000E-01  8.50000000E-01  8.00000000E-01  8.50000000E-01  8.50000000E-01
  8.50000000E-01  8.00000000E-01  8.50000000E-01  8.50000000E-01  8.50000000E-01
  8.00000000E-01  8.50000000E-01  8.50000000E-01  8.50000000E-01  8.00000000E-01
  8.50000000E-01  8.50000000E-01  8.50000000E-01  8.00000000E-01  8.50000000E-01
  8.50000000E-01  8.50000000E-01  8.00000000E-01  8.50000000E-01  8.50000000E-01
  8.50000000E-01  8.00000000E-01  8.50000000E-01  8.50000000E-01  8.50000000E-01
  8.00000000E-01  8.50000000E-01  8.50000000E-01  8.50000000E-01  8.00000000E-01
  8.50000000E-01  8.50000000E-01  8.50000000E-01  8.00000000E-01  8.50000000E-01
  8.50000000E-01  8.50000000E-01  8.00000000E-01  8.50000000E-01  8.50000000E-01
  8.50000000E-01  8.00000000E-01  8.50000000E-01  8.50000000E-01  8.50000000E-01
  8.00000000E-01  8.50000000E-01  8.50000000E-01  8.50000000E-01  8.00000000E-01
  8.50000000E-01  8.50000000E-01  8.50000000E-01  8.00000000E-01  8.50000000E-01
  8.50000000E-01  8.50000000E-01  8.00000000E-01  8.50000000E-01  8.50000000E-01
  8.50000000E-01  8.00000000E-01  8.50000000E-01  8.50000000E-01  8.50000000E-01
  8.00000000E-01  8.50000000E-01  8.50000000E-01  8.50000000E-01  8.00000000E-01
  8.50000000E-01  8.50000000E-01  8.50000000E-01  8.00000000E-01  8.50000000E-01
  8.50000000E-01  8.50000000E-01  8.00000000E-01  8.50000000E-01  8.50000000E-01
  8.50000000E-01  8.00000000E-01  8.50000000E-01  8.50000000E-01  8.50000000E-01
  8.00000000E-01  8.50000000E-01  8.50000000E-01  8.50000000E-01  8.00000000E-01
  8.50000000E-01  8.50000000E-01  8.50000000E-01  8.00000000E-01  8.50000000E-01
  8.50000000E-01  8.50000000E-01  8.00000000E-01  8.50000000E-01  8.50000000E-01
  8.50000000E-01  8.00000000E-01  8.50000000E-01  8.50000000E-01  8.50000000E-01
  8.00000000E-01  8.50000000E-01  8.50000000E-01  8.50000000E-01  8.00000000E-01
  8.50000000E-01  8.50000000E-01  8.50000000E-01  8.00000000E-01  8.50000000E-01
  8.50000000E-01  8.50000000E-01  8.00000000E-01  8.50000000E-01  8.50000000E-01
  8.50000000E-01  8.00000000E-01  8.50000000E-01  8.50000000E-01  8.50000000E-01
  8.00000000E-01  8.50000000E-01  8.50000000E-01  8.50000000E-01  8.00000000E-01
  8.50000000E-01  8.50000000E-01  8.50000000E-01  8.00000000E-01  8.50000000E-01
  8.50000000E-01  8.50000000E-01  8.00000000E-01  8.50000000E-01  8.50000000E-01
  8.50000000E-01  8.00000000E-01  8.50000000E-01  8.50000000E-01  8.50000000E-01
  8.00000000E-01  8.50000000E-01  8.50000000E-01  8.50000000E-01  8.00000000E-01
  8.50000000E-01  8.50000000E-01  8.50000000E-01  8.00000000E-01  8.50000000E-01
  8.50000000E-01  8.50000000E-01  8.00000000E-01  8.50000000E-01  8.50000000E-01
  8.50000000E-01  8.00000000E-01  8.50000000E-01  8.50000000E-01  8.50000000E-01
  8.00000000E-01  8.50000000E-01  8.50000000E-01  8.50000000E-01  8.00000000E-01
  8.50000000E-01  8.50000000E-01  8.50000000E-01  8.00000000E-01  8.50000000E-01
  8.50000000E-01  8.50000000E-01  8.00000000E-01  8.50000000E-01  8.50000000E-01
  8.50000000E-01  8.00000000E-01  8.50000000E-01  8.50000000E-01  8.50000000E-01
  8.00000000E-01  8.50000000E-01  8.50000000E-01  8.50000000E-01  8.00000000E-01
  8.50000000E-01  8.50000000E-01  8.50000000E-01  8.00000000E-01  8.50000000E-01
  8.50000000E-01  8.50000000E-01  8.00000000E-01  8.50000000E-01  8.50000000E-01
  8.50000000E-01  8.00000000E-01  8.50000000E-01  8.50000000E-01  8.50000000E-01
  8.00000000E-01  8.50000000E-01  8.50000000E-01  8.50000000E-01  8.00000000E-01
  8.50000000E-01  8.50000000E-01  8.50000000E-01  8.00000000E-01  8.50000000E-01
  8.50000000E-01  8.50000000E-01  8.00000000E-01  8.50000000E-01  8.50000000E-01
  8.50000000E-01  8.00000000E-01  8.50000000E-01  8.50000000E-01  8.50000000E-01
  8.00000000E-01  8.50000000E-01  8.50000000E-01  8.50000000E-01  8.00000000E-01
  8.50000000E-01  8.50000000E-01  8.50000000E-01  8.00000000E-01  8.50000000E-01
  8.50000000E-01  8.50000000E-01  8.00000000E-01  8.50000000E-01  8.50000000E-01
  8.50000000E-01  8.00000000E-01  8.50000000E-01  8.50000000E-01  8.50000000E-01
  8.00000000E-01  8.50000000E-01  8.50000000E-01  8.50000000E-01  8.00000000E-01
  8.50000000E-01  8.50000000E-01  8.50000000E-01  8.00000000E-01  8.50000000E-01
  8.50000000E-01  8.50000000E-01  8.00000000E-01  8.50000000E-01  8.50000000E-01
  8.50000000E-01  8.00000000E-01  8.50000000E-01  8.50000000E-01  8.50000000E-01
  8.00000000E-01  8.50000000E-01  8.50000000E-01  8.50000000E-01  8.00000000E-01
  8.50000000E-01  8.50000000E-01  8.50000000E-01  8.00000000E-01  8.50000000E-01
  8.50000000E-01  8.50000000E-01  8.00000000E-01  8.50000000E-01  8.50000000E-01
  8.50000000E-01  8.00000000E-01  8.50000000E-01  8.50000000E-01  8.50000000E-01
  8.00000000E-01  8.50000000E-01  8.50000000E-01  8.50000000E-01  8.00000000E-01
  8.50000000E-01  8.50000000E-01  8.50000000E-01  8.00000000E-01  8.50000000E-01
  8.50000000E-01  8.50000000E-01  8.00000000E-01  8.50000000E-01  8.50000000E-01
  8.50000000E-01  8.00000000E-01  8.50000000E-01  8.50000000E-01  8.50000000E-01
  8.00000000E-01  8.50000000E-01  8.50000000E-01  8.50000000E-01  8.00000000E-01
  8.50000000E-01  8.50000000E-01  8.50000000E-01  8.00000000E-01  8.50000000E-01
  8.50000000E-01  8.50000000E-01  8.00000000E-01  8.50000000E-01  8.50000000E-01
  8.50000000E-01  8.00000000E-01  8.50000000E-01  8.50000000E-01  8.50000000E-01
  8.00000000E-01  8.50000000E-01  8.50000000E-01  8.50000000E-01  8.00000000E-01
  8.50000000E-01  8.50000000E-01  8.50000000E-01  8.00000000E-01  8.50000000E-01
  8.50000000E-01  8.50000000E-01  8.00000000E-01  8.50000000E-01  8.50000000E-01
  8.50000000E-01  8.00000000E-01  8.50000000E-01  8.50000000E-01  8.50000000E-01
  8.00000000E-01  8.50000000E-01  8.50000000E-01  8.50000000E-01  8.00000000E-01
  8.50000000E-01  8.50000000E-01  8.50000000E-01  8.00000000E-01  8.50000000E-01
  8.50000000E-01  8.50000000E-01  8.00000000E-01  8.50000000E-01  8.50000000E-01
  8.50000000E-01  8.00000000E-01  8.50000000E-01  8.50000000E-01  8.50000000E-01
  8.00000000E-01  8.50000000E-01  8.50000000E-01  8.50000000E-01  8.00000000E-01
  8.50000000E-01  8.50000000E-01  8.50000000E-01  8.00000000E-01  8.50000000E-01
  8.50000000E-01  8.50000000E-01  8.00000000E-01  8.50000000E-01  8.50000000E-01
  8.50000000E-01  8.00000000E-01  8.50000000E-01  8.50000000E-01  8.50000000E-01
  8.00000000E-01  8.50000000E-01  8.50000000E-01  8.50000000E-01  8.00000000E-01
  8.50000000E-01  8.50000000E-01  8.50000000E-01  8.00000000E-01  8.50000000E-01
  8.50000000E-01  8.50000000E-01  8.00000000E-01  8.50000000E-01  8.50000000E-01
  8.50000000E-01  8.00000000E-01  8.50000000E-01  8.50000000E-01  8.50000000E-01
  8.00000000E-01  8.50000000E-01  8.50000000E-01  8.50000000E-01  8.00000000E-01
  8.50000000E-01  8.50000000E-01  8.50000000E-01  8.00000000E-01  8.50000000E-01
  8.50000000E-01  8.50000000E-01  8.00000000E-01  8.50000000E-01  8.50000000E-01
  8.50000000E-01  8.00000000E-01  8.50000000E-01  8.50000000E-01  8.50000000E-01
  8.00000000E-01  8.50000000E-01  8.50000000E-01  8.50000000E-01  8.00000000E-01
  8.50000000E-01  8.50000000E-01  8.50000000E-01  8.00000000E-01  8.50000000E-01
  8.50000000E-01  8.50000000E-01  8.00000000E-01  8.50000000E-01  8.50000000E-01
  8.50000000E-01  8.00000000E-01  8.50000000E-01  8.50000000E-01  8.50000000E-01
  8.00000000E-01  8.50000000E-01  8.50000000E-01  8.50000000E-01  8.00000000E-01
  8.50000000E-01  8.50000000E-01  8.50000000E-01  8.00000000E-01  8.50000000E-01
  8.50000000E-01  8.50000000E-01  8.00000000E-01  8.50000000E-01  8.50000000E-01
  8.50000000E-01  8.00000000E-01  8.50000000E-01  8.50000000E-01  8.50000000E-01
  8.00000000E-01  8.50000000E-01  8.50000000E-01  8.50000000E-01  8.00000000E-01
  8.50000000E-01  8.50000000E-01  8.50000000E-01  8.00000000E-01  8.50000000E-01
  8.50000000E-01  8.50000000E-01  8.00000000E-01  8.50000000E-01  8.50000000E-01
  8.50000000E-01  8.00000000E-01  8.50000000E-01  8.50000000E-01  8.50000000E-01
  8.00000000E-01  8.50000000E-01  8.50000000E-01  8.50000000E-01  8.00000000E-01
  8.50000000E-01  8.50000000E-01  8.50000000E-01  8.00000000E-01  8.50000000E-01
  8.50000000E-01  8.50000000E-01  8.00000000E-01  8.50000000E-01  8.50000000E-01
  8.50000000E-01  8.00000000E-01  8.50000000E-01  8.50000000E-01  8.50000000E-01
  8.00000000E-01  8.50000000E-01  8.50000000E-01  8.50000000E-01  8.00000000E-01
  8.50000000E-01  8.50000000E-01  8.50000000E-01  8.00000000E-01  8.50000000E-01
  8.50000000E-01  8.50000000E-01  8.00000000E-01  8.50000000E-01  8.50000000E-01
  8.50000000E-01  8.00000000E-01  8.50000000E-01  8.50000000E-01  8.50000000E-01
  8.00000000E-01  8.50000000E-01  8.50000000E-01  8.50000000E-01  8.00000000E-01
  8.50000000E-01  8.50000000E-01  8.50000000E-01  8.00000000E-01  8.50000000E-01
  8.50000000E-01  8.50000000E-01  8.00000000E-01  8.50000000E-01  8.50000000E-01
  8.50000000E-01  8.00000000E-01  8.50000000E-01  8.50000000E-01  8.50000000E-01
  8.00000000E-01  8.50000000E-01  8.50000000E-01  8.50000000E-01  8.00000000E-01
  8.50000000E-01  8.50000000E-01  8.50000000E-01  8.00000000E-01  8.50000000E-01
  8.50000000E-01  8.50000000E-01  8.00000000E-01  8.50000000E-01  8.50000000E-01
  8.50000000E-01  8.00000000E-01  8.50000000E-01  8.50000000E-01  8.50000000E-01
  8.00000000E-01  8.50000000E-01  8.50000000E-01  8.50000000E-01  8.00000000E-01
  8.50000000E-01  8.50000000E-01  8.50000000E-01  8.00000000E-01  8.50000000E-01
  8.50000000E-01  8.50000000E-01  8.00000000E-01  8.50000000E-01  8.50000000E-01
  8.50000000E-01  8.00000000E-01  8.50000000E-01  8.50000000E-01  8.50000000E-01
  8.00000000E-01  8.50000000E-01  8.50000000E-01  8.50000000E-01  8.00000000E-01
  8.50000000E-01  8.50000000E-01  8.50000000E-01  8.00000000E-01  8.50000000E-01
  8.50000000E-01  8.50000000E-01  8.00000000E-01  8.50000000E-01  8.50000000E-01
  8.50000000E-01  8.00000000E-01  8.50000000E-01  8.50000000E-01  8.50000000E-01
  8.00000000E-01  8.50000000E-01  8.50000000E-01  8.50000000E-01  8.00000000E-01
  8.50000000E-01  8.50000000E-01  8.50000000E-01  8.00000000E-01  8.50000000E-01
  8.50000000E-01  8.50000000E-01  8.00000000E-01  8.50000000E-01  8.50000000E-01
  8.50000000E-01  8.00000000E-01  8.50000000E-01  8.50000000E-01  8.50000000E-01
  8.00000000E-01  8.50000000E-01  8.50000000E-01  8.50000000E-01  8.00000000E-01
  8.50000000E-01  8.50000000E-01  8.50000000E-01  8.00000000E-01  8.50000000E-01
  8.50000000E-01  8.50000000E-01  8.00000000E-01  8.50000000E-01  8.50000000E-01
  8.50000000E-01  8.00000000E-01  8.50000000E-01  8.50000000E-01  8.50000000E-01
  8.00000000E-01  8.50000000E-01  8.50000000E-01  8.50000000E-01  8.00000000E-01
  8.50000000E-01  8.50000000E-01  8.50000000E-01  8.00000000E-01  8.50000000E-01
  8.50000000E-01  8.50000000E-01  8.00000000E-01  8.50000000E-01  8.50000000E-01
  8.50000000E-01  8.00000000E-01  8.50000000E-01  8.50000000E-01  8.50000000E-01
  8.00000000E-01  8.50000000E-01  8.50000000E-01  8.50000000E-01  8.00000000E-01
  8.50000000E-01  8.50000000E-01  8.50000000E-01  8.00000000E-01  8.50000000E-01
  8.50000000E-01  8.50000000E-01  8.00000000E-01  8.50000000E-01  8.50000000E-01
  8.50000000E-01  8.00000000E-01  8.50000000E-01  8.50000000E-01  8.50000000E-01
  8.00000000E-01  8.50000000E-01  8.50000000E-01  8.50000000E-01  8.00000000E-01
  8.50000000E-01  8.50000000E-01  8.50000000E-01  8.00000000E-01  8.50000000E-01
  8.50000000E-01  8.50000000E-01  8.00000000E-01  8.50000000E-01  8.50000000E-01
  8.50000000E-01  8.00000000E-01  8.50000000E-01  8.50000000E-01  8.50000000E-01
  8.00000000E-01  8.50000000E-01  8.50000000E-01  8.50000000E-01  8.00000000E-01
  8.50000000E-01  8.50000000E-01  8.50000000E-01  8.00000000E-01  8.50000000E-01
  8.50000000E-01  8.50000000E-01  8.00000000E-01  8.50000000E-01  8.50000000E-01
  8.50000000E-01  8.00000000E-01  8.50000000E-01  8.50000000E-01  8.50000000E-01
  8.00000000E-01  8.50000000E-01  8.50000000E-01  8.50000000E-01  8.00000000E-01
  8.50000000E-01  8.50000000E-01  8.50000000E-01  8.00000000E-01  8.50000000E-01
  8.50000000E-01  8.50000000E-01  8.00000000E-01  8.50000000E-01  8.50000000E-01
  8.50000000E-01  8.00000000E-01  8.50000000E-01  8.50000000E-01  8.50000000E-01
  8.00000000E-01  8.50000000E-01  8.50000000E-01  8.50000000E-01  8.00000000E-01
  8.50000000E-01  8.50000000E-01  8.50000000E-01  8.00000000E-01  8.50000000E-01
  8.50000000E-01  8.50000000E-01  8.00000000E-01  8.50000000E-01  8.50000000E-01
  8.50000000E-01  8.00000000E-01  8.50000000E-01  8.50000000E-01  8.50000000E-01
  8.00000000E-01  8.50000000E-01  8.50000000E-01  8.50000000E-01  8.00000000E-01
  8.50000000E-01  8.50000000E-01  8.50000000E-01  8.00000000E-01  8.50000000E-01
  8.50000000E-01  8.50000000E-01  8.00000000E-01  8.50000000E-01  8.50000000E-01
  8.50000000E-01  8.00000000E-01  8.50000000E-01  8.50000000E-01  8.50000000E-01
  8.00000000E-01  8.50000000E-01  8.50000000E-01  8.50000000E-01  8.00000000E-01
  8.50000000E-01  8.50000000E-01  8.50000000E-01  8.00000000E-01  8.50000000E-01
  8.50000000E-01  8.50000000E-01  8.00000000E-01  8.50000000E-01  8.50000000E-01
  8.50000000E-01  8.00000000E-01  8.50000000E-01  8.50000000E-01  8.50000000E-01
  8.00000000E-01  8.50000000E-01  8.50000000E-01  8.50000000E-01  8.00000000E-01
  8.50000000E-01  8.50000000E-01  8.50000000E-01  8.00000000E-01  8.50000000E-01
  8.50000000E-01  8.50000000E-01  8.00000000E-01  8.50000000E-01  8.50000000E-01
  8.50000000E-01  8.00000000E-01  8.50000000E-01  8.50000000E-01  8.50000000E-01
  8.00000000E-01  8.50000000E-01  8.50000000E-01  8.50000000E-01  8.00000000E-01
  8.50000000E-01  8.50000000E-01  8.50000000E-01  8.00000000E-01  8.50000000E-01
  8.50000000E-01  8.50000000E-01  8.00000000E-01  8.50000000E-01  8.50000000E-01
  8.50000000E-01  8.00000000E-01  8.50000000E-01  8.50000000E-01  8.50000000E-01
  8.00000000E-01  8.50000000E-01  8.50000000E-01  8.50000000E-01  8.00000000E-01
  8.50000000E-01  8.50000000E-01  8.50000000E-01  8.00000000E-01  8.50000000E-01
  8.50000000E-01  8.50000000E-01  8.00000000E-01  8.50000000E-01  8.50000000E-01
  8.50000000E-01  8.00000000E-01  8.50000000E-01  8.50000000E-01  8.50000000E-01
  8.00000000E-01  8.50000000E-01  8.50000000E-01  8.50000000E-01  8.00000000E-01
  8.50000000E-01  8.50000000E-01  8.50000000E-01  8.00000000E-01  8.50000000E-01
  8.50000000E-01  8.50000000E-01  8.00000000E-01  8.50000000E-01  8.50000000E-01
  8.50000000E-01  8.00000000E-01  8.50000000E-01  8.50000000E-01  8.50000000E-01
  8.00000000E-01  8.50000000E-01  8.50000000E-01  8.50000000E-01  8.00000000E-01
  8.50000000E-01  8.50000000E-01  8.50000000E-01  8.00000000E-01  8.50000000E-01
  8.50000000E-01  8.50000000E-01  8.00000000E-01  8.50000000E-01  8.50000000E-01
  8.50000000E-01  8.00000000E-01  8.50000000E-01  8.50000000E-01  8.50000000E-01
  8.00000000E-01  8.50000000E-01  8.50000000E-01  8.50000000E-01  8.00000000E-01
  8.50000000E-01  8.50000000E-01  8.50000000E-01  8.00000000E-01  8.50000000E-01
  8.50000000E-01  8.50000000E-01  8.00000000E-01  8.50000000E-01  8.50000000E-01
  8.50000000E-01  8.00000000E-01  8.50000000E-01  8.50000000E-01  8.50000000E-01
  8.00000000E-01  8.50000000E-01  8.50000000E-01  8.50000000E-01  8.00000000E-01
  8.50000000E-01  8.50000000E-01  8.50000000E-01  8.00000000E-01  8.50000000E-01
  8.50000000E-01  8.50000000E-01  8.00000000E-01  8.50000000E-01  8.50000000E-01
  8.50000000E-01  8.00000000E-01  8.50000000E-01  8.50000000E-01  8.50000000E-01
  8.00000000E-01  8.50000000E-01  8.50000000E-01  8.50000000E-01  8.00000000E-01
  8.50000000E-01  8.50000000E-01  8.50000000E-01  8.00000000E-01  8.50000000E-01
  8.50000000E-01  8.50000000E-01  8.00000000E-01  8.50000000E-01  8.50000000E-01
  8.50000000E-01  8.00000000E-01  8.50000000E-01  8.50000000E-01  8.50000000E-01
  8.00000000E-01  8.50000000E-01  8.50000000E-01  8.50000000E-01  8.00000000E-01
  8.50000000E-01  8.50000000E-01  8.50000000E-01  8.00000000E-01  8.50000000E-01
  8.50000000E-01  8.50000000E-01  8.00000000E-01  8.50000000E-01  8.50000000E-01
  8.50000000E-01  8.00000000E-01  8.50000000E-01  8.50000000E-01  8.50000000E-01
  8.00000000E-01  8.50000000E-01  8.50000000E-01  8.50000000E-01  8.00000000E-01
  8.50000000E-01  8.50000000E-01  8.50000000E-01  8.00000000E-01  8.50000000E-01
  8.50000000E-01  8.50000000E-01  8.00000000E-01  8.50000000E-01  8.50000000E-01
  8.50000000E-01  8.00000000E-01  8.50000000E-01  8.50000000E-01  8.50000000E-01
  8.00000000E-01  8.50000000E-01  8.50000000E-01  8.50000000E-01  8.00000000E-01
  8.50000000E-01  8.50000000E-01  8.50000000E-01  8.00000000E-01  8.50000000E-01
  8.50000000E-01  8.50000000E-01  8.00000000E-01  8.50000000E-01  8.50000000E-01
  8.50000000E-01  8.00000000E-01  8.50000000E-01  8.50000000E-01  8.50000000E-01
  8.00000000E-01  8.50000000E-01  8.50000000E-01  8.50000000E-01  8.00000000E-01
  8.50000000E-01  8.50000000E-01  8.50000000E-01  8.00000000E-01  8.50000000E-01
  8.50000000E-01  8.50000000E-01  8.00000000E-01  8.50000000E-01  8.50000000E-01
  8.50000000E-01  8.00000000E-01  8.50000000E-01  8.50000000E-01  8.50000000E-01
  8.00000000E-01  8.50000000E-01  8.50000000E-01  8.50000000E-01  8.00000000E-01
  8.50000000E-01  8.50000000E-01  8.50000000E-01  8.00000000E-01  8.50000000E-01
  8.50000000E-01  8.50000000E-01  8.00000000E-01  8.50000000E-01  8.50000000E-01
  8.50000000E-01  8.00000000E-01  8.50000000E-01  8.50000000E-01  8.50000000E-01
  8.00000000E-01  8.50000000E-01  8.50000000E-01  8.50000000E-01  8.00000000E-01
  8.50000000E-01  8.50000000E-01  8.50000000E-01  8.00000000E-01  8.50000000E-01
  8.50000000E-01  8.50000000E-01  8.00000000E-01  8.50000000E-01  8.50000000E-01
  8.50000000E-01  8.00000000E-01  8.50000000E-01  8.50000000E-01  8.50000000E-01
  8.00000000E-01  8.50000000E-01  8.50000000E-01  8.50000000E-01  8.00000000E-01
  8.50000000E-01  8.50000000E-01  8.50000000E-01  8.00000000E-01  8.50000000E-01
  8.50000000E-01  8.50000000E-01  8.00000000E-01  8.50000000E-01  8.50000000E-01
  8.50000000E-01  8.00000000E-01  8.50000000E-01  8.50000000E-01  8.50000000E-01
  8.00000000E-01  8.50000000E-01  8.50000000E-01  8.50000000E-01  8.00000000E-01
  8.50000000E-01  8.50000000E-01  8.50000000E-01  8.00000000E-01  8.50000000E-01
  8.50000000E-01  8.50000000E-01  8.00000000E-01  8.50000000E-01  8.50000000E-01
  8.50000000E-01  8.00000000E-01  8.50000000E-01  8.50000000E-01  8.50000000E-01
  8.00000000E-01  8.50000000E-01  8.50000000E-01  8.50000000E-01  8.00000000E-01
  8.50000000E-01  8.50000000E-01  8.50000000E-01  8.00000000E-01  8.50000000E-01
  8.50000000E-01  8.50000000E-01  8.00000000E-01  8.50000000E-01  8.50000000E-01
  8.50000000E-01  8.00000000E-01  8.50000000E-01  8.50000000E-01  8.50000000E-01
  8.00000000E-01  8.50000000E-01  8.50000000E-01  8.50000000E-01  8.00000000E-01
  8.50000000E-01  8.50000000E-01  8.50000000E-01  8.00000000E-01  8.50000000E-01
  8.50000000E-01  8.50000000E-01  8.00000000E-01  8.50000000E-01  8.50000000E-01
  8.50000000E-01  8.00000000E-01  8.50000000E-01  8.50000000E-01  8.50000000E-01
  8.00000000E-01  8.50000000E-01  8.50000000E-01  8.50000000E-01  8.00000000E-01
  8.50000000E-01  8.50000000E-01  8.50000000E-01  8.00000000E-01  8.50000000E-01
  8.50000000E-01  8.50000000E-01  8.00000000E-01  8.50000000E-01  8.50000000E-01
  8.50000000E-01  8.00000000E-01  8.50000000E-01  8.50000000E-01  8.50000000E-01
  8.00000000E-01  8.50000000E-01  8.50000000E-01  8.50000000E-01  8.00000000E-01
  8.50000000E-01  8.50000000E-01  8.50000000E-01  8.00000000E-01  8.50000000E-01
  8.50000000E-01  8.50000000E-01  8.00000000E-01  8.50000000E-01  8.50000000E-01
  8.50000000E-01  8.00000000E-01  8.50000000E-01  8.50000000E-01  8.50000000E-01
  8.00000000E-01  8.50000000E-01  8.50000000E-01  8.50000000E-01  8.00000000E-01
  8.50000000E-01  8.50000000E-01  8.50000000E-01  8.00000000E-01  8.50000000E-01
  8.50000000E-01  8.50000000E-01  8.00000000E-01  8.50000000E-01  8.50000000E-01
  8.50000000E-01  8.00000000E-01  8.50000000E-01  8.50000000E-01  8.50000000E-01
  8.00000000E-01  8.50000000E-01  8.50000000E-01  8.50000000E-01  8.00000000E-01
  8.50000000E-01  8.50000000E-01  8.50000000E-01  8.00000000E-01  8.50000000E-01
  8.50000000E-01  8.50000000E-01  8.00000000E-01  8.50000000E-01  8.50000000E-01
  8.50000000E-01  8.00000000E-01  8.50000000E-01  8.50000000E-01  8.50000000E-01
  8.00000000E-01  8.50000000E-01  8.50000000E-01  8.50000000E-01  8.00000000E-01
  8.50000000E-01  8.50000000E-01  8.50000000E-01  8.00000000E-01  8.50000000E-01
  8.50000000E-01  8.50000000E-01  8.00000000E-01  8.50000000E-01  8.50000000E-01
  8.50000000E-01  8.00000000E-01  8.50000000E-01  8.50000000E-01  8.50000000E-01
  8.00000000E-01  8.50000000E-01  8.50000000E-01  8.50000000E-01  8.00000000E-01
  8.50000000E-01  8.50000000E-01  8.50000000E-01  8.00000000E-01  8.50000000E-01
  8.50000000E-01  8.50000000E-01  8.00000000E-01  8.50000000E-01  8.50000000E-01
  8.50000000E-01  8.00000000E-01  8.50000000E-01  8.50000000E-01  8.50000000E-01
  8.00000000E-01  8.50000000E-01  8.50000000E-01  8.50000000E-01  8.00000000E-01
  8.50000000E-01  8.50000000E-01  8.50000000E-01  8.00000000E-01  8.50000000E-01
  8.50000000E-01  8.50000000E-01  8.00000000E-01  8.50000000E-01  8.50000000E-01
  8.50000000E-01  8.00000000E-01  8.50000000E-01  8.50000000E-01  8.50000000E-01
  8.00000000E-01  8.50000000E-01  8.50000000E-01  8.50000000E-01  8.00000000E-01
  8.50000000E-01  8.50000000E-01  8.50000000E-01  8.00000000E-01  8.50000000E-01
  8.50000000E-01  8.50000000E-01  8.00000000E-01  8.50000000E-01  8.50000000E-01
  8.50000000E-01  8.00000000E-01  8.50000000E-01  8.50000000E-01  8.50000000E-01
  8.00000000E-01  8.50000000E-01  8.50000000E-01  8.50000000E-01  8.00000000E-01
  8.50000000E-01  8.50000000E-01  8.50000000E-01  8.00000000E-01  8.50000000E-01
  8.50000000E-01  8.50000000E-01  8.00000000E-01  8.50000000E-01  8.50000000E-01
  8.50000000E-01  8.00000000E-01  8.50000000E-01  8.50000000E-01  8.50000000E-01
  8.00000000E-01  8.50000000E-01  8.50000000E-01  8.50000000E-01  8.00000000E-01
  8.50000000E-01  8.50000000E-01  8.50000000E-01  8.00000000E-01  8.50000000E-01
  8.50000000E-01  8.50000000E-01  8.00000000E-01  8.50000000E-01  8.50000000E-01
  8.50000000E-01  8.00000000E-01  8.50000000E-01  8.50000000E-01  8.50000000E-01
  8.00000000E-01  8.50000000E-01  8.50000000E-01  8.50000000E-01  8.00000000E-01
  8.50000000E-01  8.50000000E-01  8.50000000E-01  8.00000000E-01  8.50000000E-01
  8.50000000E-01  8.50000000E-01  8.00000000E-01  8.50000000E-01  8.50000000E-01
  8.50000000E-01  8.00000000E-01  8.50000000E-01  8.50000000E-01  8.50000000E-01
  8.00000000E-01  8.50000000E-01  8.50000000E-01  8.50000000E-01  8.00000000E-01
  8.50000000E-01  8.50000000E-01  8.50000000E-01  8.00000000E-01  8.50000000E-01
  8.50000000E-01  8.50000000E-01  8.00000000E-01  8.50000000E-01  8.50000000E-01
  8.50000000E-01  8.00000000E-01  8.50000000E-01  8.50000000E-01  8.50000000E-01
  8.00000000E-01  8.50000000E-01  8.50000000E-01  8.50000000E-01  8.00000000E-01
  8.50000000E-01  8.50000000E-01  8.50000000E-01  8.00000000E-01  8.50000000E-01
  8.50000000E-01  8.50000000E-01  8.00000000E-01  8.50000000E-01  8.50000000E-01
  8.50000000E-01  8.00000000E-01  8.50000000E-01  8.50000000E-01  8.50000000E-01
  8.00000000E-01  8.50000000E-01  8.50000000E-01  8.50000000E-01  8.00000000E-01
  8.50000000E-01  8.50000000E-01  8.50000000E-01  8.00000000E-01  8.50000000E-01
  8.50000000E-01  8.50000000E-01  8.00000000E-01  8.50000000E-01  8.50000000E-01
  8.50000000E-01  8.00000000E-01  8.50000000E-01  8.50000000E-01  8.50000000E-01
  8.00000000E-01  8.50000000E-01  8.50000000E-01  8.50000000E-01  8.00000000E-01
  8.50000000E-01  8.50000000E-01  8.50000000E-01  8.00000000E-01  8.50000000E-01
  8.50000000E-01  8.50000000E-01  8.00000000E-01  8.50000000E-01  8.50000000E-01
  8.50000000E-01  8.00000000E-01  8.50000000E-01  8.50000000E-01  8.50000000E-01
  8.00000000E-01  8.50000000E-01  8.50000000E-01  8.50000000E-01  8.00000000E-01
  8.50000000E-01  8.50000000E-01  8.50000000E-01  8.00000000E-01  8.50000000E-01
  8.50000000E-01  8.50000000E-01  8.00000000E-01  8.50000000E-01  8.50000000E-01
  8.50000000E-01  8.00000000E-01  8.50000000E-01  8.50000000E-01  8.50000000E-01
  8.00000000E-01  8.50000000E-01  8.50000000E-01  8.50000000E-01  8.00000000E-01
  8.50000000E-01  8.50000000E-01  8.50000000E-01  8.00000000E-01  8.50000000E-01
  8.50000000E-01  8.50000000E-01  8.00000000E-01  8.50000000E-01  8.50000000E-01
  8.50000000E-01  8.00000000E-01  8.50000000E-01  8.50000000E-01  8.50000000E-01
  8.00000000E-01  8.50000000E-01  8.50000000E-01  8.50000000E-01  8.00000000E-01
  8.50000000E-01  8.50000000E-01  8.50000000E-01  8.00000000E-01  8.50000000E-01
  8.50000000E-01  8.50000000E-01  8.00000000E-01  8.50000000E-01  8.50000000E-01
  8.50000000E-01  8.00000000E-01  8.50000000E-01  8.50000000E-01  8.50000000E-01
  8.00000000E-01  8.50000000E-01  8.50000000E-01  8.50000000E-01  8.00000000E-01
  8.50000000E-01  8.50000000E-01  8.50000000E-01  8.00000000E-01  8.50000000E-01
  8.50000000E-01  8.50000000E-01  8.00000000E-01  8.50000000E-01  8.50000000E-01
  8.50000000E-01  8.00000000E-01  8.50000000E-01  8.50000000E-01  8.50000000E-01
  8.00000000E-01  8.50000000E-01  8.50000000E-01  8.50000000E-01  8.00000000E-01
  8.50000000E-01  8.50000000E-01  8.50000000E-01  8.00000000E-01  8.50000000E-01
  8.50000000E-01  8.50000000E-01  8.00000000E-01  8.50000000E-01  8.50000000E-01
  8.50000000E-01  8.00000000E-01  8.50000000E-01  8.50000000E-01  8.50000000E-01
  8.00000000E-01  8.50000000E-01  8.50000000E-01  8.50000000E-01  8.00000000E-01
  8.50000000E-01  8.50000000E-01  8.50000000E-01  8.00000000E-01  8.50000000E-01
  8.50000000E-01  8.50000000E-01  8.00000000E-01  8.50000000E-01  8.50000000E-01
  8.50000000E-01  8.00000000E-01  8.50000000E-01  8.50000000E-01  8.50000000E-01
  8.00000000E-01  8.50000000E-01  8.50000000E-01  8.50000000E-01  8.00000000E-01
  8.50000000E-01  8.50000000E-01  8.50000000E-01  8.00000000E-01  8.50000000E-01
  8.50000000E-01  8.50000000E-01  8.00000000E-01  8.50000000E-01  8.50000000E-01
  8.50000000E-01  8.00000000E-01  8.50000000E-01  8.50000000E-01  8.50000000E-01
  8.00000000E-01  8.50000000E-01  8.50000000E-01  8.50000000E-01  8.00000000E-01
  8.50000000E-01  8.50000000E-01  8.50000000E-01  8.00000000E-01  8.50000000E-01
  8.50000000E-01  8.50000000E-01  8.00000000E-01  8.50000000E-01  8.50000000E-01
  8.50000000E-01  8.00000000E-01  8.50000000E-01  8.50000000E-01  8.50000000E-01
  8.00000000E-01  8.50000000E-01  8.50000000E-01  8.50000000E-01  8.00000000E-01
  8.50000000E-01  8.50000000E-01  8.50000000E-01  8.00000000E-01  8.50000000E-01
  8.50000000E-01  8.50000000E-01  8.00000000E-01  8.50000000E-01  8.50000000E-01
  8.50000000E-01  8.00000000E-01  8.50000000E-01  8.50000000E-01  8.50000000E-01
  8.00000000E-01  8.50000000E-01  8.50000000E-01  8.50000000E-01  8.00000000E-01
  8.50000000E-01  8.50000000E-01  8.50000000E-01  8.00000000E-01  8.50000000E-01
  8.50000000E-01  8.50000000E-01  8.00000000E-01  8.50000000E-01  8.50000000E-01
  8.50000000E-01  8.00000000E-01  8.50000000E-01  8.50000000E-01  8.50000000E-01
  8.00000000E-01  8.50000000E-01  8.50000000E-01  8.50000000E-01  8.00000000E-01
  8.50000000E-01  8.50000000E-01  8.50000000E-01  8.00000000E-01  8.50000000E-01
  8.50000000E-01  8.50000000E-01  8.00000000E-01  8.50000000E-01  8.50000000E-01
  8.50000000E-01  8.00000000E-01  8.50000000E-01  8.50000000E-01  8.50000000E-01
  8.00000000E-01  8.50000000E-01  8.50000000E-01  8.50000000E-01  8.00000000E-01
  8.50000000E-01  8.50000000E-01  8.50000000E-01  8.00000000E-01  8.50000000E-01
  8.50000000E-01  8.50000000E-01  8.00000000E-01  8.50000000E-01  8.50000000E-01
  8.50000000E-01  8.00000000E-01  8.50000000E-01  8.50000000E-01  8.50000000E-01
  8.00000000E-01  8.50000000E-01  8.50000000E-01  8.50000000E-01  8.00000000E-01
  8.50000000E-01  8.50000000E-01  8.50000000E-01  8.00000000E-01  8.50000000E-01
  8.50000000E-01  8.50000000E-01  8.00000000E-01  8.50000000E-01  8.50000000E-01
  8.50000000E-01  8.00000000E-01  8.50000000E-01  8.50000000E-01  8.50000000E-01
  8.00000000E-01  8.50000000E-01  8.50000000E-01  8.50000000E-01  8.00000000E-01
  8.50000000E-01  8.50000000E-01  8.50000000E-01  8.00000000E-01  8.50000000E-01
  8.50000000E-01  8.50000000E-01  8.00000000E-01  8.50000000E-01  8.50000000E-01
  8.50000000E-01  8.00000000E-01  8.50000000E-01  8.50000000E-01  8.50000000E-01
  8.00000000E-01  8.50000000E-01  8.50000000E-01  8.50000000E-01  8.00000000E-01
  8.50000000E-01  8.50000000E-01  8.50000000E-01  8.00000000E-01  8.50000000E-01
  8.50000000E-01  8.50000000E-01  8.00000000E-01  8.50000000E-01  8.50000000E-01
  8.50000000E-01  8.00000000E-01  8.50000000E-01  8.50000000E-01  8.50000000E-01
  8.00000000E-01  8.50000000E-01  8.50000000E-01  8.50000000E-01  8.00000000E-01
  8.50000000E-01  8.50000000E-01  8.50000000E-01  8.00000000E-01  8.50000000E-01
  8.50000000E-01  8.50000000E-01  8.00000000E-01  8.50000000E-01  8.50000000E-01
  8.50000000E-01  8.00000000E-01  8.50000000E-01  8.50000000E-01  8.50000000E-01
  8.00000000E-01  8.50000000E-01  8.50000000E-01  8.50000000E-01  8.00000000E-01
  8.50000000E-01  8.50000000E-01  8.50000000E-01  8.00000000E-01  8.50000000E-01
  8.50000000E-01  8.50000000E-01  8.00000000E-01  8.50000000E-01  8.50000000E-01
  8.50000000E-01  8.00000000E-01  8.50000000E-01  8.50000000E-01  8.50000000E-01
  8.00000000E-01  8.50000000E-01  8.50000000E-01  8.50000000E-01  8.00000000E-01
  8.50000000E-01  8.50000000E-01  8.50000000E-01  8.00000000E-01  8.50000000E-01
  8.50000000E-01  8.50000000E-01  8.00000000E-01  8.50000000E-01  8.50000000E-01
  8.50000000E-01  8.00000000E-01  8.50000000E-01  8.50000000E-01  8.50000000E-01
  8.00000000E-01  8.50000000E-01  8.50000000E-01  8.50000000E-01  8.00000000E-01
  8.50000000E-01  8.50000000E-01  8.50000000E-01  8.00000000E-01  8.50000000E-01
  8.50000000E-01  8.50000000E-01  8.00000000E-01  8.50000000E-01  8.50000000E-01
  8.50000000E-01  8.00000000E-01  8.50000000E-01  8.50000000E-01  8.50000000E-01
  8.00000000E-01  8.50000000E-01  8.50000000E-01  8.50000000E-01  8.00000000E-01
  8.50000000E-01  8.50000000E-01  8.50000000E-01  8.00000000E-01  8.50000000E-01
  8.50000000E-01  8.50000000E-01  8.00000000E-01  8.50000000E-01  8.50000000E-01
  8.50000000E-01  8.00000000E-01  8.50000000E-01  8.50000000E-01  8.50000000E-01
  8.00000000E-01  8.50000000E-01  8.50000000E-01  8.50000000E-01  8.00000000E-01
  8.50000000E-01  8.50000000E-01  8.50000000E-01  8.00000000E-01  8.50000000E-01
  8.50000000E-01  8.50000000E-01  8.00000000E-01  8.50000000E-01  8.50000000E-01
  8.50000000E-01  8.00000000E-01  8.50000000E-01  8.50000000E-01  8.50000000E-01
  8.00000000E-01  8.50000000E-01  8.50000000E-01  8.50000000E-01  8.00000000E-01
  8.50000000E-01  8.50000000E-01  8.50000000E-01  8.00000000E-01  8.50000000E-01
  8.50000000E-01  8.50000000E-01  8.00000000E-01  8.50000000E-01  8.50000000E-01
  8.50000000E-01  8.00000000E-01  8.50000000E-01  8.50000000E-01  8.50000000E-01
  8.00000000E-01  8.50000000E-01  8.50000000E-01  8.50000000E-01  8.00000000E-01
  8.50000000E-01  8.50000000E-01  8.50000000E-01  8.00000000E-01  8.50000000E-01
  8.50000000E-01  8.50000000E-01  8.00000000E-01  8.50000000E-01  8.50000000E-01
  8.50000000E-01  8.00000000E-01  8.50000000E-01  8.50000000E-01  8.50000000E-01
  8.00000000E-01  8.50000000E-01  8.50000000E-01  8.50000000E-01  8.00000000E-01
  8.50000000E-01  8.50000000E-01  8.50000000E-01  8.00000000E-01  8.50000000E-01
  8.50000000E-01  8.50000000E-01  8.00000000E-01  8.50000000E-01  8.50000000E-01
  8.50000000E-01  8.00000000E-01  8.50000000E-01  8.50000000E-01  8.50000000E-01
  8.00000000E-01  8.50000000E-01  8.50000000E-01  8.50000000E-01  8.00000000E-01
  8.50000000E-01  8.50000000E-01  8.50000000E-01  8.00000000E-01  8.50000000E-01
  8.50000000E-01  8.50000000E-01  8.00000000E-01  8.50000000E-01  8.50000000E-01
  8.50000000E-01  8.00000000E-01  8.50000000E-01  8.50000000E-01  8.50000000E-01
  8.00000000E-01  8.50000000E-01  8.50000000E-01  8.50000000E-01  8.00000000E-01
  8.50000000E-01  8.50000000E-01  8.50000000E-01  8.00000000E-01  8.50000000E-01
  8.50000000E-01  8.50000000E-01  8.00000000E-01  8.50000000E-01  8.50000000E-01
  8.50000000E-01  8.00000000E-01  8.50000000E-01  8.50000000E-01  8.50000000E-01
  8.00000000E-01  8.50000000E-01  8.50000000E-01  8.50000000E-01  8.00000000E-01
  8.50000000E-01  8.50000000E-01  8.50000000E-01  8.00000000E-01  8.50000000E-01
  8.50000000E-01  8.50000000E-01  8.00000000E-01  8.50000000E-01  8.50000000E-01
  8.50000000E-01  8.00000000E-01  8.50000000E-01  8.50000000E-01  8.50000000E-01
  8.00000000E-01  8.50000000E-01  8.50000000E-01  8.50000000E-01  8.00000000E-01
  8.50000000E-01  8.50000000E-01  8.50000000E-01  8.00000000E-01  8.50000000E-01
  8.50000000E-01  8.50000000E-01  8.00000000E-01  8.50000000E-01  8.50000000E-01
  8.50000000E-01  8.00000000E-01  8.50000000E-01  8.50000000E-01  8.50000000E-01
  8.00000000E-01  8.50000000E-01  8.50000000E-01  8.50000000E-01  8.00000000E-01
  8.50000000E-01  8.50000000E-01  8.50000000E-01  8.00000000E-01  8.50000000E-01
  8.50000000E-01  8.50000000E-01  8.00000000E-01  8.50000000E-01  8.50000000E-01
  8.50000000E-01  8.00000000E-01  8.50000000E-01  8.50000000E-01  8.50000000E-01
  8.00000000E-01  8.50000000E-01  8.50000000E-01  8.50000000E-01  8.00000000E-01
  8.50000000E-01  8.50000000E-01  8.50000000E-01  8.00000000E-01  8.50000000E-01
  8.50000000E-01  8.50000000E-01  8.00000000E-01  8.50000000E-01  8.50000000E-01
  8.50000000E-01  8.00000000E-01  8.50000000E-01  8.50000000E-01  8.50000000E-01
  8.00000000E-01  8.50000000E-01  8.50000000E-01  8.50000000E-01  8.00000000E-01
  8.50000000E-01  8.50000000E-01  8.50000000E-01  8.00000000E-01  8.50000000E-01
  8.50000000E-01  8.50000000E-01  8.00000000E-01  8.50000000E-01  8.50000000E-01
  8.50000000E-01  8.00000000E-01  8.50000000E-01  8.50000000E-01  8.50000000E-01
  8.00000000E-01  8.50000000E-01  8.50000000E-01  8.50000000E-01  8.00000000E-01
  8.50000000E-01  8.50000000E-01  8.50000000E-01  8.00000000E-01  8.50000000E-01
  8.50000000E-01  8.50000000E-01  8.00000000E-01  8.50000000E-01  8.50000000E-01
  8.50000000E-01  8.00000000E-01  8.50000000E-01  8.50000000E-01  8.50000000E-01
  8.00000000E-01  8.50000000E-01  8.50000000E-01  8.50000000E-01  8.00000000E-01
  8.50000000E-01  8.50000000E-01  8.50000000E-01  8.00000000E-01  8.50000000E-01
  8.50000000E-01  8.50000000E-01  8.00000000E-01  8.50000000E-01  8.50000000E-01
  8.50000000E-01  8.00000000E-01  8.50000000E-01  8.50000000E-01  8.50000000E-01
  8.00000000E-01  8.50000000E-01  8.50000000E-01  8.50000000E-01  8.00000000E-01
  8.50000000E-01  8.50000000E-01  8.50000000E-01  8.00000000E-01  8.50000000E-01
  8.50000000E-01  8.50000000E-01  8.00000000E-01  8.50000000E-01  8.50000000E-01
  8.50000000E-01  8.00000000E-01  8.50000000E-01  8.50000000E-01  8.50000000E-01
  8.00000000E-01  8.50000000E-01  8.50000000E-01  8.50000000E-01  8.00000000E-01
  8.50000000E-01  8.50000000E-01  8.50000000E-01  8.00000000E-01  8.50000000E-01
  8.50000000E-01  8.50000000E-01  8.00000000E-01  8.50000000E-01  8.50000000E-01
  8.50000000E-01  8.00000000E-01  8.50000000E-01  8.50000000E-01  8.50000000E-01
  8.00000000E-01  8.50000000E-01  8.50000000E-01  8.50000000E-01  8.00000000E-01
  8.50000000E-01  8.50000000E-01  8.50000000E-01  8.00000000E-01  8.50000000E-01
  8.50000000E-01  8.50000000E-01  8.00000000E-01  8.50000000E-01  8.50000000E-01
  8.50000000E-01  8.00000000E-01  8.50000000E-01  8.50000000E-01  8.50000000E-01
  8.00000000E-01  8.50000000E-01  8.50000000E-01  8.50000000E-01  8.00000000E-01
  8.50000000E-01  8.50000000E-01  8.50000000E-01  8.00000000E-01  8.50000000E-01
  8.50000000E-01  8.50000000E-01  8.00000000E-01  8.50000000E-01  8.50000000E-01
  8.50000000E-01  8.00000000E-01  8.50000000E-01  8.50000000E-01  8.50000000E-01
  8.00000000E-01  8.50000000E-01  8.50000000E-01  8.50000000E-01  8.00000000E-01
  8.50000000E-01  8.50000000E-01  8.50000000E-01  8.00000000E-01  8.50000000E-01
  8.50000000E-01  8.50000000E-01  8.00000000E-01  8.50000000E-01  8.50000000E-01
  8.50000000E-01  8.00000000E-01  8.50000000E-01  8.50000000E-01  8.50000000E-01
  8.00000000E-01  8.50000000E-01  8.50000000E-01  8.50000000E-01  8.00000000E-01
  8.50000000E-01  8.50000000E-01  8.50000000E-01  8.00000000E-01  8.50000000E-01
  8.50000000E-01  8.50000000E-01  8.00000000E-01  8.50000000E-01  8.50000000E-01
  8.50000000E-01  8.00000000E-01  8.50000000E-01  8.50000000E-01  8.50000000E-01
  8.00000000E-01  8.50000000E-01  8.50000000E-01  8.50000000E-01  8.00000000E-01
  8.50000000E-01  8.50000000E-01  8.50000000E-01  8.00000000E-01  8.50000000E-01
  8.50000000E-01  8.50000000E-01  8.00000000E-01  8.50000000E-01  8.50000000E-01
  8.50000000E-01  8.00000000E-01  8.50000000E-01  8.50000000E-01  8.50000000E-01
  8.00000000E-01  8.50000000E-01  8.50000000E-01  8.50000000E-01  8.00000000E-01
  8.50000000E-01  8.50000000E-01  8.50000000E-01  8.00000000E-01  8.50000000E-01
  8.50000000E-01  8.50000000E-01  8.00000000E-01  8.50000000E-01  8.50000000E-01
  8.50000000E-01  8.00000000E-01  8.50000000E-01  8.50000000E-01  8.50000000E-01
  8.00000000E-01  8.50000000E-01  8.50000000E-01  8.50000000E-01  8.00000000E-01
  8.50000000E-01  8.50000000E-01  8.50000000E-01  8.00000000E-01  8.50000000E-01
  8.50000000E-01  8.50000000E-01  8.00000000E-01  8.50000000E-01  8.50000000E-01
  8.50000000E-01  8.00000000E-01  8.50000000E-01  8.50000000E-01  8.50000000E-01
  8.00000000E-01  8.50000000E-01  8.50000000E-01  8.50000000E-01  8.00000000E-01
  8.50000000E-01  8.50000000E-01  8.50000000E-01  8.00000000E-01  8.50000000E-01
  8.50000000E-01  8.50000000E-01  8.00000000E-01  8.50000000E-01  8.50000000E-01
  8.50000000E-01  8.00000000E-01  8.50000000E-01  8.50000000E-01  8.50000000E-01
  8.00000000E-01  8.50000000E-01  8.50000000E-01  8.50000000E-01  8.00000000E-01
  8.50000000E-01  8.50000000E-01  8.50000000E-01  8.00000000E-01  8.50000000E-01
  8.50000000E-01  8.50000000E-01  8.00000000E-01  8.50000000E-01  8.50000000E-01
  8.50000000E-01  8.00000000E-01  8.50000000E-01  8.50000000E-01  8.50000000E-01
  8.00000000E-01  8.50000000E-01  8.50000000E-01  8.50000000E-01  8.00000000E-01
  8.50000000E-01  8.50000000E-01  8.50000000E-01  8.00000000E-01  8.50000000E-01
  8.50000000E-01  8.50000000E-01  8.00000000E-01  8.50000000E-01  8.50000000E-01
  8.50000000E-01  8.00000000E-01  8.50000000E-01  8.50000000E-01  8.50000000E-01
  8.00000000E-01  8.50000000E-01  8.50000000E-01  8.50000000E-01  8.00000000E-01
  8.50000000E-01  8.50000000E-01  8.50000000E-01  8.00000000E-01  8.50000000E-01
  8.50000000E-01  8.50000000E-01  8.00000000E-01  8.50000000E-01  8.50000000E-01
  8.50000000E-01  8.00000000E-01  8.50000000E-01  8.50000000E-01  8.50000000E-01
  8.00000000E-01  8.50000000E-01  8.50000000E-01  8.50000000E-01  8.00000000E-01
  8.50000000E-01  8.50000000E-01  8.50000000E-01  8.00000000E-01  8.50000000E-01
  8.50000000E-01  8.50000000E-01  8.00000000E-01  8.50000000E-01  8.50000000E-01
  8.50000000E-01  8.00000000E-01  8.50000000E-01  8.50000000E-01  8.50000000E-01
  8.00000000E-01  8.50000000E-01  8.50000000E-01  8.50000000E-01  8.00000000E-01
  8.50000000E-01  8.50000000E-01  8.50000000E-01  8.00000000E-01  8.50000000E-01
  8.50000000E-01  8.50000000E-01  8.00000000E-01  8.50000000E-01  8.50000000E-01
  8.50000000E-01  8.00000000E-01  8.50000000E-01  8.50000000E-01  8.50000000E-01
  8.00000000E-01  8.50000000E-01  8.50000000E-01  8.50000000E-01  8.00000000E-01
  8.50000000E-01  8.50000000E-01  8.50000000E-01  8.00000000E-01  8.50000000E-01
  8.50000000E-01  8.50000000E-01  8.00000000E-01  8.50000000E-01  8.50000000E-01
  8.50000000E-01  8.00000000E-01  8.50000000E-01  8.50000000E-01  8.50000000E-01
  8.00000000E-01  8.50000000E-01  8.50000000E-01  8.50000000E-01  8.00000000E-01
  8.50000000E-01  8.50000000E-01  8.50000000E-01  8.00000000E-01  8.50000000E-01
  8.50000000E-01  8.50000000E-01  8.00000000E-01  8.50000000E-01  8.50000000E-01
  8.50000000E-01  8.00000000E-01  8.50000000E-01  8.50000000E-01  8.50000000E-01
  8.00000000E-01  8.50000000E-01  8.50000000E-01  8.50000000E-01  8.00000000E-01
  8.50000000E-01  8.50000000E-01  8.50000000E-01  8.00000000E-01  8.50000000E-01
  8.50000000E-01  8.50000000E-01  8.00000000E-01  8.50000000E-01  8.50000000E-01
  8.50000000E-01  8.00000000E-01  8.50000000E-01  8.50000000E-01  8.50000000E-01
  8.00000000E-01  8.50000000E-01  8.50000000E-01  8.50000000E-01  8.00000000E-01
  8.50000000E-01  8.50000000E-01  8.50000000E-01  8.00000000E-01  8.50000000E-01
  8.50000000E-01  8.50000000E-01  8.00000000E-01  8.50000000E-01  8.50000000E-01
  8.50000000E-01  8.00000000E-01  8.50000000E-01  8.50000000E-01  8.50000000E-01
  8.00000000E-01  8.50000000E-01  8.50000000E-01  8.50000000E-01  8.00000000E-01
  8.50000000E-01  8.50000000E-01  8.50000000E-01  8.00000000E-01  8.50000000E-01
  8.50000000E-01  8.50000000E-01  8.00000000E-01  8.50000000E-01  8.50000000E-01
  8.50000000E-01  8.00000000E-01  8.50000000E-01  8.50000000E-01  8.50000000E-01
  8.00000000E-01  8.50000000E-01  8.50000000E-01  8.50000000E-01  8.00000000E-01
  8.50000000E-01  8.50000000E-01  8.50000000E-01  8.00000000E-01  8.50000000E-01
  8.50000000E-01  8.50000000E-01  8.00000000E-01  8.50000000E-01  8.50000000E-01
  8.50000000E-01  8.00000000E-01  8.50000000E-01  8.50000000E-01  8.50000000E-01
  8.00000000E-01  8.50000000E-01  8.50000000E-01  8.50000000E-01  8.00000000E-01
  8.50000000E-01  8.50000000E-01  8.50000000E-01  8.00000000E-01  8.50000000E-01
  8.50000000E-01  8.50000000E-01  8.00000000E-01  8.50000000E-01  8.50000000E-01
  8.50000000E-01  8.00000000E-01  8.50000000E-01  8.50000000E-01  8.50000000E-01
  8.00000000E-01  8.50000000E-01  8.50000000E-01  8.50000000E-01  8.00000000E-01
  8.50000000E-01  8.50000000E-01  8.50000000E-01  8.00000000E-01  8.50000000E-01
  8.50000000E-01  8.50000000E-01  8.00000000E-01  8.50000000E-01  8.50000000E-01
  8.50000000E-01  8.00000000E-01  8.50000000E-01  8.50000000E-01  8.50000000E-01
  8.00000000E-01  8.50000000E-01  8.50000000E-01  8.50000000E-01  8.00000000E-01
  8.50000000E-01  8.50000000E-01  8.50000000E-01  8.00000000E-01  8.50000000E-01
  8.50000000E-01  8.50000000E-01  8.00000000E-01  8.50000000E-01  8.50000000E-01
  8.50000000E-01  8.00000000E-01  8.50000000E-01  8.50000000E-01  8.50000000E-01
  8.00000000E-01  8.50000000E-01  8.50000000E-01  8.50000000E-01  8.00000000E-01
  8.50000000E-01  8.50000000E-01  8.50000000E-01  8.00000000E-01  8.50000000E-01
  8.50000000E-01  8.50000000E-01  8.00000000E-01  8.50000000E-01  8.50000000E-01
  8.50000000E-01  8.00000000E-01  8.50000000E-01  8.50000000E-01  8.50000000E-01
  8.00000000E-01  8.50000000E-01  8.50000000E-01  8.50000000E-01  8.00000000E-01
  8.50000000E-01  8.50000000E-01  8.50000000E-01  8.00000000E-01  8.50000000E-01
  8.50000000E-01  8.50000000E-01  8.00000000E-01  8.50000000E-01  8.50000000E-01
  8.50000000E-01  8.00000000E-01  8.50000000E-01  8.50000000E-01  8.50000000E-01
  8.00000000E-01  8.50000000E-01  8.50000000E-01  8.50000000E-01  8.00000000E-01
  8.50000000E-01  8.50000000E-01  8.50000000E-01  8.00000000E-01  8.50000000E-01
  8.50000000E-01  8.50000000E-01  8.00000000E-01  8.50000000E-01  8.50000000E-01
  8.50000000E-01  8.00000000E-01  8.50000000E-01  8.50000000E-01  8.50000000E-01
  8.00000000E-01  8.50000000E-01  8.50000000E-01  8.50000000E-01  8.00000000E-01
  8.50000000E-01  8.50000000E-01  8.50000000E-01  8.00000000E-01  8.50000000E-01
  8.50000000E-01  8.50000000E-01  8.00000000E-01  8.50000000E-01  8.50000000E-01
  8.50000000E-01  8.00000000E-01  8.50000000E-01  8.50000000E-01  8.50000000E-01
  8.00000000E-01  8.50000000E-01  8.50000000E-01  8.50000000E-01  8.00000000E-01
  8.50000000E-01  8.50000000E-01  8.50000000E-01  8.00000000E-01  8.50000000E-01
  8.50000000E-01  8.50000000E-01  8.00000000E-01  8.50000000E-01  8.50000000E-01
  8.50000000E-01  8.00000000E-01  8.50000000E-01  8.50000000E-01  8.50000000E-01
  8.00000000E-01  8.50000000E-01  8.50000000E-01  8.50000000E-01  8.00000000E-01
  8.50000000E-01  8.50000000E-01  8.50000000E-01  8.00000000E-01  8.50000000E-01
  8.50000000E-01  8.50000000E-01  8.00000000E-01  8.50000000E-01  8.50000000E-01
  8.50000000E-01  8.00000000E-01  8.50000000E-01  8.50000000E-01  8.50000000E-01
  8.00000000E-01  8.50000000E-01  8.50000000E-01  8.50000000E-01  8.00000000E-01
  8.50000000E-01  8.50000000E-01  8.50000000E-01  8.00000000E-01  8.50000000E-01
  8.50000000E-01  8.50000000E-01  8.00000000E-01  8.50000000E-01  8.50000000E-01
  8.50000000E-01  8.00000000E-01  8.50000000E-01  8.50000000E-01  8.50000000E-01
  8.00000000E-01  8.50000000E-01  8.50000000E-01  8.50000000E-01  8.00000000E-01
  8.50000000E-01  8.50000000E-01  8.50000000E-01  8.00000000E-01  8.50000000E-01
  8.50000000E-01  8.50000000E-01  8.00000000E-01  8.50000000E-01  8.50000000E-01
  8.50000000E-01  8.00000000E-01  8.50000000E-01  8.50000000E-01  8.50000000E-01
  8.00000000E-01  8.50000000E-01  8.50000000E-01  8.50000000E-01  8.00000000E-01
  8.50000000E-01  8.50000000E-01  8.50000000E-01  8.00000000E-01  8.50000000E-01
  8.50000000E-01  8.50000000E-01  8.00000000E-01  8.50000000E-01  8.50000000E-01
  8.50000000E-01  8.00000000E-01  8.50000000E-01  8.50000000E-01  8.50000000E-01
  8.00000000E-01  8.50000000E-01  8.50000000E-01  8.50000000E-01  8.00000000E-01
  8.50000000E-01  8.50000000E-01  8.50000000E-01  8.00000000E-01  8.50000000E-01
  8.50000000E-01  8.50000000E-01  8.00000000E-01  8.50000000E-01  8.50000000E-01
  8.50000000E-01  8.00000000E-01  8.50000000E-01  8.50000000E-01  8.50000000E-01
  8.00000000E-01  8.50000000E-01  8.50000000E-01  8.50000000E-01  8.00000000E-01
  8.50000000E-01  8.50000000E-01  8.50000000E-01  8.00000000E-01  8.50000000E-01
  8.50000000E-01  8.50000000E-01  8.00000000E-01  8.50000000E-01  8.50000000E-01
  8.50000000E-01  8.00000000E-01  8.50000000E-01  8.50000000E-01  8.50000000E-01
  8.00000000E-01  8.50000000E-01  8.50000000E-01  8.50000000E-01  8.00000000E-01
  8.50000000E-01  8.50000000E-01  8.50000000E-01  8.00000000E-01  8.50000000E-01
  8.50000000E-01  8.50000000E-01  8.00000000E-01  8.50000000E-01  8.50000000E-01
  8.50000000E-01  8.00000000E-01  8.50000000E-01  8.50000000E-01  8.50000000E-01
  8.00000000E-01  8.50000000E-01  8.50000000E-01  8.50000000E-01  8.00000000E-01
  8.50000000E-01  8.50000000E-01  8.50000000E-01  8.00000000E-01  8.50000000E-01
  8.50000000E-01  8.50000000E-01  8.00000000E-01  8.50000000E-01  8.50000000E-01
  8.50000000E-01  8.00000000E-01  8.50000000E-01  8.50000000E-01  8.50000000E-01
  8.00000000E-01  8.50000000E-01  8.50000000E-01  8.50000000E-01  8.00000000E-01
  8.50000000E-01  8.50000000E-01  8.50000000E-01  8.00000000E-01  8.50000000E-01
  8.50000000E-01  8.50000000E-01  8.00000000E-01  8.50000000E-01  8.50000000E-01
  8.50000000E-01  8.00000000E-01  8.50000000E-01  8.50000000E-01  8.50000000E-01
  8.00000000E-01  8.50000000E-01  8.50000000E-01  8.50000000E-01  8.00000000E-01
  8.50000000E-01  8.50000000E-01  8.50000000E-01  8.00000000E-01  8.50000000E-01
  8.50000000E-01  8.50000000E-01  8.00000000E-01  8.50000000E-01  8.50000000E-01
  8.50000000E-01  8.00000000E-01  8.50000000E-01  8.50000000E-01  8.50000000E-01
  8.00000000E-01  8.50000000E-01  8.50000000E-01  8.50000000E-01  8.00000000E-01
  8.50000000E-01  8.50000000E-01  8.50000000E-01  8.00000000E-01  8.50000000E-01
  8.50000000E-01  8.50000000E-01  8.00000000E-01  8.50000000E-01  8.50000000E-01
  8.50000000E-01  8.00000000E-01  8.50000000E-01  8.50000000E-01  8.50000000E-01
  8.00000000E-01  8.50000000E-01  8.50000000E-01  8.50000000E-01  8.00000000E-01
  8.50000000E-01  8.50000000E-01  8.50000000E-01  8.00000000E-01  8.50000000E-01
  8.50000000E-01  8.50000000E-01  8.00000000E-01  8.50000000E-01  8.50000000E-01
  8.50000000E-01  8.00000000E-01  8.50000000E-01  8.50000000E-01  8.50000000E-01
  8.00000000E-01  8.50000000E-01  8.50000000E-01  8.50000000E-01  8.00000000E-01
  8.50000000E-01  8.50000000E-01  8.50000000E-01  8.00000000E-01  8.50000000E-01
  8.50000000E-01  8.50000000E-01  8.00000000E-01  8.50000000E-01  8.50000000E-01
  8.50000000E-01  8.00000000E-01  8.50000000E-01  8.50000000E-01  8.50000000E-01
  8.00000000E-01  8.50000000E-01  8.50000000E-01  8.50000000E-01  8.00000000E-01
  8.50000000E-01  8.50000000E-01  8.50000000E-01  8.00000000E-01  8.50000000E-01
  8.50000000E-01  8.50000000E-01  8.00000000E-01  8.50000000E-01  8.50000000E-01
  8.50000000E-01  8.00000000E-01  8.50000000E-01  8.50000000E-01  8.50000000E-01
  8.00000000E-01  8.50000000E-01  8.50000000E-01  8.50000000E-01  8.00000000E-01
  8.50000000E-01  8.50000000E-01  8.50000000E-01  8.00000000E-01  8.50000000E-01
  8.50000000E-01  8.50000000E-01  8.00000000E-01  8.50000000E-01  8.50000000E-01
  8.50000000E-01  8.00000000E-01  8.50000000E-01  8.50000000E-01  8.50000000E-01
  8.00000000E-01  8.50000000E-01  8.50000000E-01  8.50000000E-01  8.00000000E-01
  8.50000000E-01  8.50000000E-01  8.50000000E-01  8.00000000E-01  8.50000000E-01
  8.50000000E-01  8.50000000E-01  8.00000000E-01  8.50000000E-01  8.50000000E-01
  8.50000000E-01  8.00000000E-01  8.50000000E-01  8.50000000E-01  8.50000000E-01
  8.00000000E-01  8.50000000E-01  8.50000000E-01  8.50000000E-01  8.00000000E-01
  8.50000000E-01  8.50000000E-01  8.50000000E-01  8.00000000E-01  8.50000000E-01
  8.50000000E-01  8.50000000E-01  8.00000000E-01  8.50000000E-01  8.50000000E-01
  8.50000000E-01  8.00000000E-01  8.50000000E-01  8.50000000E-01  8.50000000E-01
  8.00000000E-01  8.50000000E-01  8.50000000E-01  8.50000000E-01  8.00000000E-01
  8.50000000E-01  8.50000000E-01  8.50000000E-01  8.00000000E-01  8.50000000E-01
  8.50000000E-01  8.50000000E-01  8.00000000E-01  8.50000000E-01  8.50000000E-01
  8.50000000E-01  8.00000000E-01  8.50000000E-01  8.50000000E-01  8.50000000E-01
  8.00000000E-01  8.50000000E-01  8.50000000E-01  8.50000000E-01  8.00000000E-01
  8.50000000E-01  8.50000000E-01  8.50000000E-01  8.00000000E-01  8.50000000E-01
  8.50000000E-01  8.50000000E-01  8.00000000E-01  8.50000000E-01  8.50000000E-01
  8.50000000E-01  8.00000000E-01  8.50000000E-01  8.50000000E-01  8.50000000E-01
  8.00000000E-01  8.50000000E-01  8.50000000E-01  8.50000000E-01  8.00000000E-01
  8.50000000E-01  8.50000000E-01  8.50000000E-01  8.00000000E-01  8.50000000E-01
  8.50000000E-01  8.50000000E-01  8.00000000E-01  8.50000000E-01  8.50000000E-01
  8.50000000E-01  8.00000000E-01  8.50000000E-01  8.50000000E-01  8.50000000E-01
  8.00000000E-01  8.50000000E-01  8.50000000E-01  8.50000000E-01  8.00000000E-01
  8.50000000E-01  8.50000000E-01  8.50000000E-01  8.00000000E-01  8.50000000E-01
  8.50000000E-01  8.50000000E-01  8.00000000E-01  8.50000000E-01  8.50000000E-01
  8.50000000E-01  8.00000000E-01  8.50000000E-01  8.50000000E-01  8.50000000E-01
  8.00000000E-01  8.50000000E-01  8.50000000E-01  8.50000000E-01  8.00000000E-01
  8.50000000E-01  8.50000000E-01  8.50000000E-01  8.00000000E-01  8.50000000E-01
  8.50000000E-01  8.50000000E-01  8.00000000E-01  8.50000000E-01  8.50000000E-01
  8.50000000E-01  8.00000000E-01  8.50000000E-01  8.50000000E-01  8.50000000E-01
  8.00000000E-01  8.50000000E-01  8.50000000E-01  8.50000000E-01  8.00000000E-01
  8.50000000E-01  8.50000000E-01  8.50000000E-01  8.00000000E-01  8.50000000E-01
  8.50000000E-01  8.50000000E-01  8.00000000E-01  8.50000000E-01  8.50000000E-01
  8.50000000E-01  8.00000000E-01  8.50000000E-01  8.50000000E-01  8.50000000E-01
  8.00000000E-01  8.50000000E-01  8.50000000E-01  8.50000000E-01  8.00000000E-01
  8.50000000E-01  8.50000000E-01  8.50000000E-01  8.00000000E-01  8.50000000E-01
  8.50000000E-01  8.50000000E-01  8.00000000E-01  8.50000000E-01  8.50000000E-01
  8.50000000E-01  8.00000000E-01  8.50000000E-01  8.50000000E-01  8.50000000E-01
  8.00000000E-01  8.50000000E-01  8.50000000E-01  8.50000000E-01  8.00000000E-01
  8.50000000E-01  8.50000000E-01  8.50000000E-01  8.00000000E-01  8.50000000E-01
  8.50000000E-01  8.50000000E-01  8.00000000E-01  8.50000000E-01  8.50000000E-01
  8.50000000E-01  8.00000000E-01  8.50000000E-01  8.50000000E-01  8.50000000E-01
  8.00000000E-01  8.50000000E-01  8.50000000E-01  8.50000000E-01  8.00000000E-01
  8.50000000E-01  8.50000000E-01  8.50000000E-01  8.00000000E-01  8.50000000E-01
  8.50000000E-01  8.50000000E-01  8.00000000E-01  8.50000000E-01  8.50000000E-01
  8.50000000E-01  8.00000000E-01  8.50000000E-01  8.50000000E-01  8.50000000E-01
  8.00000000E-01  8.50000000E-01  8.50000000E-01  8.50000000E-01  8.00000000E-01
  8.50000000E-01  8.50000000E-01  8.50000000E-01  8.00000000E-01  8.50000000E-01
  8.50000000E-01  8.50000000E-01  8.00000000E-01  8.50000000E-01  8.50000000E-01
  8.50000000E-01  8.00000000E-01  8.50000000E-01  8.50000000E-01  8.50000000E-01
  8.00000000E-01  8.50000000E-01  8.50000000E-01  8.50000000E-01  8.00000000E-01
  8.50000000E-01  8.50000000E-01  8.50000000E-01  8.00000000E-01  8.50000000E-01
  8.50000000E-01  8.50000000E-01  8.00000000E-01  8.50000000E-01  8.50000000E-01
  8.50000000E-01  8.00000000E-01  8.50000000E-01  8.50000000E-01  8.50000000E-01
  8.00000000E-01  8.50000000E-01  8.50000000E-01  8.50000000E-01  8.00000000E-01
  8.50000000E-01  8.50000000E-01  8.50000000E-01  8.00000000E-01  8.50000000E-01
  8.50000000E-01  8.50000000E-01  8.00000000E-01  8.50000000E-01  8.50000000E-01
  8.50000000E-01  8.00000000E-01  8.50000000E-01  8.50000000E-01  8.50000000E-01
  8.00000000E-01  8.50000000E-01  8.50000000E-01  8.50000000E-01  8.00000000E-01
  8.50000000E-01  8.50000000E-01  8.50000000E-01  8.00000000E-01  8.50000000E-01
  8.50000000E-01  8.50000000E-01  8.00000000E-01  8.50000000E-01  8.50000000E-01
  8.50000000E-01  8.00000000E-01  8.50000000E-01  8.50000000E-01  8.50000000E-01
  8.00000000E-01  8.50000000E-01  8.50000000E-01  8.50000000E-01  8.00000000E-01
  8.50000000E-01  8.50000000E-01  8.50000000E-01  8.00000000E-01  8.50000000E-01
  8.50000000E-01  8.50000000E-01  8.00000000E-01  8.50000000E-01  8.50000000E-01
  8.50000000E-01  8.00000000E-01  8.50000000E-01  8.50000000E-01  8.50000000E-01
  8.00000000E-01  8.50000000E-01  8.50000000E-01  8.50000000E-01  8.00000000E-01
  8.50000000E-01  8.50000000E-01  8.50000000E-01  8.00000000E-01  8.50000000E-01
  8.50000000E-01  8.50000000E-01  8.00000000E-01  8.50000000E-01  8.50000000E-01
  8.50000000E-01  8.00000000E-01  8.50000000E-01  8.50000000E-01  8.50000000E-01
  8.00000000E-01  8.50000000E-01  8.50000000E-01  8.50000000E-01  8.00000000E-01
  8.50000000E-01  8.50000000E-01  8.50000000E-01  8.00000000E-01  8.50000000E-01
  8.50000000E-01  8.50000000E-01  8.00000000E-01  8.50000000E-01  8.50000000E-01
  8.50000000E-01  8.00000000E-01  8.50000000E-01  8.50000000E-01  8.50000000E-01
  8.00000000E-01  8.50000000E-01  8.50000000E-01  8.50000000E-01  8.00000000E-01
  8.50000000E-01  8.50000000E-01  8.50000000E-01  8.00000000E-01  8.50000000E-01
  8.50000000E-01  8.50000000E-01  8.00000000E-01  8.50000000E-01  8.50000000E-01
  8.50000000E-01  8.00000000E-01  8.50000000E-01  8.50000000E-01  8.50000000E-01
  8.00000000E-01  8.50000000E-01  8.50000000E-01  8.50000000E-01  8.00000000E-01
  8.50000000E-01  8.50000000E-01  8.50000000E-01  8.00000000E-01  8.50000000E-01
  8.50000000E-01  8.50000000E-01  8.00000000E-01  8.50000000E-01  8.50000000E-01
  8.50000000E-01  8.00000000E-01  8.50000000E-01  8.50000000E-01  8.50000000E-01
  8.00000000E-01  8.50000000E-01  8.50000000E-01  8.50000000E-01  8.00000000E-01
  8.50000000E-01  8.50000000E-01  8.50000000E-01  8.00000000E-01  8.50000000E-01
  8.50000000E-01  8.50000000E-01  8.00000000E-01  8.50000000E-01  8.50000000E-01
  8.50000000E-01  8.00000000E-01  8.50000000E-01  8.50000000E-01  8.50000000E-01
  8.00000000E-01  8.50000000E-01  8.50000000E-01  8.50000000E-01  8.00000000E-01
  8.50000000E-01  8.50000000E-01  8.50000000E-01  8.00000000E-01  8.50000000E-01
  8.50000000E-01  8.50000000E-01  8.00000000E-01  8.50000000E-01  8.50000000E-01
  8.50000000E-01  8.00000000E-01  8.50000000E-01  8.50000000E-01  8.50000000E-01
  8.00000000E-01  8.50000000E-01  8.50000000E-01  8.50000000E-01  8.00000000E-01
  8.50000000E-01  8.50000000E-01  8.50000000E-01  8.00000000E-01  8.50000000E-01
  8.50000000E-01  8.50000000E-01  8.00000000E-01  8.50000000E-01  8.50000000E-01
  8.50000000E-01  8.00000000E-01  8.50000000E-01  8.50000000E-01  8.50000000E-01
  8.00000000E-01  8.50000000E-01  8.50000000E-01  8.50000000E-01  8.00000000E-01
  8.50000000E-01  8.50000000E-01  8.50000000E-01  8.00000000E-01  8.50000000E-01
  8.50000000E-01  8.50000000E-01  8.00000000E-01  8.50000000E-01  8.50000000E-01
  8.50000000E-01  8.00000000E-01  8.50000000E-01  8.50000000E-01  8.50000000E-01
  8.00000000E-01  8.50000000E-01  8.50000000E-01  8.50000000E-01  8.00000000E-01
  8.50000000E-01  8.50000000E-01  8.50000000E-01  8.00000000E-01  8.50000000E-01
  8.50000000E-01  8.50000000E-01  8.00000000E-01  8.50000000E-01  8.50000000E-01
  8.50000000E-01  8.00000000E-01  8.50000000E-01  8.50000000E-01  8.50000000E-01
  8.00000000E-01  8.50000000E-01  8.50000000E-01  8.50000000E-01  8.00000000E-01
  8.50000000E-01  8.50000000E-01  8.50000000E-01  8.00000000E-01  8.50000000E-01
  8.50000000E-01  8.50000000E-01  8.00000000E-01  8.50000000E-01  8.50000000E-01
  8.50000000E-01  8.00000000E-01  8.50000000E-01  8.50000000E-01  8.50000000E-01
  8.00000000E-01  8.50000000E-01  8.50000000E-01  8.50000000E-01  8.00000000E-01
  8.50000000E-01  8.50000000E-01  8.50000000E-01  8.00000000E-01  8.50000000E-01
  8.50000000E-01  8.50000000E-01  8.00000000E-01  8.50000000E-01  8.50000000E-01
  8.50000000E-01  8.00000000E-01  8.50000000E-01  8.50000000E-01  8.50000000E-01
  8.00000000E-01  8.50000000E-01  8.50000000E-01  8.50000000E-01  8.00000000E-01
  8.50000000E-01  8.50000000E-01  8.50000000E-01  8.00000000E-01  8.50000000E-01
  8.50000000E-01  8.50000000E-01  8.00000000E-01  8.50000000E-01  8.50000000E-01
  8.50000000E-01  8.00000000E-01  8.50000000E-01  8.50000000E-01  8.50000000E-01
  8.00000000E-01  8.50000000E-01  8.50000000E-01  8.50000000E-01  8.00000000E-01
  8.50000000E-01  8.50000000E-01  8.50000000E-01  8.00000000E-01  8.50000000E-01
  8.50000000E-01  8.50000000E-01  8.00000000E-01  8.50000000E-01  8.50000000E-01
  8.50000000E-01  8.00000000E-01  8.50000000E-01  8.50000000E-01  8.50000000E-01
  8.00000000E-01  8.50000000E-01  8.50000000E-01  8.50000000E-01  8.00000000E-01
  8.50000000E-01  8.50000000E-01  8.50000000E-01  8.00000000E-01  8.50000000E-01
  8.50000000E-01  8.50000000E-01  8.00000000E-01  8.50000000E-01  8.50000000E-01
  8.50000000E-01  8.00000000E-01  8.50000000E-01  8.50000000E-01  8.50000000E-01
  8.00000000E-01  8.50000000E-01  8.50000000E-01  8.50000000E-01  8.00000000E-01
  8.50000000E-01  8.50000000E-01  8.50000000E-01  8.00000000E-01  8.50000000E-01
  8.50000000E-01  8.50000000E-01  8.00000000E-01  8.50000000E-01  8.50000000E-01
  8.50000000E-01  8.00000000E-01  8.50000000E-01  8.50000000E-01  8.50000000E-01
  8.00000000E-01  8.50000000E-01  8.50000000E-01  8.50000000E-01  8.00000000E-01
  8.50000000E-01  8.50000000E-01  8.50000000E-01  8.00000000E-01  8.50000000E-01
  8.50000000E-01  8.50000000E-01  8.00000000E-01  8.50000000E-01  8.50000000E-01
  8.50000000E-01  8.00000000E-01  8.50000000E-01  8.50000000E-01  8.50000000E-01
  8.00000000E-01  8.50000000E-01  8.50000000E-01  8.50000000E-01  8.00000000E-01
  8.50000000E-01  8.50000000E-01  8.50000000E-01  8.00000000E-01  8.50000000E-01
  8.50000000E-01  8.50000000E-01  8.00000000E-01  8.50000000E-01  8.50000000E-01
  8.50000000E-01  8.00000000E-01  8.50000000E-01  8.50000000E-01  8.50000000E-01
  8.00000000E-01  8.50000000E-01  8.50000000E-01  8.50000000E-01  8.00000000E-01
  8.50000000E-01  8.50000000E-01  8.50000000E-01  8.00000000E-01  8.50000000E-01
  8.50000000E-01  8.50000000E-01  8.00000000E-01  8.50000000E-01  8.50000000E-01
  8.50000000E-01  8.00000000E-01  8.50000000E-01  8.50000000E-01  8.50000000E-01
  8.00000000E-01  8.50000000E-01  8.50000000E-01  8.50000000E-01  8.00000000E-01
  8.50000000E-01  8.50000000E-01  8.50000000E-01  8.00000000E-01  8.50000000E-01
  8.50000000E-01  8.50000000E-01  8.00000000E-01  8.50000000E-01  8.50000000E-01
  8.50000000E-01  8.00000000E-01  8.50000000E-01  8.50000000E-01  8.50000000E-01
  8.00000000E-01  8.50000000E-01  8.50000000E-01  8.50000000E-01  8.00000000E-01
  8.50000000E-01  8.50000000E-01  8.50000000E-01  8.00000000E-01  8.50000000E-01
  8.50000000E-01  8.50000000E-01  8.00000000E-01  8.50000000E-01  8.50000000E-01
  8.50000000E-01  8.00000000E-01  8.50000000E-01  8.50000000E-01  8.50000000E-01
  8.00000000E-01  8.50000000E-01  8.50000000E-01  8.50000000E-01  8.00000000E-01
  8.50000000E-01  8.50000000E-01  8.50000000E-01  8.00000000E-01  8.50000000E-01
  8.50000000E-01  8.50000000E-01  8.00000000E-01  8.50000000E-01  8.50000000E-01
  8.50000000E-01  8.00000000E-01  8.50000000E-01  8.50000000E-01  8.50000000E-01
  8.00000000E-01  8.50000000E-01  8.50000000E-01  8.50000000E-01  8.00000000E-01
  8.50000000E-01  8.50000000E-01  8.50000000E-01  8.00000000E-01  8.50000000E-01
  8.50000000E-01  8.50000000E-01  8.00000000E-01  8.50000000E-01  8.50000000E-01
  8.50000000E-01  8.00000000E-01  8.50000000E-01  8.50000000E-01  8.50000000E-01
  8.00000000E-01  8.50000000E-01  8.50000000E-01  8.50000000E-01  8.00000000E-01
  8.50000000E-01  8.50000000E-01  8.50000000E-01  8.00000000E-01  8.50000000E-01
  8.50000000E-01  8.50000000E-01  8.00000000E-01  8.50000000E-01  8.50000000E-01
  8.50000000E-01  8.00000000E-01  8.50000000E-01  8.50000000E-01  8.50000000E-01
  8.00000000E-01  8.50000000E-01  8.50000000E-01  8.50000000E-01  8.00000000E-01
  8.50000000E-01  8.50000000E-01  8.50000000E-01  8.00000000E-01  8.50000000E-01
  8.50000000E-01  8.50000000E-01  8.00000000E-01  8.50000000E-01  8.50000000E-01
  8.50000000E-01  8.00000000E-01  8.50000000E-01  8.50000000E-01  8.50000000E-01
  8.00000000E-01  8.50000000E-01  8.50000000E-01  8.50000000E-01  8.00000000E-01
  8.50000000E-01  8.50000000E-01  8.50000000E-01  8.00000000E-01  8.50000000E-01
  8.50000000E-01  8.50000000E-01  8.00000000E-01  8.50000000E-01  8.50000000E-01
  8.50000000E-01  8.00000000E-01  8.50000000E-01  8.50000000E-01  8.50000000E-01
  8.00000000E-01  8.50000000E-01  8.50000000E-01  8.50000000E-01  8.00000000E-01
  8.50000000E-01  8.50000000E-01  8.50000000E-01  8.00000000E-01  8.50000000E-01
  8.50000000E-01  8.50000000E-01  8.00000000E-01  8.50000000E-01  8.50000000E-01
  8.50000000E-01  8.00000000E-01  8.50000000E-01  8.50000000E-01  8.50000000E-01
  8.00000000E-01  8.50000000E-01  8.50000000E-01  8.50000000E-01  8.00000000E-01
  8.50000000E-01  8.50000000E-01  8.50000000E-01  8.00000000E-01  8.50000000E-01
  8.50000000E-01  8.50000000E-01  8.00000000E-01  8.50000000E-01  8.50000000E-01
  8.50000000E-01  8.00000000E-01  8.50000000E-01  8.50000000E-01  8.50000000E-01
  8.00000000E-01  8.50000000E-01  8.50000000E-01  8.50000000E-01  8.00000000E-01
  8.50000000E-01  8.50000000E-01  8.50000000E-01  8.00000000E-01  8.50000000E-01
  8.50000000E-01  8.50000000E-01  8.00000000E-01  8.50000000E-01  8.50000000E-01
  8.50000000E-01  8.00000000E-01  8.50000000E-01  8.50000000E-01  8.50000000E-01
  8.00000000E-01  8.50000000E-01  8.50000000E-01  8.50000000E-01  8.00000000E-01
  8.50000000E-01  8.50000000E-01  8.50000000E-01  8.00000000E-01  8.50000000E-01
  8.50000000E-01  8.50000000E-01  8.00000000E-01  8.50000000E-01  8.50000000E-01
  8.50000000E-01  8.00000000E-01  8.50000000E-01  8.50000000E-01  8.50000000E-01
  8.00000000E-01  8.50000000E-01  8.50000000E-01  8.50000000E-01  8.00000000E-01
  8.50000000E-01  8.50000000E-01  8.50000000E-01  8.00000000E-01  8.50000000E-01
  8.50000000E-01  8.50000000E-01  8.00000000E-01  8.50000000E-01  8.50000000E-01
  8.50000000E-01  8.00000000E-01  8.50000000E-01  8.50000000E-01  8.50000000E-01
  8.00000000E-01  8.50000000E-01  8.50000000E-01  8.50000000E-01  8.00000000E-01
  8.50000000E-01  8.50000000E-01  8.50000000E-01  8.00000000E-01  8.50000000E-01
  8.50000000E-01  8.50000000E-01  8.00000000E-01  8.50000000E-01  8.50000000E-01
  8.50000000E-01  8.00000000E-01  8.50000000E-01  8.50000000E-01  8.50000000E-01
  8.00000000E-01  8.50000000E-01  8.50000000E-01  8.50000000E-01  8.00000000E-01
  8.50000000E-01  8.50000000E-01  8.50000000E-01  8.00000000E-01  8.50000000E-01
  8.50000000E-01  8.50000000E-01  8.00000000E-01  8.50000000E-01  8.50000000E-01
  8.50000000E-01  8.00000000E-01  8.50000000E-01  8.50000000E-01  8.50000000E-01
  8.00000000E-01  8.50000000E-01  8.50000000E-01  8.50000000E-01  8.00000000E-01
  8.50000000E-01  8.50000000E-01  8.50000000E-01  8.00000000E-01  8.50000000E-01
  8.50000000E-01  8.50000000E-01  8.00000000E-01  8.50000000E-01  8.50000000E-01
  8.50000000E-01  8.00000000E-01  8.50000000E-01  8.50000000E-01  8.50000000E-01
  8.00000000E-01  8.50000000E-01  8.50000000E-01  8.50000000E-01  8.00000000E-01
  8.50000000E-01  8.50000000E-01  8.50000000E-01  8.00000000E-01  8.50000000E-01
  8.50000000E-01  8.50000000E-01  8.00000000E-01  8.50000000E-01  8.50000000E-01
  8.50000000E-01  8.00000000E-01  8.50000000E-01  8.50000000E-01  8.50000000E-01
  8.00000000E-01  8.50000000E-01  8.50000000E-01  8.50000000E-01  8.00000000E-01
  8.50000000E-01  8.50000000E-01  8.50000000E-01  8.00000000E-01  8.50000000E-01
  8.50000000E-01  8.50000000E-01  8.00000000E-01  8.50000000E-01  8.50000000E-01
  8.50000000E-01  8.00000000E-01  8.50000000E-01  8.50000000E-01  8.50000000E-01
  8.00000000E-01  8.50000000E-01  8.50000000E-01  8.50000000E-01  8.00000000E-01
  8.50000000E-01  8.50000000E-01  8.50000000E-01  8.00000000E-01  8.50000000E-01
  8.50000000E-01  8.50000000E-01  8.00000000E-01  8.50000000E-01  8.50000000E-01
  8.50000000E-01  8.00000000E-01  8.50000000E-01  8.50000000E-01  8.50000000E-01
  8.00000000E-01  8.50000000E-01  8.50000000E-01  8.50000000E-01  8.00000000E-01
  8.50000000E-01  8.50000000E-01  8.50000000E-01  8.00000000E-01  8.50000000E-01
  8.50000000E-01  8.50000000E-01  8.00000000E-01  8.50000000E-01  8.50000000E-01
  8.50000000E-01  8.00000000E-01  8.50000000E-01  8.50000000E-01  8.50000000E-01
  8.00000000E-01  8.50000000E-01  8.50000000E-01  8.50000000E-01  8.00000000E-01
  8.50000000E-01  8.50000000E-01  8.50000000E-01  8.00000000E-01  8.50000000E-01
  8.50000000E-01  8.50000000E-01  8.00000000E-01  8.50000000E-01  8.50000000E-01
  8.50000000E-01  8.00000000E-01  8.50000000E-01  8.50000000E-01  8.50000000E-01
  8.00000000E-01  8.50000000E-01  8.50000000E-01  8.50000000E-01  8.00000000E-01
  8.50000000E-01  8.50000000E-01  8.50000000E-01  8.00000000E-01  8.50000000E-01
  8.50000000E-01  8.50000000E-01  8.00000000E-01  8.50000000E-01  8.50000000E-01
  8.50000000E-01  8.00000000E-01  8.50000000E-01  8.50000000E-01  8.50000000E-01
  8.00000000E-01  8.50000000E-01  8.50000000E-01  8.50000000E-01  8.00000000E-01
  8.50000000E-01  8.50000000E-01  8.50000000E-01  8.00000000E-01  8.50000000E-01
  8.50000000E-01  8.50000000E-01  8.00000000E-01  8.50000000E-01  8.50000000E-01
  8.50000000E-01  8.00000000E-01  8.50000000E-01  8.50000000E-01  8.50000000E-01
  8.00000000E-01  8.50000000E-01  8.50000000E-01  8.50000000E-01  8.00000000E-01
  8.50000000E-01  8.50000000E-01  8.50000000E-01  8.00000000E-01  8.50000000E-01
  8.50000000E-01  8.50000000E-01  8.00000000E-01  8.50000000E-01  8.50000000E-01
  8.50000000E-01  8.00000000E-01  8.50000000E-01  8.50000000E-01  8.50000000E-01
  8.00000000E-01  8.50000000E-01  8.50000000E-01  8.50000000E-01  8.00000000E-01
  8.50000000E-01  8.50000000E-01  8.50000000E-01  8.00000000E-01  8.50000000E-01
  8.50000000E-01  8.50000000E-01  8.00000000E-01  8.50000000E-01  8.50000000E-01
  8.50000000E-01  8.00000000E-01  8.50000000E-01  8.50000000E-01  8.50000000E-01
  8.00000000E-01  8.50000000E-01  8.50000000E-01  8.50000000E-01  8.00000000E-01
  8.50000000E-01  8.50000000E-01  8.50000000E-01  8.00000000E-01  8.50000000E-01
  8.50000000E-01  8.50000000E-01  8.00000000E-01  8.50000000E-01  8.50000000E-01
  8.50000000E-01  8.00000000E-01  8.50000000E-01  8.50000000E-01  8.50000000E-01
  8.00000000E-01  8.50000000E-01  8.50000000E-01  8.50000000E-01  8.00000000E-01
  8.50000000E-01  8.50000000E-01  8.50000000E-01  8.00000000E-01  8.50000000E-01
  8.50000000E-01  8.50000000E-01  8.00000000E-01  8.50000000E-01  8.50000000E-01
  8.50000000E-01  8.00000000E-01  8.50000000E-01  8.50000000E-01  8.50000000E-01
  8.00000000E-01  8.50000000E-01  8.50000000E-01  8.50000000E-01  8.00000000E-01
  8.50000000E-01  8.50000000E-01  8.50000000E-01  8.00000000E-01  8.50000000E-01
  8.50000000E-01  8.50000000E-01  8.00000000E-01  8.50000000E-01  8.50000000E-01
  8.50000000E-01  8.00000000E-01  8.50000000E-01  8.50000000E-01  8.50000000E-01
  8.00000000E-01  8.50000000E-01  8.50000000E-01  8.50000000E-01  8.00000000E-01
  8.50000000E-01  8.50000000E-01  8.50000000E-01  8.00000000E-01  8.50000000E-01
  8.50000000E-01  8.50000000E-01  8.00000000E-01  8.50000000E-01  8.50000000E-01
  8.50000000E-01  8.00000000E-01  8.50000000E-01  8.50000000E-01  8.50000000E-01
  8.00000000E-01  8.50000000E-01  8.50000000E-01  8.50000000E-01  8.00000000E-01
  8.50000000E-01  8.50000000E-01  8.50000000E-01  8.00000000E-01  8.50000000E-01
  8.50000000E-01  8.50000000E-01  8.00000000E-01  8.50000000E-01  8.50000000E-01
  8.50000000E-01  8.00000000E-01  8.50000000E-01  8.50000000E-01  8.50000000E-01
  8.00000000E-01  8.50000000E-01  8.50000000E-01  8.50000000E-01  8.00000000E-01
  8.50000000E-01  8.50000000E-01  8.50000000E-01  8.00000000E-01  8.50000000E-01
  8.50000000E-01  8.50000000E-01  8.00000000E-01  8.50000000E-01  8.50000000E-01
  8.50000000E-01  8.00000000E-01  8.50000000E-01  8.50000000E-01  8.50000000E-01
  8.00000000E-01  8.50000000E-01  8.50000000E-01  8.50000000E-01  8.00000000E-01
  8.50000000E-01  8.50000000E-01  8.50000000E-01  8.00000000E-01  8.50000000E-01
  8.50000000E-01  8.50000000E-01  8.00000000E-01  8.50000000E-01  8.50000000E-01
  8.50000000E-01  8.00000000E-01  8.50000000E-01  8.50000000E-01  8.50000000E-01
  8.00000000E-01  8.50000000E-01  8.50000000E-01  8.50000000E-01  8.00000000E-01
  8.50000000E-01  8.50000000E-01  8.50000000E-01  8.00000000E-01  8.50000000E-01
  8.50000000E-01  8.50000000E-01  8.00000000E-01  8.50000000E-01  8.50000000E-01
  8.50000000E-01  8.00000000E-01  8.50000000E-01  8.50000000E-01  8.50000000E-01
  8.00000000E-01  8.50000000E-01  8.50000000E-01  8.50000000E-01  8.00000000E-01
  8.50000000E-01  8.50000000E-01  8.50000000E-01  8.00000000E-01  8.50000000E-01
  8.50000000E-01  8.50000000E-01  8.00000000E-01  8.50000000E-01  8.50000000E-01
  8.50000000E-01  8.00000000E-01  8.50000000E-01  8.50000000E-01  8.50000000E-01
  8.00000000E-01  8.50000000E-01  8.50000000E-01  8.50000000E-01  8.00000000E-01
  8.50000000E-01  8.50000000E-01  8.50000000E-01  8.00000000E-01  8.50000000E-01
  8.50000000E-01  8.50000000E-01  8.00000000E-01  8.50000000E-01  8.50000000E-01
  8.50000000E-01  8.00000000E-01  8.50000000E-01  8.50000000E-01  8.50000000E-01
  8.00000000E-01  8.50000000E-01  8.50000000E-01  8.50000000E-01  8.00000000E-01
  8.50000000E-01  8.50000000E-01  8.50000000E-01  8.00000000E-01  8.50000000E-01
  8.50000000E-01  8.50000000E-01  8.00000000E-01  8.50000000E-01  8.50000000E-01
  8.50000000E-01  8.00000000E-01  8.50000000E-01  8.50000000E-01  8.50000000E-01
  8.00000000E-01  8.50000000E-01  8.50000000E-01  8.50000000E-01  8.00000000E-01
  8.50000000E-01  8.50000000E-01  8.50000000E-01  8.00000000E-01  8.50000000E-01
  8.50000000E-01  8.50000000E-01  8.00000000E-01  8.50000000E-01  8.50000000E-01
  8.50000000E-01  8.00000000E-01  8.50000000E-01  8.50000000E-01  8.50000000E-01
  8.00000000E-01  8.50000000E-01  8.50000000E-01  8.50000000E-01  8.00000000E-01
  8.50000000E-01  8.50000000E-01  8.50000000E-01  8.00000000E-01  8.50000000E-01
  8.50000000E-01  8.50000000E-01  8.00000000E-01  8.50000000E-01  8.50000000E-01
  8.50000000E-01  8.00000000E-01  8.50000000E-01  8.50000000E-01  8.50000000E-01
  8.00000000E-01  8.50000000E-01  8.50000000E-01  8.50000000E-01  8.00000000E-01
  8.50000000E-01  8.50000000E-01  8.50000000E-01  8.00000000E-01  8.50000000E-01
  8.50000000E-01  8.50000000E-01  8.00000000E-01  8.50000000E-01  8.50000000E-01
  8.50000000E-01  8.00000000E-01  8.50000000E-01  8.50000000E-01  8.50000000E-01
  8.00000000E-01  8.50000000E-01  8.50000000E-01  8.50000000E-01  8.00000000E-01
  8.50000000E-01  8.50000000E-01  8.50000000E-01  8.00000000E-01  8.50000000E-01
  8.50000000E-01  8.50000000E-01  8.00000000E-01  8.50000000E-01  8.50000000E-01
  8.50000000E-01  8.00000000E-01  8.50000000E-01  8.50000000E-01  8.50000000E-01
  8.00000000E-01  8.50000000E-01  8.50000000E-01  8.50000000E-01  8.00000000E-01
  8.50000000E-01  8.50000000E-01  8.50000000E-01  8.00000000E-01  8.50000000E-01
  8.50000000E-01  8.50000000E-01  8.00000000E-01  8.50000000E-01  8.50000000E-01
  8.50000000E-01  8.00000000E-01  8.50000000E-01  8.50000000E-01  8.50000000E-01
  8.00000000E-01  8.50000000E-01  8.50000000E-01  8.50000000E-01  8.00000000E-01
  8.50000000E-01  8.50000000E-01  8.50000000E-01  8.00000000E-01  8.50000000E-01
  8.50000000E-01  8.50000000E-01  8.00000000E-01  8.50000000E-01  8.50000000E-01
  8.50000000E-01  8.00000000E-01  8.50000000E-01  8.50000000E-01  8.50000000E-01
  8.00000000E-01  8.50000000E-01  8.50000000E-01  8.50000000E-01  8.00000000E-01
  8.50000000E-01  8.50000000E-01  8.50000000E-01  8.00000000E-01  8.50000000E-01
  8.50000000E-01  8.50000000E-01  8.00000000E-01  8.50000000E-01  8.50000000E-01
  8.50000000E-01  8.00000000E-01  8.50000000E-01  8.50000000E-01  8.50000000E-01
  8.00000000E-01  8.50000000E-01  8.50000000E-01  8.50000000E-01  8.00000000E-01
  8.50000000E-01  8.50000000E-01  8.50000000E-01  8.00000000E-01  8.50000000E-01
  8.50000000E-01  8.50000000E-01  8.00000000E-01  8.50000000E-01  8.50000000E-01
  8.50000000E-01  8.00000000E-01  8.50000000E-01  8.50000000E-01  8.50000000E-01
  8.00000000E-01  8.50000000E-01  8.50000000E-01  8.50000000E-01  8.00000000E-01
  8.50000000E-01  8.50000000E-01  8.50000000E-01  8.00000000E-01  8.50000000E-01
  8.50000000E-01  8.50000000E-01  8.00000000E-01  8.50000000E-01  8.50000000E-01
  8.50000000E-01  8.00000000E-01  8.50000000E-01  8.50000000E-01  8.50000000E-01
  8.00000000E-01  8.50000000E-01  8.50000000E-01  8.50000000E-01  8.00000000E-01
  8.50000000E-01  8.50000000E-01  8.50000000E-01  8.00000000E-01  8.50000000E-01
  8.50000000E-01  8.50000000E-01  8.00000000E-01  8.50000000E-01  8.50000000E-01
  8.50000000E-01  8.00000000E-01  8.50000000E-01  8.50000000E-01  8.50000000E-01
  8.00000000E-01  8.50000000E-01  8.50000000E-01  8.50000000E-01  8.00000000E-01
  8.50000000E-01  8.50000000E-01  8.50000000E-01  8.00000000E-01  8.50000000E-01
  8.50000000E-01  8.50000000E-01  8.00000000E-01  8.50000000E-01  8.50000000E-01
  8.50000000E-01  8.00000000E-01  8.50000000E-01  8.50000000E-01  8.50000000E-01
  8.00000000E-01  8.50000000E-01  8.50000000E-01  8.50000000E-01  8.00000000E-01
  8.50000000E-01  8.50000000E-01  8.50000000E-01  8.00000000E-01  8.50000000E-01
  8.50000000E-01  8.50000000E-01  8.00000000E-01  8.50000000E-01  8.50000000E-01
  8.50000000E-01  8.00000000E-01  8.50000000E-01  8.50000000E-01  8.50000000E-01
  8.00000000E-01  8.50000000E-01  8.50000000E-01  8.50000000E-01  8.00000000E-01
  8.50000000E-01  8.50000000E-01  8.50000000E-01  8.00000000E-01  8.50000000E-01
  8.50000000E-01  8.50000000E-01  8.00000000E-01  8.50000000E-01  8.50000000E-01
  8.50000000E-01  8.00000000E-01  8.50000000E-01  8.50000000E-01  8.50000000E-01
  8.00000000E-01  8.50000000E-01  8.50000000E-01  8.50000000E-01  8.00000000E-01
  8.50000000E-01  8.50000000E-01  8.50000000E-01  8.00000000E-01  8.50000000E-01
  8.50000000E-01  8.50000000E-01  8.00000000E-01  8.50000000E-01  8.50000000E-01
  8.50000000E-01  8.00000000E-01  8.50000000E-01  8.50000000E-01  8.50000000E-01
  8.00000000E-01  8.50000000E-01  8.50000000E-01  8.50000000E-01  8.00000000E-01
  8.50000000E-01  8.50000000E-01  8.50000000E-01  8.00000000E-01  8.50000000E-01
  8.50000000E-01  8.50000000E-01  8.00000000E-01  8.50000000E-01  8.50000000E-01
  8.50000000E-01  8.00000000E-01  8.50000000E-01  8.50000000E-01  8.50000000E-01
  8.00000000E-01  8.50000000E-01  8.50000000E-01  8.50000000E-01  8.00000000E-01
  8.50000000E-01  8.50000000E-01  8.50000000E-01  8.00000000E-01  8.50000000E-01
  8.50000000E-01  8.50000000E-01  8.00000000E-01  8.50000000E-01  8.50000000E-01
  8.50000000E-01  8.00000000E-01  8.50000000E-01  8.50000000E-01  8.50000000E-01
  8.00000000E-01  8.50000000E-01  8.50000000E-01  8.50000000E-01  8.00000000E-01
  8.50000000E-01  8.50000000E-01  8.50000000E-01  8.00000000E-01  8.50000000E-01
  8.50000000E-01  8.50000000E-01  8.00000000E-01  8.50000000E-01  8.50000000E-01
  8.50000000E-01  8.00000000E-01  8.50000000E-01  8.50000000E-01  8.50000000E-01
  8.00000000E-01  8.50000000E-01  8.50000000E-01  8.50000000E-01  8.00000000E-01
  8.50000000E-01  8.50000000E-01  8.50000000E-01  8.00000000E-01  8.50000000E-01
  8.50000000E-01  8.50000000E-01  8.00000000E-01  8.50000000E-01  8.50000000E-01
  8.50000000E-01  8.00000000E-01  8.50000000E-01  8.50000000E-01  8.50000000E-01
  8.00000000E-01  8.50000000E-01  8.50000000E-01  8.50000000E-01  8.00000000E-01
  8.50000000E-01  8.50000000E-01  8.50000000E-01  8.00000000E-01  8.50000000E-01
  8.50000000E-01  8.50000000E-01  8.00000000E-01  8.50000000E-01  8.50000000E-01
  8.50000000E-01  8.00000000E-01  8.50000000E-01  8.50000000E-01  8.50000000E-01
  8.00000000E-01  8.50000000E-01  8.50000000E-01  8.50000000E-01  8.00000000E-01
  8.50000000E-01  8.50000000E-01  8.50000000E-01  8.00000000E-01  8.50000000E-01
  8.50000000E-01  8.50000000E-01  8.00000000E-01  8.50000000E-01  8.50000000E-01
  8.50000000E-01  8.00000000E-01  8.50000000E-01  8.50000000E-01  8.50000000E-01
  8.00000000E-01  8.50000000E-01  8.50000000E-01  8.50000000E-01  8.00000000E-01
  8.50000000E-01  8.50000000E-01  8.50000000E-01  8.00000000E-01  8.50000000E-01
  8.50000000E-01  8.50000000E-01  8.00000000E-01  8.50000000E-01  8.50000000E-01
  8.50000000E-01  8.00000000E-01  8.50000000E-01  8.50000000E-01  8.50000000E-01
  8.00000000E-01  8.50000000E-01  8.50000000E-01  8.50000000E-01  8.00000000E-01
  8.50000000E-01  8.50000000E-01  8.50000000E-01  8.00000000E-01  8.50000000E-01
  8.50000000E-01  8.50000000E-01  8.00000000E-01  8.50000000E-01  8.50000000E-01
  8.50000000E-01  8.00000000E-01  8.50000000E-01  8.50000000E-01  8.50000000E-01
  8.00000000E-01  8.50000000E-01  8.50000000E-01  8.50000000E-01  8.00000000E-01
  8.50000000E-01  8.50000000E-01  8.50000000E-01  8.00000000E-01  8.50000000E-01
  8.50000000E-01  8.50000000E-01  8.00000000E-01  8.50000000E-01  8.50000000E-01
  8.50000000E-01  8.00000000E-01  8.50000000E-01  8.50000000E-01  8.50000000E-01
  8.00000000E-01  8.50000000E-01  8.50000000E-01  8.50000000E-01  8.00000000E-01
  8.50000000E-01  8.50000000E-01  8.50000000E-01  8.00000000E-01  8.50000000E-01
  8.50000000E-01  8.50000000E-01  8.00000000E-01  8.50000000E-01  8.50000000E-01
  8.50000000E-01  8.00000000E-01  8.50000000E-01  8.50000000E-01  8.50000000E-01
  8.00000000E-01  8.50000000E-01  8.50000000E-01  8.50000000E-01  8.00000000E-01
  8.50000000E-01  8.50000000E-01  8.50000000E-01  8.00000000E-01  8.50000000E-01
  8.50000000E-01  8.50000000E-01  8.00000000E-01  8.50000000E-01  8.50000000E-01
  8.50000000E-01  8.00000000E-01  8.50000000E-01  8.50000000E-01  8.50000000E-01
  8.00000000E-01  8.50000000E-01  8.50000000E-01  8.50000000E-01  8.00000000E-01
  8.50000000E-01  8.50000000E-01  8.50000000E-01  8.00000000E-01  8.50000000E-01
  8.50000000E-01  8.50000000E-01  8.00000000E-01  8.50000000E-01  8.50000000E-01
  8.50000000E-01  8.00000000E-01  8.50000000E-01  8.50000000E-01  8.50000000E-01
  8.00000000E-01  8.50000000E-01  8.50000000E-01  8.50000000E-01  8.00000000E-01
  8.50000000E-01  8.50000000E-01  8.50000000E-01  8.00000000E-01  8.50000000E-01
  8.50000000E-01  8.50000000E-01  8.00000000E-01  8.50000000E-01  8.50000000E-01
  8.50000000E-01  8.00000000E-01  8.50000000E-01  8.50000000E-01  8.50000000E-01
  8.00000000E-01  8.50000000E-01  8.50000000E-01  8.50000000E-01  8.00000000E-01
  8.50000000E-01  8.50000000E-01  8.50000000E-01  8.00000000E-01  8.50000000E-01
  8.50000000E-01  8.50000000E-01  8.00000000E-01  8.50000000E-01  8.50000000E-01
  8.50000000E-01  8.00000000E-01  8.50000000E-01  8.50000000E-01  8.50000000E-01
  8.00000000E-01  8.50000000E-01  8.50000000E-01  8.50000000E-01  8.00000000E-01
  8.50000000E-01  8.50000000E-01  8.50000000E-01  8.00000000E-01  8.50000000E-01
  8.50000000E-01  8.50000000E-01  8.00000000E-01  8.50000000E-01  8.50000000E-01
  8.50000000E-01  8.00000000E-01  8.50000000E-01  8.50000000E-01  8.50000000E-01
  8.00000000E-01  8.50000000E-01  8.50000000E-01  8.50000000E-01  8.00000000E-01
  8.50000000E-01  8.50000000E-01  8.50000000E-01  8.00000000E-01  8.50000000E-01
  8.50000000E-01  8.50000000E-01  8.00000000E-01  8.50000000E-01  8.50000000E-01
  8.50000000E-01  8.00000000E-01  8.50000000E-01  8.50000000E-01  8.50000000E-01
  8.00000000E-01  8.50000000E-01  8.50000000E-01  8.50000000E-01  8.00000000E-01
  8.50000000E-01  8.50000000E-01  8.50000000E-01  8.00000000E-01  8.50000000E-01
  8.50000000E-01  8.50000000E-01  8.00000000E-01  8.50000000E-01  8.50000000E-01
  8.50000000E-01  8.00000000E-01  8.50000000E-01  8.50000000E-01  8.50000000E-01
  8.00000000E-01  8.50000000E-01  8.50000000E-01  8.50000000E-01  8.00000000E-01
  8.50000000E-01  8.50000000E-01  8.50000000E-01  8.00000000E-01  8.50000000E-01
  8.50000000E-01  8.50000000E-01  8.00000000E-01  8.50000000E-01  8.50000000E-01
  8.50000000E-01  8.00000000E-01  8.50000000E-01  8.50000000E-01  8.50000000E-01
  8.00000000E-01  8.50000000E-01  8.50000000E-01  8.50000000E-01  8.00000000E-01
  8.50000000E-01  8.50000000E-01  8.50000000E-01  8.00000000E-01  8.50000000E-01
  8.50000000E-01  8.50000000E-01  8.00000000E-01  8.50000000E-01  8.50000000E-01
  8.50000000E-01  8.00000000E-01  8.50000000E-01  8.50000000E-01  8.50000000E-01
  8.00000000E-01  8.50000000E-01  8.50000000E-01  8.50000000E-01  8.00000000E-01
  8.50000000E-01  8.50000000E-01  8.50000000E-01  8.00000000E-01  8.50000000E-01
  8.50000000E-01  8.50000000E-01  8.00000000E-01  8.50000000E-01  8.50000000E-01
  8.50000000E-01  8.00000000E-01  8.50000000E-01  8.50000000E-01  8.50000000E-01
  8.00000000E-01  8.50000000E-01  8.50000000E-01  8.50000000E-01  8.00000000E-01
  8.50000000E-01  8.50000000E-01  8.50000000E-01  8.00000000E-01  8.50000000E-01
  8.50000000E-01  8.50000000E-01  8.00000000E-01  8.50000000E-01  8.50000000E-01
  8.50000000E-01  8.00000000E-01  8.50000000E-01  8.50000000E-01  8.50000000E-01
  8.00000000E-01  8.50000000E-01  8.50000000E-01  8.50000000E-01  8.00000000E-01
  8.50000000E-01  8.50000000E-01  8.50000000E-01  8.00000000E-01  8.50000000E-01
  8.50000000E-01  8.50000000E-01  8.00000000E-01  8.50000000E-01  8.50000000E-01
  8.50000000E-01  8.00000000E-01  8.50000000E-01  8.50000000E-01  8.50000000E-01
  8.00000000E-01  8.50000000E-01  8.50000000E-01  8.50000000E-01  8.00000000E-01
  8.50000000E-01  8.50000000E-01  8.50000000E-01  8.00000000E-01  8.50000000E-01
  8.50000000E-01  8.50000000E-01  8.00000000E-01  8.50000000E-01  8.50000000E-01
  8.50000000E-01  8.00000000E-01  8.50000000E-01  8.50000000E-01  8.50000000E-01
  8.00000000E-01  8.50000000E-01  8.50000000E-01  8.50000000E-01  8.00000000E-01
  8.50000000E-01  8.50000000E-01  8.50000000E-01  8.00000000E-01  8.50000000E-01
  8.50000000E-01  8.50000000E-01  8.00000000E-01  8.50000000E-01  8.50000000E-01
  8.50000000E-01  8.00000000E-01  8.50000000E-01  8.50000000E-01  8.50000000E-01
  8.00000000E-01  8.50000000E-01  8.50000000E-01  8.50000000E-01  8.00000000E-01
  8.50000000E-01  8.50000000E-01  8.50000000E-01  8.00000000E-01  8.50000000E-01
  8.50000000E-01  8.50000000E-01  8.00000000E-01  8.50000000E-01  8.50000000E-01
  8.50000000E-01  8.00000000E-01  8.50000000E-01  8.50000000E-01  8.50000000E-01
  8.00000000E-01  8.50000000E-01  8.50000000E-01  8.50000000E-01  8.00000000E-01
  8.50000000E-01  8.50000000E-01  8.50000000E-01  8.00000000E-01  8.50000000E-01
  8.50000000E-01  8.50000000E-01  8.00000000E-01  8.50000000E-01  8.50000000E-01
  8.50000000E-01  8.00000000E-01  8.50000000E-01  8.50000000E-01  8.50000000E-01
  8.00000000E-01  8.50000000E-01  8.50000000E-01  8.50000000E-01  8.00000000E-01
  8.50000000E-01  8.50000000E-01  8.50000000E-01  8.00000000E-01  8.50000000E-01
  8.50000000E-01  8.50000000E-01  8.00000000E-01  8.50000000E-01  8.50000000E-01
  8.50000000E-01  8.00000000E-01  8.50000000E-01  8.50000000E-01  8.50000000E-01
  8.00000000E-01  8.50000000E-01  8.50000000E-01  8.50000000E-01  8.00000000E-01
  8.50000000E-01  8.50000000E-01  8.50000000E-01  8.00000000E-01  8.50000000E-01
  8.50000000E-01  8.50000000E-01  8.00000000E-01  8.50000000E-01  8.50000000E-01
  8.50000000E-01  8.00000000E-01  8.50000000E-01  8.50000000E-01  8.50000000E-01
  8.00000000E-01  8.50000000E-01  8.50000000E-01  8.50000000E-01  8.00000000E-01
  8.50000000E-01  8.50000000E-01  8.50000000E-01  8.00000000E-01  8.50000000E-01
  8.50000000E-01  8.50000000E-01  8.00000000E-01  8.50000000E-01  8.50000000E-01
  8.50000000E-01  8.00000000E-01  8.50000000E-01  8.50000000E-01  8.50000000E-01
  8.00000000E-01  8.50000000E-01  8.50000000E-01  8.50000000E-01  8.00000000E-01
  8.50000000E-01  8.50000000E-01  8.50000000E-01  8.00000000E-01  8.50000000E-01
  8.50000000E-01  8.50000000E-01  8.00000000E-01  8.50000000E-01  8.50000000E-01
  8.50000000E-01  8.00000000E-01  8.50000000E-01  8.50000000E-01  8.50000000E-01
  8.00000000E-01  8.50000000E-01  8.50000000E-01  8.50000000E-01  8.00000000E-01
  8.50000000E-01  8.50000000E-01  8.50000000E-01  8.00000000E-01  8.50000000E-01
  8.50000000E-01  8.50000000E-01  8.00000000E-01  8.50000000E-01  8.50000000E-01
  8.50000000E-01  8.00000000E-01  8.50000000E-01  8.50000000E-01  8.50000000E-01
  8.00000000E-01  8.50000000E-01  8.50000000E-01  8.50000000E-01  8.00000000E-01
  8.50000000E-01  8.50000000E-01  8.50000000E-01  8.00000000E-01  8.50000000E-01
  8.50000000E-01  8.50000000E-01  8.00000000E-01  8.50000000E-01  8.50000000E-01
  8.50000000E-01  8.00000000E-01  8.50000000E-01  8.50000000E-01  8.50000000E-01
  8.00000000E-01  8.50000000E-01  8.50000000E-01  8.50000000E-01  8.00000000E-01
  8.50000000E-01  8.50000000E-01  8.50000000E-01  8.00000000E-01  8.50000000E-01
  8.50000000E-01  8.50000000E-01  8.00000000E-01  8.50000000E-01  8.50000000E-01
  8.50000000E-01  8.00000000E-01  8.50000000E-01  8.50000000E-01  8.50000000E-01
  8.00000000E-01  8.50000000E-01  8.50000000E-01  8.50000000E-01  8.00000000E-01
  8.50000000E-01  8.50000000E-01  8.50000000E-01  8.00000000E-01  8.50000000E-01
  8.50000000E-01  8.50000000E-01  8.00000000E-01  8.50000000E-01  8.50000000E-01
  8.50000000E-01  8.00000000E-01  8.50000000E-01  8.50000000E-01  8.50000000E-01
  8.00000000E-01  8.50000000E-01  8.50000000E-01  8.50000000E-01  8.00000000E-01
  8.50000000E-01  8.50000000E-01  8.50000000E-01  8.00000000E-01  8.50000000E-01
  8.50000000E-01  8.50000000E-01  8.00000000E-01  8.50000000E-01  8.50000000E-01
  8.50000000E-01  8.00000000E-01  8.50000000E-01  8.50000000E-01  8.50000000E-01
  8.00000000E-01  8.50000000E-01  8.50000000E-01  8.50000000E-01  8.00000000E-01
  8.50000000E-01  8.50000000E-01  8.50000000E-01  8.00000000E-01  8.50000000E-01
  8.50000000E-01  8.50000000E-01  8.00000000E-01  8.50000000E-01  8.50000000E-01
  8.50000000E-01  8.00000000E-01  8.50000000E-01  8.50000000E-01  8.50000000E-01
  8.00000000E-01  8.50000000E-01  8.50000000E-01  8.50000000E-01  8.00000000E-01
  8.50000000E-01  8.50000000E-01  8.50000000E-01  8.00000000E-01  8.50000000E-01
  8.50000000E-01  8.50000000E-01  8.00000000E-01  8.50000000E-01  8.50000000E-01
  8.50000000E-01  8.00000000E-01  8.50000000E-01  8.50000000E-01  8.50000000E-01
  8.00000000E-01  8.50000000E-01  8.50000000E-01  8.50000000E-01  8.00000000E-01
  8.50000000E-01  8.50000000E-01  8.50000000E-01  8.00000000E-01  8.50000000E-01
  8.50000000E-01  8.50000000E-01  8.00000000E-01  8.50000000E-01  8.50000000E-01
  8.50000000E-01  8.00000000E-01  8.50000000E-01  8.50000000E-01  8.50000000E-01
  8.00000000E-01  8.50000000E-01  8.50000000E-01  8.50000000E-01  8.00000000E-01
  8.50000000E-01  8.50000000E-01  8.50000000E-01  8.00000000E-01  8.50000000E-01
  8.50000000E-01  8.50000000E-01  8.00000000E-01  8.50000000E-01  8.50000000E-01
  8.50000000E-01  8.00000000E-01  8.50000000E-01  8.50000000E-01  8.50000000E-01
  8.00000000E-01  8.50000000E-01  8.50000000E-01  8.50000000E-01  8.00000000E-01
  8.50000000E-01  8.50000000E-01  8.50000000E-01  8.00000000E-01  8.50000000E-01
  8.50000000E-01  8.50000000E-01  8.00000000E-01  8.50000000E-01  8.50000000E-01
  8.50000000E-01  8.00000000E-01  8.50000000E-01  8.50000000E-01  8.50000000E-01
  8.00000000E-01  8.50000000E-01  8.50000000E-01  8.50000000E-01  8.00000000E-01
  8.50000000E-01  8.50000000E-01  8.50000000E-01  8.00000000E-01  8.50000000E-01
  8.50000000E-01  8.50000000E-01  8.00000000E-01  8.50000000E-01  8.50000000E-01
  8.50000000E-01  8.00000000E-01  8.50000000E-01  8.50000000E-01  8.50000000E-01
  8.00000000E-01  8.50000000E-01  8.50000000E-01  8.50000000E-01  8.00000000E-01
  8.50000000E-01  8.50000000E-01  8.50000000E-01  8.00000000E-01  8.50000000E-01
  8.50000000E-01  8.50000000E-01  8.00000000E-01  8.50000000E-01  8.50000000E-01
  8.50000000E-01  8.00000000E-01  8.50000000E-01  8.50000000E-01  8.50000000E-01
  8.00000000E-01  8.50000000E-01  8.50000000E-01  8.50000000E-01  8.00000000E-01
  8.50000000E-01  8.50000000E-01  8.50000000E-01  8.00000000E-01  8.50000000E-01
  8.50000000E-01  8.50000000E-01  8.00000000E-01  8.50000000E-01  8.50000000E-01
  8.50000000E-01  8.00000000E-01  8.50000000E-01  8.50000000E-01  8.50000000E-01
  8.00000000E-01  8.50000000E-01  8.50000000E-01  8.50000000E-01  8.00000000E-01
  8.50000000E-01  8.50000000E-01  8.50000000E-01  8.00000000E-01  8.50000000E-01
  8.50000000E-01  8.50000000E-01  8.00000000E-01  8.50000000E-01  8.50000000E-01
  8.50000000E-01  8.00000000E-01  8.50000000E-01  8.50000000E-01  8.50000000E-01
  8.00000000E-01  8.50000000E-01  8.50000000E-01  8.50000000E-01  8.00000000E-01
  8.50000000E-01  8.50000000E-01  8.50000000E-01  8.00000000E-01  8.50000000E-01
  8.50000000E-01  8.50000000E-01  8.00000000E-01  8.50000000E-01  8.50000000E-01
  8.50000000E-01  8.00000000E-01  8.50000000E-01  8.50000000E-01  8.50000000E-01
  8.00000000E-01  8.50000000E-01  8.50000000E-01  8.50000000E-01  8.00000000E-01
  8.50000000E-01  8.50000000E-01  8.50000000E-01  8.00000000E-01  8.50000000E-01
  8.50000000E-01  8.50000000E-01  8.00000000E-01  8.50000000E-01  8.50000000E-01
  8.50000000E-01  8.00000000E-01  8.50000000E-01  8.50000000E-01  8.50000000E-01
  8.00000000E-01  8.50000000E-01  8.50000000E-01  8.50000000E-01  8.00000000E-01
  8.50000000E-01  8.50000000E-01  8.50000000E-01  8.00000000E-01  8.50000000E-01
  8.50000000E-01  8.50000000E-01  8.00000000E-01  8.50000000E-01  8.50000000E-01
  8.50000000E-01  8.00000000E-01  8.50000000E-01  8.50000000E-01  8.50000000E-01
  8.00000000E-01  8.50000000E-01  8.50000000E-01  8.50000000E-01  8.00000000E-01
  8.50000000E-01  8.50000000E-01  8.50000000E-01  8.00000000E-01  8.50000000E-01
  8.50000000E-01  8.50000000E-01  8.00000000E-01  8.50000000E-01  8.50000000E-01
  8.50000000E-01  8.00000000E-01  8.50000000E-01  8.50000000E-01  8.50000000E-01
  8.00000000E-01  8.50000000E-01  8.50000000E-01  8.50000000E-01  8.00000000E-01
  8.50000000E-01  8.50000000E-01  8.50000000E-01  8.00000000E-01  8.50000000E-01
  8.50000000E-01  8.50000000E-01  8.00000000E-01  8.50000000E-01  8.50000000E-01
  8.50000000E-01  8.00000000E-01  8.50000000E-01  8.50000000E-01  8.50000000E-01
  8.00000000E-01  8.50000000E-01  8.50000000E-01  8.50000000E-01  8.00000000E-01
  8.50000000E-01  8.50000000E-01  8.50000000E-01  8.00000000E-01  8.50000000E-01
  8.50000000E-01  8.50000000E-01  8.00000000E-01  8.50000000E-01  8.50000000E-01
  8.50000000E-01  8.00000000E-01  8.50000000E-01  8.50000000E-01  8.50000000E-01
  8.00000000E-01  8.50000000E-01  8.50000000E-01  8.50000000E-01  8.00000000E-01
  8.50000000E-01  8.50000000E-01  8.50000000E-01  8.00000000E-01  8.50000000E-01
  8.50000000E-01  8.50000000E-01  8.00000000E-01  8.50000000E-01  8.50000000E-01
  8.50000000E-01  8.00000000E-01  8.50000000E-01  8.50000000E-01  8.50000000E-01
  8.00000000E-01  8.50000000E-01  8.50000000E-01  8.50000000E-01  8.00000000E-01
  8.50000000E-01  8.50000000E-01  8.50000000E-01  8.00000000E-01  8.50000000E-01
  8.50000000E-01  8.50000000E-01  8.00000000E-01  8.50000000E-01  8.50000000E-01
  8.50000000E-01  8.00000000E-01  8.50000000E-01  8.50000000E-01  8.50000000E-01
  8.00000000E-01  8.50000000E-01  8.50000000E-01  8.50000000E-01  8.00000000E-01
  8.50000000E-01  8.50000000E-01  8.50000000E-01  8.00000000E-01  8.50000000E-01
  8.50000000E-01  8.50000000E-01  8.00000000E-01  8.50000000E-01  8.50000000E-01
  8.50000000E-01  8.00000000E-01  8.50000000E-01  8.50000000E-01  8.50000000E-01
  8.00000000E-01  8.50000000E-01  8.50000000E-01  8.50000000E-01  8.00000000E-01
  8.50000000E-01  8.50000000E-01  8.50000000E-01  8.00000000E-01  8.50000000E-01
  8.50000000E-01  8.50000000E-01  8.00000000E-01  8.50000000E-01  8.50000000E-01
  8.50000000E-01  8.00000000E-01  8.50000000E-01  8.50000000E-01  8.50000000E-01
  8.00000000E-01  8.50000000E-01  8.50000000E-01  8.50000000E-01  8.00000000E-01
  8.50000000E-01  8.50000000E-01  8.50000000E-01  8.00000000E-01  8.50000000E-01
  8.50000000E-01  8.50000000E-01  8.00000000E-01  8.50000000E-01  8.50000000E-01
  8.50000000E-01  8.00000000E-01  8.50000000E-01  8.50000000E-01  8.50000000E-01
  8.00000000E-01  8.50000000E-01  8.50000000E-01  8.50000000E-01  8.00000000E-01
  8.50000000E-01  8.50000000E-01  8.50000000E-01  8.00000000E-01  8.50000000E-01
  8.50000000E-01  8.50000000E-01  8.00000000E-01  8.50000000E-01  8.50000000E-01
  8.50000000E-01  8.00000000E-01  8.50000000E-01  8.50000000E-01  8.50000000E-01
  8.00000000E-01  8.50000000E-01  8.50000000E-01  8.50000000E-01  8.00000000E-01
  8.50000000E-01  8.50000000E-01  8.50000000E-01  8.00000000E-01  8.50000000E-01
  8.50000000E-01  8.50000000E-01  8.00000000E-01  8.50000000E-01  8.50000000E-01
  8.50000000E-01  8.00000000E-01  8.50000000E-01  8.50000000E-01  8.50000000E-01
  8.00000000E-01  8.50000000E-01  8.50000000E-01  8.50000000E-01  8.00000000E-01
  8.50000000E-01  8.50000000E-01  8.50000000E-01  8.00000000E-01  8.50000000E-01
  8.50000000E-01  8.50000000E-01  8.00000000E-01  8.50000000E-01  8.50000000E-01
  8.50000000E-01  8.00000000E-01  8.50000000E-01  8.50000000E-01  8.50000000E-01
  8.00000000E-01  8.50000000E-01  8.50000000E-01  8.50000000E-01  8.00000000E-01
  8.50000000E-01  8.50000000E-01  8.50000000E-01  8.00000000E-01  8.50000000E-01
  8.50000000E-01  8.50000000E-01  8.00000000E-01  8.50000000E-01  8.50000000E-01
  8.50000000E-01  8.00000000E-01  8.50000000E-01  8.50000000E-01  8.50000000E-01
  8.00000000E-01  8.50000000E-01  8.50000000E-01  8.50000000E-01  8.00000000E-01
  8.50000000E-01  8.50000000E-01  8.50000000E-01  8.00000000E-01  8.50000000E-01
  8.50000000E-01  8.50000000E-01  8.00000000E-01  8.50000000E-01  8.50000000E-01
  8.50000000E-01  8.00000000E-01  8.50000000E-01  8.50000000E-01  8.50000000E-01
  8.00000000E-01  8.50000000E-01  8.50000000E-01  8.50000000E-01  8.00000000E-01
  8.50000000E-01  8.50000000E-01  8.50000000E-01  8.00000000E-01  8.50000000E-01
  8.50000000E-01  8.50000000E-01  8.00000000E-01  8.50000000E-01  8.50000000E-01
  8.50000000E-01  8.00000000E-01  8.50000000E-01  8.50000000E-01  8.50000000E-01
  8.00000000E-01  8.50000000E-01  8.50000000E-01  8.50000000E-01  8.00000000E-01
  8.50000000E-01  8.50000000E-01  8.50000000E-01  8.00000000E-01  8.50000000E-01
  8.50000000E-01  8.50000000E-01  8.00000000E-01  8.50000000E-01  8.50000000E-01
  8.50000000E-01  8.00000000E-01  8.50000000E-01  8.50000000E-01  8.50000000E-01
  8.00000000E-01  8.50000000E-01  8.50000000E-01  8.50000000E-01  8.00000000E-01
  8.50000000E-01  8.50000000E-01  8.50000000E-01  8.00000000E-01  8.50000000E-01
  8.50000000E-01  8.50000000E-01  8.00000000E-01  8.50000000E-01  8.50000000E-01
  8.50000000E-01  8.00000000E-01  8.50000000E-01  8.50000000E-01  8.50000000E-01
  8.00000000E-01  8.50000000E-01  8.50000000E-01  8.50000000E-01  8.00000000E-01
  8.50000000E-01  8.50000000E-01  8.50000000E-01  8.00000000E-01  8.50000000E-01
  8.50000000E-01  8.50000000E-01  8.00000000E-01  8.50000000E-01  8.50000000E-01
  8.50000000E-01  8.00000000E-01  8.50000000E-01  8.50000000E-01  8.50000000E-01
  8.00000000E-01  8.50000000E-01  8.50000000E-01  8.50000000E-01  8.00000000E-01
  8.50000000E-01  8.50000000E-01  8.50000000E-01  8.00000000E-01  8.50000000E-01
  8.50000000E-01  8.50000000E-01  8.00000000E-01  8.50000000E-01  8.50000000E-01
  8.50000000E-01  8.00000000E-01  8.50000000E-01  8.50000000E-01  8.50000000E-01
  8.00000000E-01  8.50000000E-01  8.50000000E-01  8.50000000E-01  8.00000000E-01
  8.50000000E-01  8.50000000E-01  8.50000000E-01  8.00000000E-01  8.50000000E-01
  8.50000000E-01  8.50000000E-01  8.00000000E-01  8.50000000E-01  8.50000000E-01
  8.50000000E-01  8.00000000E-01  8.50000000E-01  8.50000000E-01  8.50000000E-01
  8.00000000E-01  8.50000000E-01  8.50000000E-01  8.50000000E-01  8.00000000E-01
  8.50000000E-01  8.50000000E-01  8.50000000E-01  8.00000000E-01  8.50000000E-01
  8.50000000E-01  8.50000000E-01  8.00000000E-01  8.50000000E-01  8.50000000E-01
  8.50000000E-01  8.00000000E-01  8.50000000E-01  8.50000000E-01  8.50000000E-01
  8.00000000E-01  8.50000000E-01  8.50000000E-01  8.50000000E-01  8.00000000E-01
  8.50000000E-01  8.50000000E-01  8.50000000E-01  8.00000000E-01  8.50000000E-01
  8.50000000E-01  8.50000000E-01  8.00000000E-01  8.50000000E-01  8.50000000E-01
  8.50000000E-01  8.00000000E-01  8.50000000E-01  8.50000000E-01  8.50000000E-01
  8.00000000E-01  8.50000000E-01  8.50000000E-01  8.50000000E-01  8.00000000E-01
  8.50000000E-01  8.50000000E-01  8.50000000E-01  8.00000000E-01  8.50000000E-01
  8.50000000E-01  8.50000000E-01  8.00000000E-01  8.50000000E-01  8.50000000E-01
  8.50000000E-01  8.00000000E-01  8.50000000E-01  8.50000000E-01  8.50000000E-01
  8.00000000E-01  8.50000000E-01  8.50000000E-01  8.50000000E-01  8.00000000E-01
  8.50000000E-01  8.50000000E-01  8.50000000E-01  8.00000000E-01  8.50000000E-01
  8.50000000E-01  8.50000000E-01  8.00000000E-01  8.50000000E-01  8.50000000E-01
  8.50000000E-01  8.00000000E-01  8.50000000E-01  8.50000000E-01  8.50000000E-01
  8.00000000E-01  8.50000000E-01  8.50000000E-01  8.50000000E-01  8.00000000E-01
  8.50000000E-01  8.50000000E-01  8.50000000E-01  8.00000000E-01  8.50000000E-01
  8.50000000E-01  8.50000000E-01  8.00000000E-01  8.50000000E-01  8.50000000E-01
  8.50000000E-01  8.00000000E-01  8.50000000E-01  8.50000000E-01  8.50000000E-01
  8.00000000E-01  8.50000000E-01  8.50000000E-01  8.50000000E-01  8.00000000E-01
  8.50000000E-01  8.50000000E-01  8.50000000E-01  8.00000000E-01  8.50000000E-01
  8.50000000E-01  8.50000000E-01  8.00000000E-01  8.50000000E-01  8.50000000E-01
  8.50000000E-01  8.00000000E-01  8.50000000E-01  8.50000000E-01  8.50000000E-01
  8.00000000E-01  8.50000000E-01  8.50000000E-01  8.50000000E-01  8.00000000E-01
  8.50000000E-01  8.50000000E-01  8.50000000E-01  8.00000000E-01  8.50000000E-01
  8.50000000E-01  8.50000000E-01  8.00000000E-01  8.50000000E-01  8.50000000E-01
  8.50000000E-01  8.00000000E-01  8.50000000E-01  8.50000000E-01  8.50000000E-01
  8.00000000E-01  8.50000000E-01  8.50000000E-01  8.50000000E-01  8.00000000E-01
  8.50000000E-01  8.50000000E-01  8.50000000E-01  8.00000000E-01  8.50000000E-01
  8.50000000E-01  8.50000000E-01  8.00000000E-01  8.50000000E-01  8.50000000E-01
  8.50000000E-01  8.00000000E-01  8.50000000E-01  8.50000000E-01  8.50000000E-01
  8.00000000E-01  8.50000000E-01  8.50000000E-01  8.50000000E-01  8.00000000E-01
  8.50000000E-01  8.50000000E-01  8.50000000E-01  8.00000000E-01  8.50000000E-01
  8.50000000E-01  8.50000000E-01  8.00000000E-01  8.50000000E-01  8.50000000E-01
  8.50000000E-01  8.00000000E-01  8.50000000E-01  8.50000000E-01  8.50000000E-01
  8.00000000E-01  8.50000000E-01  8.50000000E-01  8.50000000E-01  8.00000000E-01
  8.50000000E-01  8.50000000E-01  8.50000000E-01  8.00000000E-01  8.50000000E-01
  8.50000000E-01  8.50000000E-01  8.00000000E-01  8.50000000E-01  8.50000000E-01
  8.50000000E-01  8.00000000E-01  8.50000000E-01  8.50000000E-01  8.50000000E-01
  8.00000000E-01  8.50000000E-01  8.50000000E-01  8.50000000E-01  8.00000000E-01
  8.50000000E-01  8.50000000E-01  8.50000000E-01  8.00000000E-01  8.50000000E-01
  8.50000000E-01  8.50000000E-01  8.00000000E-01  8.50000000E-01  8.50000000E-01
  8.50000000E-01  8.00000000E-01  8.50000000E-01  8.50000000E-01  8.50000000E-01
  8.00000000E-01  8.50000000E-01  8.50000000E-01  8.50000000E-01  8.00000000E-01
  8.50000000E-01  8.50000000E-01  8.50000000E-01  8.00000000E-01  8.50000000E-01
  8.50000000E-01  8.50000000E-01  8.00000000E-01  8.50000000E-01  8.50000000E-01
  8.50000000E-01  8.00000000E-01  8.50000000E-01  8.50000000E-01  8.50000000E-01
  8.00000000E-01  8.50000000E-01  8.50000000E-01  8.50000000E-01  8.00000000E-01
  8.50000000E-01  8.50000000E-01  8.50000000E-01  8.00000000E-01  8.50000000E-01
  8.50000000E-01  8.50000000E-01  8.00000000E-01  8.50000000E-01  8.50000000E-01
  8.50000000E-01  8.00000000E-01  8.50000000E-01  8.50000000E-01  8.50000000E-01
  8.00000000E-01  8.50000000E-01  8.50000000E-01  8.50000000E-01  8.00000000E-01
  8.50000000E-01  8.50000000E-01  8.50000000E-01  8.00000000E-01  8.50000000E-01
  8.50000000E-01  8.50000000E-01  8.00000000E-01  8.50000000E-01  8.50000000E-01
  8.50000000E-01  8.00000000E-01  8.50000000E-01  8.50000000E-01  8.50000000E-01
  8.00000000E-01  8.50000000E-01  8.50000000E-01  8.50000000E-01  8.00000000E-01
  8.50000000E-01  8.50000000E-01  8.50000000E-01  8.00000000E-01  8.50000000E-01
  8.50000000E-01  8.50000000E-01  8.00000000E-01  8.50000000E-01  8.50000000E-01
  8.50000000E-01  8.00000000E-01  8.50000000E-01  8.50000000E-01  8.50000000E-01
  8.00000000E-01  8.50000000E-01  8.50000000E-01  8.50000000E-01  8.00000000E-01
  8.50000000E-01  8.50000000E-01  8.50000000E-01  8.00000000E-01  8.50000000E-01
  8.50000000E-01  8.50000000E-01  8.00000000E-01  8.50000000E-01  8.50000000E-01
  8.50000000E-01  8.00000000E-01  8.50000000E-01  8.50000000E-01  8.50000000E-01
  8.00000000E-01  8.50000000E-01  8.50000000E-01  8.50000000E-01  8.00000000E-01
  8.50000000E-01  8.50000000E-01  8.50000000E-01  8.00000000E-01  8.50000000E-01
  8.50000000E-01  8.50000000E-01  8.00000000E-01  8.50000000E-01  8.50000000E-01
  8.50000000E-01  8.00000000E-01  8.50000000E-01  8.50000000E-01  8.50000000E-01
  8.00000000E-01  8.50000000E-01  8.50000000E-01  8.50000000E-01  8.00000000E-01
  8.50000000E-01  8.50000000E-01  8.50000000E-01  8.00000000E-01  8.50000000E-01
  8.50000000E-01  8.50000000E-01  8.00000000E-01  8.50000000E-01  8.50000000E-01
  8.50000000E-01  8.00000000E-01  8.50000000E-01  8.50000000E-01  8.50000000E-01
  8.00000000E-01  8.50000000E-01  8.50000000E-01  8.50000000E-01  8.00000000E-01
  8.50000000E-01  8.50000000E-01  8.50000000E-01  8.00000000E-01  8.50000000E-01
  8.50000000E-01  8.50000000E-01  8.00000000E-01  8.50000000E-01  8.50000000E-01
  8.50000000E-01  8.00000000E-01  8.50000000E-01  8.50000000E-01  8.50000000E-01
  8.00000000E-01  8.50000000E-01  8.50000000E-01  8.50000000E-01  8.00000000E-01
  8.50000000E-01  8.50000000E-01  8.50000000E-01  8.00000000E-01  8.50000000E-01
  8.50000000E-01  8.50000000E-01  8.00000000E-01  8.50000000E-01  8.50000000E-01
  8.50000000E-01  8.00000000E-01  8.50000000E-01  8.50000000E-01  8.50000000E-01
  8.00000000E-01  8.50000000E-01  8.50000000E-01  8.50000000E-01  8.00000000E-01
  8.50000000E-01  8.50000000E-01  8.50000000E-01  8.00000000E-01  8.50000000E-01
  8.50000000E-01  8.50000000E-01  8.00000000E-01  8.50000000E-01  8.50000000E-01
  8.50000000E-01  8.00000000E-01  8.50000000E-01  8.50000000E-01  8.50000000E-01
  8.00000000E-01  8.50000000E-01  8.50000000E-01  8.50000000E-01  8.00000000E-01
  8.50000000E-01  8.50000000E-01  8.50000000E-01  8.00000000E-01  8.50000000E-01
  8.50000000E-01  8.50000000E-01  8.00000000E-01  8.50000000E-01  8.50000000E-01
  8.50000000E-01  8.00000000E-01  8.50000000E-01  8.50000000E-01  8.50000000E-01
  8.00000000E-01  8.50000000E-01  8.50000000E-01  8.50000000E-01  8.00000000E-01
  8.50000000E-01  8.50000000E-01  8.50000000E-01  8.00000000E-01  8.50000000E-01
  8.50000000E-01  8.50000000E-01  8.00000000E-01  8.50000000E-01  8.50000000E-01
  8.50000000E-01  8.00000000E-01  8.50000000E-01  8.50000000E-01  8.50000000E-01
  8.00000000E-01  8.50000000E-01  8.50000000E-01  8.50000000E-01  8.00000000E-01
  8.50000000E-01  8.50000000E-01  8.50000000E-01  8.00000000E-01  8.50000000E-01
  8.50000000E-01  8.50000000E-01  8.00000000E-01  8.50000000E-01  8.50000000E-01
  8.50000000E-01  8.00000000E-01  8.50000000E-01  8.50000000E-01  8.50000000E-01
  8.00000000E-01  8.50000000E-01  8.50000000E-01  8.50000000E-01  8.00000000E-01
  8.50000000E-01  8.50000000E-01  8.50000000E-01  8.00000000E-01  8.50000000E-01
  8.50000000E-01  8.50000000E-01  8.00000000E-01  8.50000000E-01  8.50000000E-01
  8.50000000E-01  8.00000000E-01  8.50000000E-01  8.50000000E-01  8.50000000E-01
  8.00000000E-01  8.50000000E-01  8.50000000E-01  8.50000000E-01  8.00000000E-01
  8.50000000E-01  8.50000000E-01  8.50000000E-01  8.00000000E-01  8.50000000E-01
  8.50000000E-01  8.50000000E-01  8.00000000E-01  8.50000000E-01  8.50000000E-01
  8.50000000E-01  8.00000000E-01  8.50000000E-01  8.50000000E-01  8.50000000E-01
  8.00000000E-01  8.50000000E-01  8.50000000E-01  8.50000000E-01  8.00000000E-01
  8.50000000E-01  8.50000000E-01  8.50000000E-01  8.00000000E-01  8.50000000E-01
  8.50000000E-01  8.50000000E-01  8.00000000E-01  8.50000000E-01  8.50000000E-01
  8.50000000E-01  8.00000000E-01  8.50000000E-01  8.50000000E-01  8.50000000E-01
  8.00000000E-01  8.50000000E-01  8.50000000E-01  8.50000000E-01  8.00000000E-01
  8.50000000E-01  8.50000000E-01  8.50000000E-01  8.00000000E-01  8.50000000E-01
  8.50000000E-01  8.50000000E-01  8.00000000E-01  8.50000000E-01  8.50000000E-01
  8.50000000E-01  8.00000000E-01  8.50000000E-01  8.50000000E-01  8.50000000E-01
  8.00000000E-01  8.50000000E-01  8.50000000E-01  8.50000000E-01  8.00000000E-01
  8.50000000E-01  8.50000000E-01  8.50000000E-01  8.00000000E-01  8.50000000E-01
  8.50000000E-01  8.50000000E-01  8.00000000E-01  8.50000000E-01  8.50000000E-01
  8.50000000E-01  8.00000000E-01  8.50000000E-01  8.50000000E-01  8.50000000E-01
  8.00000000E-01  8.50000000E-01  8.50000000E-01  8.50000000E-01  8.00000000E-01
  8.50000000E-01  8.50000000E-01  8.50000000E-01  8.00000000E-01  8.50000000E-01
  8.50000000E-01  8.50000000E-01  8.00000000E-01  8.50000000E-01  8.50000000E-01
  8.50000000E-01  8.00000000E-01  8.50000000E-01  8.50000000E-01  8.50000000E-01
  8.00000000E-01  8.50000000E-01  8.50000000E-01  8.50000000E-01  8.00000000E-01
  8.50000000E-01  8.50000000E-01  8.50000000E-01  8.00000000E-01  8.50000000E-01
  8.50000000E-01  8.50000000E-01  8.00000000E-01  8.50000000E-01  8.50000000E-01
  8.50000000E-01  8.00000000E-01  8.50000000E-01  8.50000000E-01  8.50000000E-01
  8.00000000E-01  8.50000000E-01  8.50000000E-01  8.50000000E-01  8.00000000E-01
  8.50000000E-01  8.50000000E-01  8.50000000E-01  8.00000000E-01  8.50000000E-01
  8.50000000E-01  8.50000000E-01  8.00000000E-01  8.50000000E-01  8.50000000E-01
  8.50000000E-01  8.00000000E-01  8.50000000E-01  8.50000000E-01  8.50000000E-01
  8.00000000E-01  8.50000000E-01  8.50000000E-01  8.50000000E-01  8.00000000E-01
  8.50000000E-01  8.50000000E-01  8.50000000E-01  8.00000000E-01  8.50000000E-01
  8.50000000E-01  8.50000000E-01  8.00000000E-01  8.50000000E-01  8.50000000E-01
  8.50000000E-01  8.00000000E-01  8.50000000E-01  8.50000000E-01  8.50000000E-01
  8.00000000E-01  8.50000000E-01  8.50000000E-01  8.50000000E-01  8.00000000E-01
  8.50000000E-01  8.50000000E-01  8.50000000E-01  8.00000000E-01  8.50000000E-01
  8.50000000E-01  8.50000000E-01  8.00000000E-01  8.50000000E-01  8.50000000E-01
  8.50000000E-01  8.00000000E-01  8.50000000E-01  8.50000000E-01  8.50000000E-01
  8.00000000E-01  8.50000000E-01  8.50000000E-01  8.50000000E-01  8.00000000E-01
  8.50000000E-01  8.50000000E-01  8.50000000E-01  8.00000000E-01  8.50000000E-01
  8.50000000E-01  8.50000000E-01  8.00000000E-01  8.50000000E-01  8.50000000E-01
  8.50000000E-01  8.00000000E-01  8.50000000E-01  8.50000000E-01  8.50000000E-01
  8.00000000E-01  8.50000000E-01  8.50000000E-01  8.50000000E-01  8.00000000E-01
  8.50000000E-01  8.50000000E-01  8.50000000E-01  8.00000000E-01  8.50000000E-01
  8.50000000E-01  8.50000000E-01  8.00000000E-01  8.50000000E-01  8.50000000E-01
  8.50000000E-01  8.00000000E-01  8.50000000E-01  8.50000000E-01  8.50000000E-01
  8.00000000E-01  8.50000000E-01  8.50000000E-01  8.50000000E-01  8.00000000E-01
  8.50000000E-01  8.50000000E-01  8.50000000E-01  8.00000000E-01  8.50000000E-01
  8.50000000E-01  8.50000000E-01  8.00000000E-01  8.50000000E-01  8.50000000E-01
  8.50000000E-01  8.00000000E-01  8.50000000E-01  8.50000000E-01  8.50000000E-01
  8.00000000E-01  8.50000000E-01  8.50000000E-01  8.50000000E-01  8.00000000E-01
  8.50000000E-01  8.50000000E-01  8.50000000E-01  8.00000000E-01  8.50000000E-01
  8.50000000E-01  8.50000000E-01  8.00000000E-01  8.50000000E-01  8.50000000E-01
  8.50000000E-01  8.00000000E-01  8.50000000E-01  8.50000000E-01  8.50000000E-01
  8.00000000E-01  8.50000000E-01  8.50000000E-01  8.50000000E-01  8.00000000E-01
  8.50000000E-01  8.50000000E-01  8.50000000E-01  8.00000000E-01  8.50000000E-01
  8.50000000E-01  8.50000000E-01  8.00000000E-01  8.50000000E-01  8.50000000E-01
  8.50000000E-01  8.00000000E-01  8.50000000E-01  8.50000000E-01  8.50000000E-01
  8.00000000E-01  8.50000000E-01  8.50000000E-01  8.50000000E-01  8.00000000E-01
  8.50000000E-01  8.50000000E-01  8.50000000E-01  8.00000000E-01  8.50000000E-01
  8.50000000E-01  8.50000000E-01  8.00000000E-01  8.50000000E-01  8.50000000E-01
  8.50000000E-01  8.00000000E-01  8.50000000E-01  8.50000000E-01  8.50000000E-01
  8.00000000E-01  8.50000000E-01  8.50000000E-01  8.50000000E-01  8.00000000E-01
  8.50000000E-01  8.50000000E-01  8.50000000E-01  8.00000000E-01  8.50000000E-01
  8.50000000E-01  8.50000000E-01  8.00000000E-01  8.50000000E-01  8.50000000E-01
  8.50000000E-01  8.00000000E-01  8.50000000E-01  8.50000000E-01  8.50000000E-01
  8.00000000E-01  8.50000000E-01  8.50000000E-01  8.50000000E-01  8.00000000E-01
  8.50000000E-01  8.50000000E-01  8.50000000E-01  8.00000000E-01  8.50000000E-01
  8.50000000E-01  8.50000000E-01  8.00000000E-01  8.50000000E-01  8.50000000E-01
  8.50000000E-01  8.00000000E-01  8.50000000E-01  8.50000000E-01  8.50000000E-01
  8.00000000E-01  8.50000000E-01  8.50000000E-01  8.50000000E-01  8.00000000E-01
  8.50000000E-01  8.50000000E-01  8.50000000E-01  8.00000000E-01  8.50000000E-01
  8.50000000E-01  8.50000000E-01  8.00000000E-01  8.50000000E-01  8.50000000E-01
  8.50000000E-01  8.00000000E-01  8.50000000E-01  8.50000000E-01  8.50000000E-01
  8.00000000E-01  8.50000000E-01  8.50000000E-01  8.50000000E-01  8.00000000E-01
  8.50000000E-01  8.50000000E-01  8.50000000E-01  8.00000000E-01  8.50000000E-01
  8.50000000E-01  8.50000000E-01  8.00000000E-01  8.50000000E-01  8.50000000E-01
  8.50000000E-01  8.00000000E-01  8.50000000E-01  8.50000000E-01  8.50000000E-01
  8.00000000E-01  8.50000000E-01  8.50000000E-01  8.50000000E-01  8.00000000E-01
  8.50000000E-01  8.50000000E-01  8.50000000E-01  8.00000000E-01  8.50000000E-01
  8.50000000E-01  8.50000000E-01  8.00000000E-01  8.50000000E-01  8.50000000E-01
  8.50000000E-01  8.00000000E-01  8.50000000E-01  8.50000000E-01  8.50000000E-01
  8.00000000E-01  8.50000000E-01  8.50000000E-01  8.50000000E-01  8.00000000E-01
  8.50000000E-01  8.50000000E-01  8.50000000E-01  8.00000000E-01  8.50000000E-01
  8.50000000E-01  8.50000000E-01  8.00000000E-01  8.50000000E-01  8.50000000E-01
  8.50000000E-01  8.00000000E-01  8.50000000E-01  8.50000000E-01  8.50000000E-01
  8.00000000E-01  8.50000000E-01  8.50000000E-01  8.50000000E-01  8.00000000E-01
  8.50000000E-01  8.50000000E-01  8.50000000E-01  8.00000000E-01  8.50000000E-01
  8.50000000E-01  8.50000000E-01  8.00000000E-01  8.50000000E-01  8.50000000E-01
  8.50000000E-01  8.00000000E-01  8.50000000E-01  8.50000000E-01  8.50000000E-01
  8.00000000E-01  8.50000000E-01  8.50000000E-01  8.50000000E-01  8.00000000E-01
  8.50000000E-01  8.50000000E-01  8.50000000E-01  8.00000000E-01  8.50000000E-01
  8.50000000E-01  8.50000000E-01  8.00000000E-01  8.50000000E-01  8.50000000E-01
  8.50000000E-01  8.00000000E-01  8.50000000E-01  8.50000000E-01  8.50000000E-01
  8.00000000E-01  8.50000000E-01  8.50000000E-01  8.50000000E-01  8.00000000E-01
  8.50000000E-01  8.50000000E-01  8.50000000E-01  8.00000000E-01  8.50000000E-01
  8.50000000E-01  8.50000000E-01  8.00000000E-01  8.50000000E-01  8.50000000E-01
  8.50000000E-01  8.00000000E-01  8.50000000E-01  8.50000000E-01  8.50000000E-01
  8.00000000E-01  8.50000000E-01  8.50000000E-01  8.50000000E-01  8.00000000E-01
  8.50000000E-01  8.50000000E-01  8.50000000E-01  8.00000000E-01  8.50000000E-01
  8.50000000E-01  8.50000000E-01  8.00000000E-01  8.50000000E-01  8.50000000E-01
  8.50000000E-01  8.00000000E-01  8.50000000E-01  8.50000000E-01  8.50000000E-01
  8.00000000E-01  8.50000000E-01  8.50000000E-01  8.50000000E-01  8.00000000E-01
  8.50000000E-01  8.50000000E-01  8.50000000E-01  8.00000000E-01  8.50000000E-01
  8.50000000E-01  8.50000000E-01  8.00000000E-01  8.50000000E-01  8.50000000E-01
  8.50000000E-01  8.00000000E-01  8.50000000E-01  8.50000000E-01  8.50000000E-01
  8.00000000E-01  8.50000000E-01  8.50000000E-01  8.50000000E-01  8.00000000E-01
  8.50000000E-01  8.50000000E-01  8.50000000E-01  8.00000000E-01  8.50000000E-01
  8.50000000E-01  8.50000000E-01  8.00000000E-01  8.50000000E-01  8.50000000E-01
  8.50000000E-01  8.00000000E-01  8.50000000E-01  8.50000000E-01  8.50000000E-01
  8.00000000E-01  8.50000000E-01  8.50000000E-01  8.50000000E-01  8.00000000E-01
  8.50000000E-01  8.50000000E-01  8.50000000E-01  8.00000000E-01  8.50000000E-01
  8.50000000E-01  8.50000000E-01  8.00000000E-01  8.50000000E-01  8.50000000E-01
  8.50000000E-01  8.00000000E-01  8.50000000E-01  8.50000000E-01  8.50000000E-01
  8.00000000E-01  8.50000000E-01  8.50000000E-01  8.50000000E-01  8.00000000E-01
  8.50000000E-01  8.50000000E-01  8.50000000E-01  8.00000000E-01  8.50000000E-01
  8.50000000E-01  8.50000000E-01  8.00000000E-01  8.50000000E-01  8.50000000E-01
  8.50000000E-01  8.00000000E-01  8.50000000E-01  8.50000000E-01  8.50000000E-01
  8.00000000E-01  8.50000000E-01  8.50000000E-01  8.50000000E-01  8.00000000E-01
  8.50000000E-01  8.50000000E-01  8.50000000E-01  8.00000000E-01  8.50000000E-01
  8.50000000E-01  8.50000000E-01  8.00000000E-01  8.50000000E-01  8.50000000E-01
  8.50000000E-01  8.00000000E-01  8.50000000E-01  8.50000000E-01  8.50000000E-01
  8.00000000E-01  8.50000000E-01  8.50000000E-01  8.50000000E-01  8.00000000E-01
  8.50000000E-01  8.50000000E-01  8.50000000E-01  8.00000000E-01  8.50000000E-01
  8.50000000E-01  8.50000000E-01  8.00000000E-01  8.50000000E-01  8.50000000E-01
  8.50000000E-01  8.00000000E-01  8.50000000E-01  8.50000000E-01  8.50000000E-01
  8.00000000E-01  8.50000000E-01  8.50000000E-01  8.50000000E-01  8.00000000E-01
  8.50000000E-01  8.50000000E-01  8.50000000E-01  8.00000000E-01  8.50000000E-01
  8.50000000E-01  8.50000000E-01  8.00000000E-01  8.50000000E-01  8.50000000E-01
  8.50000000E-01  8.00000000E-01  8.50000000E-01  8.50000000E-01  8.50000000E-01
  8.00000000E-01  8.50000000E-01  8.50000000E-01  8.50000000E-01  8.00000000E-01
  8.50000000E-01  8.50000000E-01  8.50000000E-01  8.00000000E-01  8.50000000E-01
  8.50000000E-01  8.50000000E-01  8.00000000E-01  8.50000000E-01  8.50000000E-01
  8.50000000E-01  8.00000000E-01  8.50000000E-01  8.50000000E-01  8.50000000E-01
  8.00000000E-01  8.50000000E-01  8.50000000E-01  8.50000000E-01  8.00000000E-01
  8.50000000E-01  8.50000000E-01  8.50000000E-01  8.00000000E-01  8.50000000E-01
  8.50000000E-01  8.50000000E-01  8.00000000E-01  8.50000000E-01  8.50000000E-01
  8.50000000E-01  8.00000000E-01  8.50000000E-01  8.50000000E-01  8.50000000E-01
  8.00000000E-01  8.50000000E-01  8.50000000E-01  8.50000000E-01  8.00000000E-01
  8.50000000E-01  8.50000000E-01  8.50000000E-01  8.00000000E-01  8.50000000E-01
  8.50000000E-01  8.50000000E-01  8.00000000E-01  8.50000000E-01  8.50000000E-01
  8.50000000E-01  8.00000000E-01  8.50000000E-01  8.50000000E-01  8.50000000E-01
  8.00000000E-01  8.50000000E-01  8.50000000E-01  8.50000000E-01  8.00000000E-01
  8.50000000E-01  8.50000000E-01  8.50000000E-01  8.00000000E-01  8.50000000E-01
  8.50000000E-01  8.50000000E-01  8.00000000E-01  8.50000000E-01  8.50000000E-01
  8.50000000E-01  8.00000000E-01  8.50000000E-01  8.50000000E-01  8.50000000E-01
  8.00000000E-01  8.50000000E-01  8.50000000E-01  8.50000000E-01  8.00000000E-01
  8.50000000E-01  8.50000000E-01  8.50000000E-01  8.00000000E-01  8.50000000E-01
  8.50000000E-01  8.50000000E-01  8.00000000E-01  8.50000000E-01  8.50000000E-01
  8.50000000E-01  8.00000000E-01  8.50000000E-01  8.50000000E-01  8.50000000E-01
  8.00000000E-01  8.50000000E-01  8.50000000E-01  8.50000000E-01  8.00000000E-01
  8.50000000E-01  8.50000000E-01  8.50000000E-01  8.00000000E-01  8.50000000E-01
  8.50000000E-01  8.50000000E-01  8.00000000E-01  8.50000000E-01  8.50000000E-01
  8.50000000E-01  8.00000000E-01  8.50000000E-01  8.50000000E-01  8.50000000E-01
  8.00000000E-01  8.50000000E-01  8.50000000E-01  8.50000000E-01  8.00000000E-01
  8.50000000E-01  8.50000000E-01  8.50000000E-01  8.00000000E-01  8.50000000E-01
  8.50000000E-01  8.50000000E-01  8.00000000E-01  8.50000000E-01  8.50000000E-01
  8.50000000E-01  8.00000000E-01  8.50000000E-01  8.50000000E-01  8.50000000E-01
  8.00000000E-01  8.50000000E-01  8.50000000E-01  8.50000000E-01  8.00000000E-01
  8.50000000E-01  8.50000000E-01  8.50000000E-01  8.00000000E-01  8.50000000E-01
  8.50000000E-01  8.50000000E-01  8.00000000E-01  8.50000000E-01  8.50000000E-01
  8.50000000E-01  8.00000000E-01  8.50000000E-01  8.50000000E-01  8.50000000E-01
  8.00000000E-01  8.50000000E-01  8.50000000E-01  8.50000000E-01  8.00000000E-01
  8.50000000E-01  8.50000000E-01  8.50000000E-01  8.00000000E-01  8.50000000E-01
  8.50000000E-01  8.50000000E-01  8.00000000E-01  8.50000000E-01  8.50000000E-01
  8.50000000E-01  8.00000000E-01  8.50000000E-01  8.50000000E-01  8.50000000E-01
  8.00000000E-01  8.50000000E-01  8.50000000E-01  8.50000000E-01  8.00000000E-01
  8.50000000E-01  8.50000000E-01  8.50000000E-01  8.00000000E-01  8.50000000E-01
  8.50000000E-01  8.50000000E-01  8.00000000E-01  8.50000000E-01  8.50000000E-01
  8.50000000E-01  8.00000000E-01  8.50000000E-01  8.50000000E-01  8.50000000E-01
  8.00000000E-01  8.50000000E-01  8.50000000E-01  8.50000000E-01  8.00000000E-01
  8.50000000E-01  8.50000000E-01  8.50000000E-01  8.00000000E-01  8.50000000E-01
  8.50000000E-01  8.50000000E-01  8.00000000E-01  8.50000000E-01  8.50000000E-01
  8.50000000E-01  8.00000000E-01  8.50000000E-01  8.50000000E-01  8.50000000E-01
  8.00000000E-01  8.50000000E-01  8.50000000E-01  8.50000000E-01  8.00000000E-01
  8.50000000E-01  8.50000000E-01  8.50000000E-01  8.00000000E-01  8.50000000E-01
  8.50000000E-01  8.50000000E-01  8.00000000E-01  8.50000000E-01  8.50000000E-01
  8.50000000E-01  8.00000000E-01  8.50000000E-01  8.50000000E-01  8.50000000E-01
  8.00000000E-01  8.50000000E-01  8.50000000E-01  8.50000000E-01  8.00000000E-01
  8.50000000E-01  8.50000000E-01  8.50000000E-01  8.00000000E-01  8.50000000E-01
  8.50000000E-01  8.50000000E-01  8.00000000E-01  8.50000000E-01  8.50000000E-01
  8.50000000E-01  8.00000000E-01  8.50000000E-01  8.50000000E-01  8.50000000E-01
  8.00000000E-01  8.50000000E-01  8.50000000E-01  8.50000000E-01  8.00000000E-01
  8.50000000E-01  8.50000000E-01  8.50000000E-01  8.00000000E-01  8.50000000E-01
  8.50000000E-01  8.50000000E-01  8.00000000E-01  8.50000000E-01  8.50000000E-01
  8.50000000E-01  8.00000000E-01  8.50000000E-01  8.50000000E-01  8.50000000E-01
  8.00000000E-01  8.50000000E-01  8.50000000E-01  8.50000000E-01  8.00000000E-01
  8.50000000E-01  8.50000000E-01  8.50000000E-01  8.00000000E-01  8.50000000E-01
  8.50000000E-01  8.50000000E-01  8.00000000E-01  8.50000000E-01  8.50000000E-01
  8.50000000E-01  8.00000000E-01  8.50000000E-01  8.50000000E-01  8.50000000E-01
  8.00000000E-01  8.50000000E-01  8.50000000E-01  8.50000000E-01  8.00000000E-01
  8.50000000E-01  8.50000000E-01  8.50000000E-01  8.00000000E-01  8.50000000E-01
  8.50000000E-01  8.50000000E-01  8.00000000E-01  8.50000000E-01  8.50000000E-01
  8.50000000E-01  8.00000000E-01  8.50000000E-01  8.50000000E-01  8.50000000E-01
  8.00000000E-01  8.50000000E-01  8.50000000E-01  8.50000000E-01  8.00000000E-01
  8.50000000E-01  8.50000000E-01  8.50000000E-01  8.00000000E-01  8.50000000E-01
  8.50000000E-01  8.50000000E-01  8.00000000E-01  8.50000000E-01  8.50000000E-01
  8.50000000E-01  8.00000000E-01  8.50000000E-01  8.50000000E-01  8.50000000E-01
  8.00000000E-01  8.50000000E-01  8.50000000E-01  8.50000000E-01  8.00000000E-01
  8.50000000E-01  8.50000000E-01  8.50000000E-01  8.00000000E-01  8.50000000E-01
  8.50000000E-01  8.50000000E-01  8.00000000E-01  8.50000000E-01  8.50000000E-01
  8.50000000E-01  8.00000000E-01  8.50000000E-01  8.50000000E-01  8.50000000E-01
  8.00000000E-01  8.50000000E-01  8.50000000E-01  8.50000000E-01  8.00000000E-01
  8.50000000E-01  8.50000000E-01  8.50000000E-01  8.00000000E-01  8.50000000E-01
  8.50000000E-01  8.50000000E-01  8.00000000E-01  8.50000000E-01  8.50000000E-01
  8.50000000E-01  8.00000000E-01  8.50000000E-01  8.50000000E-01  8.50000000E-01
  8.00000000E-01  8.50000000E-01  8.50000000E-01  8.50000000E-01  8.00000000E-01
  8.50000000E-01  8.50000000E-01  8.50000000E-01  8.00000000E-01  8.50000000E-01
  8.50000000E-01  8.50000000E-01  8.00000000E-01  8.50000000E-01  8.50000000E-01
  8.50000000E-01  8.00000000E-01  8.50000000E-01  8.50000000E-01  8.50000000E-01
  8.00000000E-01  8.50000000E-01  8.50000000E-01  8.50000000E-01  8.00000000E-01
  8.50000000E-01  8.50000000E-01  8.50000000E-01  8.00000000E-01  8.50000000E-01
  8.50000000E-01  8.50000000E-01  8.00000000E-01  8.50000000E-01  8.50000000E-01
  8.50000000E-01  8.00000000E-01  8.50000000E-01  8.50000000E-01  8.50000000E-01
  8.00000000E-01  8.50000000E-01  8.50000000E-01  8.50000000E-01  8.00000000E-01
  8.50000000E-01  8.50000000E-01  8.50000000E-01  8.00000000E-01  8.50000000E-01
  8.50000000E-01  8.50000000E-01  8.00000000E-01  8.50000000E-01  8.50000000E-01
  8.50000000E-01  8.00000000E-01  8.50000000E-01  8.50000000E-01  8.50000000E-01
  8.00000000E-01  8.50000000E-01  8.50000000E-01  8.50000000E-01  8.00000000E-01
  8.50000000E-01  8.50000000E-01  8.50000000E-01  8.00000000E-01  8.50000000E-01
  8.50000000E-01  8.50000000E-01  8.00000000E-01  8.50000000E-01  8.50000000E-01
  8.50000000E-01  8.00000000E-01  8.50000000E-01  8.50000000E-01  8.50000000E-01
  8.00000000E-01  8.50000000E-01  8.50000000E-01  8.50000000E-01  8.00000000E-01
  8.50000000E-01  8.50000000E-01  8.50000000E-01  8.00000000E-01  8.50000000E-01
  8.50000000E-01  8.50000000E-01  8.00000000E-01  8.50000000E-01  8.50000000E-01
  8.50000000E-01  8.00000000E-01  8.50000000E-01  8.50000000E-01  8.50000000E-01
  8.00000000E-01  8.50000000E-01  8.50000000E-01  8.50000000E-01  8.00000000E-01
  8.50000000E-01  8.50000000E-01  8.50000000E-01  8.00000000E-01  8.50000000E-01
  8.50000000E-01  8.50000000E-01  8.00000000E-01  8.50000000E-01  8.50000000E-01
  8.50000000E-01  8.00000000E-01  8.50000000E-01  8.50000000E-01  8.50000000E-01
  8.00000000E-01  8.50000000E-01  8.50000000E-01  8.50000000E-01  8.00000000E-01
  8.50000000E-01  8.50000000E-01  8.50000000E-01  8.00000000E-01  8.50000000E-01
  8.50000000E-01  8.50000000E-01  8.00000000E-01  8.50000000E-01  8.50000000E-01
  8.50000000E-01  8.00000000E-01  8.50000000E-01  8.50000000E-01  8.50000000E-01
  8.00000000E-01  8.50000000E-01  8.50000000E-01  8.50000000E-01  8.00000000E-01
  8.50000000E-01  8.50000000E-01  8.50000000E-01  8.00000000E-01  8.50000000E-01
  8.50000000E-01  8.50000000E-01  8.00000000E-01  8.50000000E-01  8.50000000E-01
  8.50000000E-01  8.00000000E-01  8.50000000E-01  8.50000000E-01  8.50000000E-01
  8.00000000E-01  8.50000000E-01  8.50000000E-01  8.50000000E-01  8.00000000E-01
  8.50000000E-01  8.50000000E-01  8.50000000E-01  8.00000000E-01  8.50000000E-01
  8.50000000E-01  8.50000000E-01  8.00000000E-01  8.50000000E-01  8.50000000E-01
  8.50000000E-01  8.00000000E-01  8.50000000E-01  8.50000000E-01  8.50000000E-01
  8.00000000E-01  8.50000000E-01  8.50000000E-01  8.50000000E-01  8.00000000E-01
  8.50000000E-01  8.50000000E-01  8.50000000E-01  8.00000000E-01  8.50000000E-01
  8.50000000E-01  8.50000000E-01  8.00000000E-01  8.50000000E-01  8.50000000E-01
  8.50000000E-01  8.00000000E-01  8.50000000E-01  8.50000000E-01  8.50000000E-01
  8.00000000E-01  8.50000000E-01  8.50000000E-01  8.50000000E-01  8.00000000E-01
  8.50000000E-01  8.50000000E-01  8.50000000E-01  8.00000000E-01  8.50000000E-01
  8.50000000E-01  8.50000000E-01  8.00000000E-01  8.50000000E-01  8.50000000E-01
  8.50000000E-01  8.00000000E-01  8.50000000E-01  8.50000000E-01  8.50000000E-01
  8.00000000E-01  8.50000000E-01  8.50000000E-01  8.50000000E-01  8.00000000E-01
  8.50000000E-01  8.50000000E-01  8.50000000E-01  8.00000000E-01  8.50000000E-01
  8.50000000E-01  8.50000000E-01  8.00000000E-01  8.50000000E-01  8.50000000E-01
  8.50000000E-01  8.00000000E-01  8.50000000E-01  8.50000000E-01  8.50000000E-01
  8.00000000E-01  8.50000000E-01  8.50000000E-01  8.50000000E-01  8.00000000E-01
  8.50000000E-01  8.50000000E-01  8.50000000E-01  8.00000000E-01  8.50000000E-01
  8.50000000E-01  8.50000000E-01  8.00000000E-01  8.50000000E-01  8.50000000E-01
  8.50000000E-01  8.00000000E-01  8.50000000E-01  8.50000000E-01  8.50000000E-01
  8.00000000E-01  8.50000000E-01  8.50000000E-01  8.50000000E-01  8.00000000E-01
  8.50000000E-01  8.50000000E-01  8.50000000E-01  8.00000000E-01  8.50000000E-01
  8.50000000E-01  8.50000000E-01  8.00000000E-01  8.50000000E-01  8.50000000E-01
  8.50000000E-01  8.00000000E-01  8.50000000E-01  8.50000000E-01  8.50000000E-01
  8.00000000E-01  8.50000000E-01  8.50000000E-01  8.50000000E-01  8.00000000E-01
  8.50000000E-01  8.50000000E-01  8.50000000E-01  8.00000000E-01  8.50000000E-01
  8.50000000E-01  8.50000000E-01  8.00000000E-01  8.50000000E-01  8.50000000E-01
  8.50000000E-01  8.00000000E-01  8.50000000E-01  8.50000000E-01  8.50000000E-01
  8.00000000E-01  8.50000000E-01  8.50000000E-01  8.50000000E-01  8.00000000E-01
  8.50000000E-01  8.50000000E-01  8.50000000E-01  8.00000000E-01  8.50000000E-01
  8.50000000E-01  8.50000000E-01  8.00000000E-01  8.50000000E-01  8.50000000E-01
  8.50000000E-01  8.00000000E-01  8.50000000E-01  8.50000000E-01  8.50000000E-01
  8.00000000E-01  8.50000000E-01  8.50000000E-01  8.50000000E-01  8.00000000E-01
  8.50000000E-01  8.50000000E-01  8.50000000E-01  8.00000000E-01  8.50000000E-01
  8.50000000E-01  8.50000000E-01  8.00000000E-01  8.50000000E-01  8.50000000E-01
  8.50000000E-01  8.00000000E-01  8.50000000E-01  8.50000000E-01  8.50000000E-01
  8.00000000E-01  8.50000000E-01  8.50000000E-01  8.50000000E-01  8.00000000E-01
  8.50000000E-01  8.50000000E-01  8.50000000E-01  8.00000000E-01  8.50000000E-01
  8.50000000E-01  8.50000000E-01  8.00000000E-01  8.50000000E-01  8.50000000E-01
  8.50000000E-01  8.00000000E-01  8.50000000E-01  8.50000000E-01  8.50000000E-01
  8.00000000E-01  8.50000000E-01  8.50000000E-01  8.50000000E-01  8.00000000E-01
  8.50000000E-01  8.50000000E-01  8.50000000E-01  8.00000000E-01  8.50000000E-01
  8.50000000E-01  8.50000000E-01  8.00000000E-01  8.50000000E-01  8.50000000E-01
  8.50000000E-01  8.00000000E-01  8.50000000E-01  8.50000000E-01  8.50000000E-01
  8.00000000E-01  8.50000000E-01  8.50000000E-01  8.50000000E-01  8.00000000E-01
  8.50000000E-01  8.50000000E-01  8.50000000E-01  8.00000000E-01  8.50000000E-01
  8.50000000E-01  8.50000000E-01  8.00000000E-01  8.50000000E-01  8.50000000E-01
  8.50000000E-01  8.00000000E-01  8.50000000E-01  8.50000000E-01  8.50000000E-01
  8.00000000E-01  8.50000000E-01  8.50000000E-01  8.50000000E-01  8.00000000E-01
  8.50000000E-01  8.50000000E-01  8.50000000E-01  8.00000000E-01  8.50000000E-01
  8.50000000E-01  8.50000000E-01  8.00000000E-01  8.50000000E-01  8.50000000E-01
  8.50000000E-01  8.00000000E-01  8.50000000E-01  8.50000000E-01  8.50000000E-01
  8.00000000E-01  8.50000000E-01  8.50000000E-01  8.50000000E-01  8.00000000E-01
  8.50000000E-01  8.50000000E-01  8.50000000E-01  8.00000000E-01  8.50000000E-01
  8.50000000E-01  8.50000000E-01  8.00000000E-01  8.50000000E-01  8.50000000E-01
  8.50000000E-01  8.00000000E-01  8.50000000E-01  8.50000000E-01  8.50000000E-01
  8.00000000E-01  8.50000000E-01  8.50000000E-01  8.50000000E-01  8.00000000E-01
  8.50000000E-01  8.50000000E-01  8.50000000E-01  8.00000000E-01  8.50000000E-01
  8.50000000E-01  8.50000000E-01  8.00000000E-01  8.50000000E-01  8.50000000E-01
  8.50000000E-01  8.00000000E-01  8.50000000E-01  8.50000000E-01  8.50000000E-01
  8.00000000E-01  8.50000000E-01  8.50000000E-01  8.50000000E-01  8.00000000E-01
  8.50000000E-01  8.50000000E-01  8.50000000E-01  8.00000000E-01  8.50000000E-01
  8.50000000E-01  8.50000000E-01  8.00000000E-01  8.50000000E-01  8.50000000E-01
  8.50000000E-01  8.00000000E-01  8.50000000E-01  8.50000000E-01  8.50000000E-01
  8.00000000E-01  8.50000000E-01  8.50000000E-01  8.50000000E-01  8.00000000E-01
  8.50000000E-01  8.50000000E-01  8.50000000E-01  8.00000000E-01  8.50000000E-01
  8.50000000E-01  8.50000000E-01  8.00000000E-01  8.50000000E-01  8.50000000E-01
  8.50000000E-01  8.00000000E-01  8.50000000E-01  8.50000000E-01  8.50000000E-01
  8.00000000E-01  8.50000000E-01  8.50000000E-01  8.50000000E-01  8.00000000E-01
  8.50000000E-01  8.50000000E-01  8.50000000E-01  8.00000000E-01  8.50000000E-01
  8.50000000E-01  8.50000000E-01  8.00000000E-01  8.50000000E-01  8.50000000E-01
  8.50000000E-01  8.00000000E-01  8.50000000E-01  8.50000000E-01  8.50000000E-01
  8.00000000E-01  8.50000000E-01  8.50000000E-01  8.50000000E-01  8.00000000E-01
  8.50000000E-01  8.50000000E-01  8.50000000E-01  8.00000000E-01  8.50000000E-01
  8.50000000E-01  8.50000000E-01  8.00000000E-01  8.50000000E-01  8.50000000E-01
  8.50000000E-01  8.00000000E-01  8.50000000E-01  8.50000000E-01  8.50000000E-01
  8.00000000E-01  8.50000000E-01  8.50000000E-01  8.50000000E-01  8.00000000E-01
  8.50000000E-01  8.50000000E-01  8.50000000E-01  8.00000000E-01  8.50000000E-01
  8.50000000E-01  8.50000000E-01  8.00000000E-01  8.50000000E-01  8.50000000E-01
  8.50000000E-01  8.00000000E-01  8.50000000E-01  8.50000000E-01  8.50000000E-01
  8.00000000E-01  8.50000000E-01  8.50000000E-01  8.50000000E-01  8.00000000E-01
  8.50000000E-01  8.50000000E-01  8.50000000E-01  8.00000000E-01  8.50000000E-01
  8.50000000E-01  8.50000000E-01  8.00000000E-01  8.50000000E-01  8.50000000E-01
  8.50000000E-01  8.00000000E-01  8.50000000E-01  8.50000000E-01  8.50000000E-01
  8.00000000E-01  8.50000000E-01  8.50000000E-01  8.50000000E-01  8.00000000E-01
  8.50000000E-01  8.50000000E-01  8.50000000E-01  8.00000000E-01  8.50000000E-01
  8.50000000E-01  8.50000000E-01  8.00000000E-01  8.50000000E-01  8.50000000E-01
  8.50000000E-01  8.00000000E-01  8.50000000E-01  8.50000000E-01  8.50000000E-01
  8.00000000E-01  8.50000000E-01  8.50000000E-01  8.50000000E-01  8.00000000E-01
  8.50000000E-01  8.50000000E-01  8.50000000E-01  8.00000000E-01  8.50000000E-01
  8.50000000E-01  8.50000000E-01  8.00000000E-01  8.50000000E-01  8.50000000E-01
  8.50000000E-01  8.00000000E-01  8.50000000E-01  8.50000000E-01  8.50000000E-01
  8.00000000E-01  8.50000000E-01  8.50000000E-01  8.50000000E-01  8.00000000E-01
  8.50000000E-01  8.50000000E-01  8.50000000E-01  8.00000000E-01  8.50000000E-01
  8.50000000E-01  8.50000000E-01  8.00000000E-01  8.50000000E-01  8.50000000E-01
  8.50000000E-01  8.00000000E-01  8.50000000E-01  8.50000000E-01  8.50000000E-01
  8.00000000E-01  8.50000000E-01  8.50000000E-01  8.50000000E-01  8.00000000E-01
  8.50000000E-01  8.50000000E-01  8.50000000E-01  8.00000000E-01  8.50000000E-01
  8.50000000E-01  8.50000000E-01  8.00000000E-01  8.50000000E-01  8.50000000E-01
  8.50000000E-01  8.00000000E-01  8.50000000E-01  8.50000000E-01  8.50000000E-01
  8.00000000E-01  8.50000000E-01  8.50000000E-01  8.50000000E-01  8.00000000E-01
  8.50000000E-01  8.50000000E-01  8.50000000E-01  8.00000000E-01  8.50000000E-01
  8.50000000E-01  8.50000000E-01  8.00000000E-01  8.50000000E-01  8.50000000E-01
  8.50000000E-01  8.00000000E-01  8.50000000E-01  8.50000000E-01  8.50000000E-01
  8.00000000E-01  8.50000000E-01  8.50000000E-01  8.50000000E-01  8.00000000E-01
  8.50000000E-01  8.50000000E-01  8.50000000E-01  8.00000000E-01  8.50000000E-01
  8.50000000E-01  8.50000000E-01  8.00000000E-01  8.50000000E-01  8.50000000E-01
  8.50000000E-01  8.00000000E-01  8.50000000E-01  8.50000000E-01  8.50000000E-01
  8.00000000E-01  8.50000000E-01  8.50000000E-01  8.50000000E-01  8.00000000E-01
  8.50000000E-01  8.50000000E-01  8.50000000E-01  8.00000000E-01  8.50000000E-01
  8.50000000E-01  8.50000000E-01  8.00000000E-01  8.50000000E-01  8.50000000E-01
  8.50000000E-01  8.00000000E-01  8.50000000E-01  8.50000000E-01  8.50000000E-01
  8.00000000E-01  8.50000000E-01  8.50000000E-01  8.50000000E-01  8.00000000E-01
  8.50000000E-01  8.50000000E-01  8.50000000E-01  8.00000000E-01  8.50000000E-01
  8.50000000E-01  8.50000000E-01  8.00000000E-01  8.50000000E-01  8.50000000E-01
  8.50000000E-01  8.00000000E-01  8.50000000E-01  8.50000000E-01  8.50000000E-01
  8.00000000E-01  8.50000000E-01  8.50000000E-01  8.50000000E-01  8.00000000E-01
  8.50000000E-01  8.50000000E-01  8.50000000E-01  8.00000000E-01  8.50000000E-01
  8.50000000E-01  8.50000000E-01  8.00000000E-01  8.50000000E-01  8.50000000E-01
  8.50000000E-01  8.00000000E-01  8.50000000E-01  8.50000000E-01  8.50000000E-01
  8.00000000E-01  8.50000000E-01  8.50000000E-01  8.50000000E-01  8.00000000E-01
  8.50000000E-01  8.50000000E-01  8.50000000E-01  8.00000000E-01  8.50000000E-01
  8.50000000E-01  8.50000000E-01  8.00000000E-01  8.50000000E-01  8.50000000E-01
  8.50000000E-01  8.00000000E-01  8.50000000E-01  8.50000000E-01  8.50000000E-01
  8.00000000E-01  8.50000000E-01  8.50000000E-01  8.50000000E-01  8.00000000E-01
  8.50000000E-01  8.50000000E-01  8.50000000E-01  8.00000000E-01  8.50000000E-01
  8.50000000E-01  8.50000000E-01  8.00000000E-01  8.50000000E-01  8.50000000E-01
  8.50000000E-01  8.00000000E-01  8.50000000E-01  8.50000000E-01  8.50000000E-01
  8.00000000E-01  8.50000000E-01  8.50000000E-01  8.50000000E-01  8.00000000E-01
  8.50000000E-01  8.50000000E-01  8.50000000E-01  8.00000000E-01  8.50000000E-01
  8.50000000E-01  8.50000000E-01  8.00000000E-01  8.50000000E-01  8.50000000E-01
  8.50000000E-01  8.00000000E-01  8.50000000E-01  8.50000000E-01  8.50000000E-01
  8.00000000E-01  8.50000000E-01  8.50000000E-01  8.50000000E-01  8.00000000E-01
  8.50000000E-01  8.50000000E-01  8.50000000E-01  8.00000000E-01  8.50000000E-01
  8.50000000E-01  8.50000000E-01  8.00000000E-01  8.50000000E-01  8.50000000E-01
  8.50000000E-01  8.00000000E-01  8.50000000E-01  8.50000000E-01  8.50000000E-01
  8.00000000E-01  8.50000000E-01  8.50000000E-01  8.50000000E-01  8.00000000E-01
  8.50000000E-01  8.50000000E-01  8.50000000E-01  8.00000000E-01  8.50000000E-01
  8.50000000E-01  8.50000000E-01  8.00000000E-01  8.50000000E-01  8.50000000E-01
  8.50000000E-01  8.00000000E-01  8.50000000E-01  8.50000000E-01  8.50000000E-01
  8.00000000E-01  8.50000000E-01  8.50000000E-01  8.50000000E-01  8.00000000E-01
  8.50000000E-01  8.50000000E-01  8.50000000E-01  8.00000000E-01  8.50000000E-01
  8.50000000E-01  8.50000000E-01  8.00000000E-01  8.50000000E-01  8.50000000E-01
  8.50000000E-01  8.00000000E-01  8.50000000E-01  8.50000000E-01  8.50000000E-01
  8.00000000E-01  8.50000000E-01  8.50000000E-01  8.50000000E-01  8.00000000E-01
  8.50000000E-01  8.50000000E-01  8.50000000E-01  8.00000000E-01  8.50000000E-01
  8.50000000E-01  8.50000000E-01  8.00000000E-01  8.50000000E-01  8.50000000E-01
  8.50000000E-01  8.00000000E-01  8.50000000E-01  8.50000000E-01  8.50000000E-01
  8.00000000E-01  8.50000000E-01  8.50000000E-01  8.50000000E-01  8.00000000E-01
  8.50000000E-01  8.50000000E-01  8.50000000E-01  8.00000000E-01  8.50000000E-01
  8.50000000E-01  8.50000000E-01  8.00000000E-01  8.50000000E-01  8.50000000E-01
  8.50000000E-01  8.00000000E-01  8.50000000E-01  8.50000000E-01  8.50000000E-01
  8.00000000E-01  8.50000000E-01  8.50000000E-01  8.50000000E-01  8.00000000E-01
  8.50000000E-01  8.50000000E-01  8.50000000E-01  8.00000000E-01  8.50000000E-01
  8.50000000E-01  8.50000000E-01  8.00000000E-01  8.50000000E-01  8.50000000E-01
  8.50000000E-01  8.00000000E-01  8.50000000E-01  8.50000000E-01  8.50000000E-01
  8.00000000E-01  8.50000000E-01  8.50000000E-01  8.50000000E-01  8.00000000E-01
  8.50000000E-01  8.50000000E-01  8.50000000E-01  8.00000000E-01  8.50000000E-01
  8.50000000E-01  8.50000000E-01  8.00000000E-01  8.50000000E-01  8.50000000E-01
  8.50000000E-01  8.00000000E-01  8.50000000E-01  8.50000000E-01  8.50000000E-01
  8.00000000E-01  8.50000000E-01  8.50000000E-01  8.50000000E-01  8.00000000E-01
  8.50000000E-01  8.50000000E-01  8.50000000E-01  8.00000000E-01  8.50000000E-01
  8.50000000E-01  8.50000000E-01  8.00000000E-01  8.50000000E-01  8.50000000E-01
  8.50000000E-01  8.00000000E-01  8.50000000E-01  8.50000000E-01  8.50000000E-01
  8.00000000E-01  8.50000000E-01  8.50000000E-01  8.50000000E-01  8.00000000E-01
  8.50000000E-01  8.50000000E-01  8.50000000E-01  8.00000000E-01  8.50000000E-01
  8.50000000E-01  8.50000000E-01  8.00000000E-01  8.50000000E-01  8.50000000E-01
  8.50000000E-01  8.00000000E-01  8.50000000E-01  8.50000000E-01  8.50000000E-01
  8.00000000E-01  8.50000000E-01  8.50000000E-01  8.50000000E-01  8.00000000E-01
  8.50000000E-01  8.50000000E-01  8.50000000E-01  8.00000000E-01  8.50000000E-01
  8.50000000E-01  8.50000000E-01  8.00000000E-01  8.50000000E-01  8.50000000E-01
  8.50000000E-01  8.00000000E-01  8.50000000E-01  8.50000000E-01  8.50000000E-01
  8.00000000E-01  8.50000000E-01  8.50000000E-01  8.50000000E-01  8.00000000E-01
  8.50000000E-01  8.50000000E-01  8.50000000E-01  8.00000000E-01  8.50000000E-01
  8.50000000E-01  8.50000000E-01  8.00000000E-01  8.50000000E-01  8.50000000E-01
  8.50000000E-01  8.00000000E-01  8.50000000E-01  8.50000000E-01  8.50000000E-01
  8.00000000E-01  8.50000000E-01  8.50000000E-01  8.50000000E-01  8.00000000E-01
  8.50000000E-01  8.50000000E-01  8.50000000E-01  8.00000000E-01  8.50000000E-01
  8.50000000E-01  8.50000000E-01  8.00000000E-01  8.50000000E-01  8.50000000E-01
  8.50000000E-01  8.00000000E-01  8.50000000E-01  8.50000000E-01  8.50000000E-01
  8.00000000E-01  8.50000000E-01  8.50000000E-01  8.50000000E-01  8.00000000E-01
  8.50000000E-01  8.50000000E-01  8.50000000E-01  8.00000000E-01  8.50000000E-01
  8.50000000E-01  8.50000000E-01  8.00000000E-01  8.50000000E-01  8.50000000E-01
  8.50000000E-01  8.00000000E-01  8.50000000E-01  8.50000000E-01  8.50000000E-01
  8.00000000E-01  8.50000000E-01  8.50000000E-01  8.50000000E-01  8.00000000E-01
  8.50000000E-01  8.50000000E-01  8.50000000E-01  8.00000000E-01  8.50000000E-01
  8.50000000E-01  8.50000000E-01  8.00000000E-01  8.50000000E-01  8.50000000E-01
  8.50000000E-01  8.00000000E-01  8.50000000E-01  8.50000000E-01  8.50000000E-01
  8.00000000E-01  8.50000000E-01  8.50000000E-01  8.50000000E-01  8.00000000E-01
  8.50000000E-01  8.50000000E-01  8.50000000E-01  8.00000000E-01  8.50000000E-01
  8.50000000E-01  8.50000000E-01  8.00000000E-01  8.50000000E-01  8.50000000E-01
  8.50000000E-01  8.00000000E-01  8.50000000E-01  8.50000000E-01  8.50000000E-01
  8.00000000E-01  8.50000000E-01  8.50000000E-01  8.50000000E-01  8.00000000E-01
  8.50000000E-01  8.50000000E-01  8.50000000E-01  8.00000000E-01  8.50000000E-01
  8.50000000E-01  8.50000000E-01  8.00000000E-01  8.50000000E-01  8.50000000E-01
  8.50000000E-01  8.00000000E-01  8.50000000E-01  8.50000000E-01  8.50000000E-01
  8.00000000E-01  8.50000000E-01  8.50000000E-01  8.50000000E-01  8.00000000E-01
  8.50000000E-01  8.50000000E-01  8.50000000E-01  8.00000000E-01  8.50000000E-01
  8.50000000E-01  8.50000000E-01  8.00000000E-01  8.50000000E-01  8.50000000E-01
  8.50000000E-01  8.00000000E-01  8.50000000E-01  8.50000000E-01  8.50000000E-01
  8.00000000E-01  8.50000000E-01  8.50000000E-01  8.50000000E-01  8.00000000E-01
  8.50000000E-01  8.50000000E-01  8.50000000E-01  8.00000000E-01  8.50000000E-01
  8.50000000E-01  8.50000000E-01  8.00000000E-01  8.50000000E-01  8.50000000E-01
  8.50000000E-01  8.00000000E-01  8.50000000E-01  8.50000000E-01  8.50000000E-01
  8.00000000E-01  8.50000000E-01  8.50000000E-01  8.50000000E-01  8.00000000E-01
  8.50000000E-01  8.50000000E-01  8.50000000E-01  8.00000000E-01  8.50000000E-01
  8.50000000E-01  8.50000000E-01  8.00000000E-01  8.50000000E-01  8.50000000E-01
  8.50000000E-01  8.00000000E-01  8.50000000E-01  8.50000000E-01  8.50000000E-01
  8.00000000E-01  8.50000000E-01  8.50000000E-01  8.50000000E-01  8.00000000E-01
  8.50000000E-01  8.50000000E-01  8.50000000E-01  8.00000000E-01  8.50000000E-01
  8.50000000E-01  8.50000000E-01  8.00000000E-01  8.50000000E-01  8.50000000E-01
  8.50000000E-01  8.00000000E-01  8.50000000E-01  8.50000000E-01  8.50000000E-01
  8.00000000E-01  8.50000000E-01  8.50000000E-01  8.50000000E-01  8.00000000E-01
  8.50000000E-01  8.50000000E-01  8.50000000E-01  8.00000000E-01  8.50000000E-01
  8.50000000E-01  8.50000000E-01  8.00000000E-01  8.50000000E-01  8.50000000E-01
  8.50000000E-01  8.00000000E-01  8.50000000E-01  8.50000000E-01  8.50000000E-01
  8.00000000E-01  8.50000000E-01  8.50000000E-01  8.50000000E-01  8.00000000E-01
  8.50000000E-01  8.50000000E-01  8.50000000E-01  8.00000000E-01  8.50000000E-01
  8.50000000E-01  8.50000000E-01  8.00000000E-01  8.50000000E-01  8.50000000E-01
  8.50000000E-01  8.00000000E-01  8.50000000E-01  8.50000000E-01  8.50000000E-01
  8.00000000E-01  8.50000000E-01  8.50000000E-01  8.50000000E-01  8.00000000E-01
  8.50000000E-01  8.50000000E-01  8.50000000E-01  8.00000000E-01  8.50000000E-01
  8.50000000E-01  8.50000000E-01  8.00000000E-01  8.50000000E-01  8.50000000E-01
  8.50000000E-01  8.00000000E-01  8.50000000E-01  8.50000000E-01  8.50000000E-01
  8.00000000E-01  8.50000000E-01  8.50000000E-01  8.50000000E-01  8.00000000E-01
  8.50000000E-01  8.50000000E-01  8.50000000E-01  8.00000000E-01  8.50000000E-01
  8.50000000E-01  8.50000000E-01  8.00000000E-01  8.50000000E-01  8.50000000E-01
  8.50000000E-01  8.00000000E-01  8.50000000E-01  8.50000000E-01  8.50000000E-01
  8.00000000E-01  8.50000000E-01  8.50000000E-01  8.50000000E-01  8.00000000E-01
  8.50000000E-01  8.50000000E-01  8.50000000E-01  8.00000000E-01  8.50000000E-01
  8.50000000E-01  8.50000000E-01  8.00000000E-01  8.50000000E-01  8.50000000E-01
  8.50000000E-01  8.00000000E-01  8.50000000E-01  8.50000000E-01  8.50000000E-01
  8.00000000E-01  8.50000000E-01  8.50000000E-01  8.50000000E-01  8.00000000E-01
  8.50000000E-01  8.50000000E-01  8.50000000E-01  8.00000000E-01  8.50000000E-01
  8.50000000E-01  8.50000000E-01  8.00000000E-01  8.50000000E-01  8.50000000E-01
  8.50000000E-01  8.00000000E-01  8.50000000E-01  8.50000000E-01  8.50000000E-01
  8.00000000E-01  8.50000000E-01  8.50000000E-01  8.50000000E-01  8.00000000E-01
  8.50000000E-01  8.50000000E-01  8.50000000E-01  8.00000000E-01  8.50000000E-01
  8.50000000E-01  8.50000000E-01  8.00000000E-01  8.50000000E-01  8.50000000E-01
  8.50000000E-01  8.00000000E-01  8.50000000E-01  8.50000000E-01  8.50000000E-01
  8.00000000E-01  8.50000000E-01  8.50000000E-01  8.50000000E-01  8.00000000E-01
  8.50000000E-01  8.50000000E-01  8.50000000E-01  8.00000000E-01  8.50000000E-01
  8.50000000E-01  8.50000000E-01  8.00000000E-01  8.50000000E-01  8.50000000E-01
  8.50000000E-01  8.00000000E-01  8.50000000E-01  8.50000000E-01  8.50000000E-01
  8.00000000E-01  8.50000000E-01  8.50000000E-01  8.50000000E-01  8.00000000E-01
  8.50000000E-01  8.50000000E-01  8.50000000E-01  8.00000000E-01  8.50000000E-01
  8.50000000E-01  8.50000000E-01  8.00000000E-01  8.50000000E-01  8.50000000E-01
  8.50000000E-01  8.00000000E-01  8.50000000E-01  8.50000000E-01  8.50000000E-01
  8.00000000E-01  8.50000000E-01  8.50000000E-01  8.50000000E-01  8.00000000E-01
  8.50000000E-01  8.50000000E-01  8.50000000E-01  8.00000000E-01  8.50000000E-01
  8.50000000E-01  8.50000000E-01  8.00000000E-01  8.50000000E-01  8.50000000E-01
  8.50000000E-01  8.00000000E-01  8.50000000E-01  8.50000000E-01  8.50000000E-01
  8.00000000E-01  8.50000000E-01  8.50000000E-01  8.50000000E-01  8.00000000E-01
  8.50000000E-01  8.50000000E-01  8.50000000E-01  8.00000000E-01  8.50000000E-01
  8.50000000E-01  8.50000000E-01  8.00000000E-01  8.50000000E-01  8.50000000E-01
  8.50000000E-01  8.00000000E-01  8.50000000E-01  8.50000000E-01  8.50000000E-01
  8.00000000E-01  8.50000000E-01  8.50000000E-01  8.50000000E-01  8.00000000E-01
  8.50000000E-01  8.50000000E-01  8.50000000E-01  8.00000000E-01  8.50000000E-01
  8.50000000E-01  8.50000000E-01  8.00000000E-01  8.50000000E-01  8.50000000E-01
  8.50000000E-01  8.00000000E-01  8.50000000E-01  8.50000000E-01  8.50000000E-01
  8.00000000E-01  8.50000000E-01  8.50000000E-01  8.50000000E-01  8.00000000E-01
  8.50000000E-01  8.50000000E-01  8.50000000E-01  8.00000000E-01  8.50000000E-01
  8.50000000E-01  8.50000000E-01  8.00000000E-01  8.50000000E-01  8.50000000E-01
  8.50000000E-01  8.00000000E-01  8.50000000E-01  8.50000000E-01  8.50000000E-01
  8.00000000E-01  8.50000000E-01  8.50000000E-01  8.50000000E-01  8.00000000E-01
  8.50000000E-01  8.50000000E-01  8.50000000E-01  8.00000000E-01  8.50000000E-01
  8.50000000E-01  8.50000000E-01  8.00000000E-01  8.50000000E-01  8.50000000E-01
  8.50000000E-01  8.00000000E-01  8.50000000E-01  8.50000000E-01  8.50000000E-01
  8.00000000E-01  8.50000000E-01  8.50000000E-01  8.50000000E-01  8.00000000E-01
  8.50000000E-01  8.50000000E-01  8.50000000E-01  8.00000000E-01  8.50000000E-01
  8.50000000E-01  8.50000000E-01  8.00000000E-01  8.50000000E-01  8.50000000E-01
  8.50000000E-01  8.00000000E-01  8.50000000E-01  8.50000000E-01  8.50000000E-01
  8.00000000E-01  8.50000000E-01  8.50000000E-01  8.50000000E-01  8.00000000E-01
  8.50000000E-01  8.50000000E-01  8.50000000E-01  8.00000000E-01  8.50000000E-01
  8.50000000E-01  8.50000000E-01  8.00000000E-01  8.50000000E-01  8.50000000E-01
  8.50000000E-01  8.00000000E-01  8.50000000E-01  8.50000000E-01  8.50000000E-01
  8.00000000E-01  8.50000000E-01  8.50000000E-01  8.50000000E-01  8.00000000E-01
  8.50000000E-01  8.50000000E-01  8.50000000E-01  8.00000000E-01  8.50000000E-01
  8.50000000E-01  8.50000000E-01  8.00000000E-01  8.50000000E-01  8.50000000E-01
  8.50000000E-01  8.00000000E-01  8.50000000E-01  8.50000000E-01  8.50000000E-01
  8.00000000E-01  8.50000000E-01  8.50000000E-01  8.50000000E-01  8.00000000E-01
  8.50000000E-01  8.50000000E-01  8.50000000E-01  8.00000000E-01  8.50000000E-01
  8.50000000E-01  8.50000000E-01  8.00000000E-01  8.50000000E-01  8.50000000E-01
  8.50000000E-01  8.00000000E-01  8.50000000E-01  8.50000000E-01  8.50000000E-01
  8.00000000E-01  8.50000000E-01  8.50000000E-01  8.50000000E-01  8.00000000E-01
  8.50000000E-01  8.50000000E-01  8.50000000E-01  8.00000000E-01  8.50000000E-01
  8.50000000E-01  8.50000000E-01  8.00000000E-01  8.50000000E-01  8.50000000E-01
  8.50000000E-01  8.00000000E-01  8.50000000E-01  8.50000000E-01  8.50000000E-01
  8.00000000E-01  8.50000000E-01  8.50000000E-01  8.50000000E-01  8.00000000E-01
  8.50000000E-01  8.50000000E-01  8.50000000E-01  8.00000000E-01  8.50000000E-01
  8.50000000E-01  8.50000000E-01  8.00000000E-01  8.50000000E-01  8.50000000E-01
  8.50000000E-01  8.00000000E-01  8.50000000E-01  8.50000000E-01  8.50000000E-01
  8.00000000E-01  8.50000000E-01  8.50000000E-01  8.50000000E-01  8.00000000E-01
  8.50000000E-01  8.50000000E-01  8.50000000E-01  8.00000000E-01  8.50000000E-01
  8.50000000E-01  8.50000000E-01  8.00000000E-01  8.50000000E-01  8.50000000E-01
  8.50000000E-01  8.00000000E-01  8.50000000E-01  8.50000000E-01  8.50000000E-01
  8.00000000E-01  8.50000000E-01  8.50000000E-01  8.50000000E-01  8.00000000E-01
  8.50000000E-01  8.50000000E-01  8.50000000E-01  8.00000000E-01  8.50000000E-01
  8.50000000E-01  8.50000000E-01  8.00000000E-01  8.50000000E-01  8.50000000E-01
  8.50000000E-01  8.00000000E-01  8.50000000E-01  8.50000000E-01  8.50000000E-01
  8.00000000E-01  8.50000000E-01  8.50000000E-01  8.50000000E-01  8.00000000E-01
  8.50000000E-01  8.50000000E-01  8.50000000E-01  8.00000000E-01  8.50000000E-01
  8.50000000E-01  8.50000000E-01  8.00000000E-01  8.50000000E-01  8.50000000E-01
  8.50000000E-01  8.00000000E-01  8.50000000E-01  8.50000000E-01  8.50000000E-01
  8.00000000E-01  8.50000000E-01  8.50000000E-01  8.50000000E-01  8.00000000E-01
  8.50000000E-01  8.50000000E-01  8.50000000E-01  8.00000000E-01  8.50000000E-01
  8.50000000E-01  8.50000000E-01  8.00000000E-01  8.50000000E-01  8.50000000E-01
  8.50000000E-01  8.00000000E-01  8.50000000E-01  8.50000000E-01  8.50000000E-01
  8.00000000E-01  8.50000000E-01  8.50000000E-01  8.50000000E-01  8.00000000E-01
  8.50000000E-01  8.50000000E-01  8.50000000E-01  8.00000000E-01  8.50000000E-01
  8.50000000E-01  8.50000000E-01  8.00000000E-01  8.50000000E-01  8.50000000E-01
  8.50000000E-01  8.00000000E-01  8.50000000E-01  8.50000000E-01  8.50000000E-01
  8.00000000E-01  8.50000000E-01  8.50000000E-01  8.50000000E-01  8.00000000E-01
  8.50000000E-01  8.50000000E-01  8.50000000E-01  8.00000000E-01  8.50000000E-01
  8.50000000E-01  8.50000000E-01  8.00000000E-01  8.50000000E-01  8.50000000E-01
  8.50000000E-01  8.00000000E-01  8.50000000E-01  8.50000000E-01  8.50000000E-01
  8.00000000E-01  8.50000000E-01  8.50000000E-01  8.50000000E-01  8.00000000E-01
  8.50000000E-01  8.50000000E-01  8.50000000E-01  8.00000000E-01  8.50000000E-01
  8.50000000E-01  8.50000000E-01  8.00000000E-01  8.50000000E-01  8.50000000E-01
  8.50000000E-01  8.00000000E-01  8.50000000E-01  8.50000000E-01  8.50000000E-01
  8.00000000E-01  8.50000000E-01  8.50000000E-01  8.50000000E-01  8.00000000E-01
  8.50000000E-01  8.50000000E-01  8.50000000E-01  8.00000000E-01  8.50000000E-01
  8.50000000E-01  8.50000000E-01  8.00000000E-01  8.50000000E-01  8.50000000E-01
  8.50000000E-01  8.00000000E-01  8.50000000E-01  8.50000000E-01  8.50000000E-01
  8.00000000E-01  8.50000000E-01  8.50000000E-01  8.50000000E-01  8.00000000E-01
  8.50000000E-01  8.50000000E-01  8.50000000E-01  8.00000000E-01  8.50000000E-01
  8.50000000E-01  8.50000000E-01  8.00000000E-01  8.50000000E-01  8.50000000E-01
  8.50000000E-01  8.00000000E-01  8.50000000E-01  8.50000000E-01  8.50000000E-01
  8.00000000E-01  8.50000000E-01  8.50000000E-01  8.50000000E-01  8.00000000E-01
  8.50000000E-01  8.50000000E-01  8.50000000E-01  8.00000000E-01  8.50000000E-01
  8.50000000E-01  8.50000000E-01  8.00000000E-01  8.50000000E-01  8.50000000E-01
  8.50000000E-01  8.00000000E-01  8.50000000E-01  8.50000000E-01  8.50000000E-01
  8.00000000E-01  8.50000000E-01  8.50000000E-01  8.50000000E-01  8.00000000E-01
  8.50000000E-01  8.50000000E-01  8.50000000E-01  8.00000000E-01  8.50000000E-01
  8.50000000E-01  8.50000000E-01  8.00000000E-01  8.50000000E-01  8.50000000E-01
  8.50000000E-01  8.00000000E-01  8.50000000E-01  8.50000000E-01  8.50000000E-01
  8.00000000E-01  8.50000000E-01  8.50000000E-01  8.50000000E-01  8.00000000E-01
  8.50000000E-01  8.50000000E-01  8.50000000E-01  8.00000000E-01  8.50000000E-01
  8.50000000E-01  8.50000000E-01  8.00000000E-01  8.50000000E-01  8.50000000E-01
  8.50000000E-01  8.00000000E-01  8.50000000E-01  8.50000000E-01  8.50000000E-01
  8.00000000E-01  8.50000000E-01  8.50000000E-01  8.50000000E-01  8.00000000E-01
  8.50000000E-01  8.50000000E-01  8.50000000E-01  8.00000000E-01  8.50000000E-01
  8.50000000E-01  8.50000000E-01  8.00000000E-01  8.50000000E-01  8.50000000E-01
  8.50000000E-01  8.00000000E-01  8.50000000E-01  8.50000000E-01  8.50000000E-01
  8.00000000E-01  8.50000000E-01  8.50000000E-01  8.50000000E-01  8.00000000E-01
  8.50000000E-01  8.50000000E-01  8.50000000E-01  8.00000000E-01  8.50000000E-01
  8.50000000E-01  8.50000000E-01  8.00000000E-01  8.50000000E-01  8.50000000E-01
  8.50000000E-01  8.00000000E-01  8.50000000E-01  8.50000000E-01  8.50000000E-01
  8.00000000E-01  8.50000000E-01  8.50000000E-01  8.50000000E-01  8.00000000E-01
  8.50000000E-01  8.50000000E-01  8.50000000E-01  8.00000000E-01  8.50000000E-01
  8.50000000E-01  8.50000000E-01  8.00000000E-01  8.50000000E-01  8.50000000E-01
  8.50000000E-01  8.00000000E-01  8.50000000E-01  8.50000000E-01  8.50000000E-01
  8.00000000E-01  8.50000000E-01  8.50000000E-01  8.50000000E-01  8.00000000E-01
  8.50000000E-01  8.50000000E-01  8.50000000E-01  8.00000000E-01  8.50000000E-01
  8.50000000E-01  8.50000000E-01  8.00000000E-01  8.50000000E-01  8.50000000E-01
  8.50000000E-01  8.00000000E-01  8.50000000E-01  8.50000000E-01  8.50000000E-01
  8.00000000E-01  8.50000000E-01  8.50000000E-01  8.50000000E-01  8.00000000E-01
  8.50000000E-01  8.50000000E-01  8.50000000E-01  8.00000000E-01  8.50000000E-01
  8.50000000E-01  8.50000000E-01  8.00000000E-01  8.50000000E-01  8.50000000E-01
  8.50000000E-01  8.00000000E-01  8.50000000E-01  8.50000000E-01  8.50000000E-01
  8.00000000E-01  8.50000000E-01  8.50000000E-01  8.50000000E-01  8.00000000E-01
  8.50000000E-01  8.50000000E-01  8.50000000E-01  8.00000000E-01  8.50000000E-01
  8.50000000E-01  8.50000000E-01  8.00000000E-01  8.50000000E-01  8.50000000E-01
  8.50000000E-01  8.00000000E-01  8.50000000E-01  8.50000000E-01  8.50000000E-01
  8.00000000E-01  8.50000000E-01  8.50000000E-01  8.50000000E-01  8.00000000E-01
  8.50000000E-01  8.50000000E-01  8.50000000E-01  8.00000000E-01  8.50000000E-01
  8.50000000E-01  8.50000000E-01  8.00000000E-01  8.50000000E-01  8.50000000E-01
  8.50000000E-01  8.00000000E-01  8.50000000E-01  8.50000000E-01  8.50000000E-01
  8.00000000E-01  8.50000000E-01  8.50000000E-01  8.50000000E-01  8.00000000E-01
  8.50000000E-01  8.50000000E-01  8.50000000E-01  8.00000000E-01  8.50000000E-01
  8.50000000E-01  8.50000000E-01  8.00000000E-01  8.50000000E-01  8.50000000E-01
  8.50000000E-01  8.00000000E-01  8.50000000E-01  8.50000000E-01  8.50000000E-01
  8.00000000E-01  8.50000000E-01  8.50000000E-01  8.50000000E-01  8.00000000E-01
  8.50000000E-01  8.50000000E-01  8.50000000E-01  8.00000000E-01  8.50000000E-01
  8.50000000E-01  8.50000000E-01  8.00000000E-01  8.50000000E-01  8.50000000E-01
  8.50000000E-01  8.00000000E-01  8.50000000E-01  8.50000000E-01  8.50000000E-01
  8.00000000E-01  8.50000000E-01  8.50000000E-01  8.50000000E-01  8.00000000E-01
  8.50000000E-01  8.50000000E-01  8.50000000E-01  8.00000000E-01  8.50000000E-01
  8.50000000E-01  8.50000000E-01  8.00000000E-01  8.50000000E-01  8.50000000E-01
  8.50000000E-01  8.00000000E-01  8.50000000E-01  8.50000000E-01  8.50000000E-01
  8.00000000E-01  8.50000000E-01  8.50000000E-01  8.50000000E-01  8.00000000E-01
  8.50000000E-01  8.50000000E-01  8.50000000E-01  8.00000000E-01  8.50000000E-01
  8.50000000E-01  8.50000000E-01  8.00000000E-01  8.50000000E-01  8.50000000E-01
  8.50000000E-01  8.00000000E-01  8.50000000E-01  8.50000000E-01  8.50000000E-01
  8.00000000E-01  8.50000000E-01  8.50000000E-01  8.50000000E-01  8.00000000E-01
  8.50000000E-01  8.50000000E-01  8.50000000E-01  8.00000000E-01  8.50000000E-01
  8.50000000E-01  8.50000000E-01  8.00000000E-01  8.50000000E-01  8.50000000E-01
  8.50000000E-01  8.00000000E-01  8.50000000E-01  8.50000000E-01  8.50000000E-01
  8.00000000E-01  8.50000000E-01  8.50000000E-01  8.50000000E-01  8.00000000E-01
  8.50000000E-01  8.50000000E-01  8.50000000E-01  8.00000000E-01  8.50000000E-01
  8.50000000E-01  8.50000000E-01  8.00000000E-01  8.50000000E-01  8.50000000E-01
  8.50000000E-01  8.00000000E-01  8.50000000E-01  8.50000000E-01  8.50000000E-01
  8.00000000E-01  8.50000000E-01  8.50000000E-01  8.50000000E-01  8.00000000E-01
  8.50000000E-01  8.50000000E-01  8.50000000E-01  8.00000000E-01  8.50000000E-01
  8.50000000E-01  8.50000000E-01  8.00000000E-01  8.50000000E-01  8.50000000E-01
  8.50000000E-01  8.00000000E-01  8.50000000E-01  8.50000000E-01  8.50000000E-01
  8.00000000E-01  8.50000000E-01  8.50000000E-01  8.50000000E-01  8.00000000E-01
  8.50000000E-01  8.50000000E-01  8.50000000E-01  8.00000000E-01  8.50000000E-01
  8.50000000E-01  8.50000000E-01  8.00000000E-01  8.50000000E-01  8.50000000E-01
  8.50000000E-01  8.00000000E-01  8.50000000E-01  8.50000000E-01  8.50000000E-01
  8.00000000E-01  8.50000000E-01  8.50000000E-01  8.50000000E-01  8.00000000E-01
  8.50000000E-01  8.50000000E-01  8.50000000E-01  8.00000000E-01  8.50000000E-01
  8.50000000E-01  8.50000000E-01  8.00000000E-01  8.50000000E-01  8.50000000E-01
  8.50000000E-01  8.00000000E-01  8.50000000E-01  8.50000000E-01  8.50000000E-01
  8.00000000E-01  8.50000000E-01  8.50000000E-01  8.50000000E-01  8.00000000E-01
  8.50000000E-01  8.50000000E-01  8.50000000E-01  8.00000000E-01  8.50000000E-01
  8.50000000E-01  8.50000000E-01  8.00000000E-01  8.50000000E-01  8.50000000E-01
  8.50000000E-01  8.00000000E-01  8.50000000E-01  8.50000000E-01  8.50000000E-01
  8.00000000E-01  8.50000000E-01  8.50000000E-01  8.50000000E-01  8.00000000E-01
  8.50000000E-01  8.50000000E-01  8.50000000E-01  8.00000000E-01  8.50000000E-01
  8.50000000E-01  8.50000000E-01  8.00000000E-01  8.50000000E-01  8.50000000E-01
  8.50000000E-01  8.00000000E-01  8.50000000E-01  8.50000000E-01  8.50000000E-01
  8.00000000E-01  8.50000000E-01  8.50000000E-01  8.50000000E-01  8.00000000E-01
  8.50000000E-01  8.50000000E-01  8.50000000E-01  8.00000000E-01  8.50000000E-01
  8.50000000E-01  8.50000000E-01  8.00000000E-01  8.50000000E-01  8.50000000E-01
  8.50000000E-01  8.00000000E-01  8.50000000E-01  8.50000000E-01  8.50000000E-01
  8.00000000E-01  8.50000000E-01  8.50000000E-01  8.50000000E-01  8.00000000E-01
  8.50000000E-01  8.50000000E-01  8.50000000E-01  8.00000000E-01  8.50000000E-01
  8.50000000E-01  8.50000000E-01  8.00000000E-01  8.50000000E-01  8.50000000E-01
  8.50000000E-01  8.00000000E-01  8.50000000E-01  8.50000000E-01  8.50000000E-01
  8.00000000E-01  8.50000000E-01  8.50000000E-01  8.50000000E-01  8.00000000E-01
  8.50000000E-01  8.50000000E-01  8.50000000E-01  8.00000000E-01  8.50000000E-01
  8.50000000E-01  8.50000000E-01  8.00000000E-01  8.50000000E-01  8.50000000E-01
  8.50000000E-01  8.00000000E-01  8.50000000E-01  8.50000000E-01  8.50000000E-01
  8.00000000E-01  8.50000000E-01  8.50000000E-01  8.50000000E-01  8.00000000E-01
  8.50000000E-01  8.50000000E-01  8.50000000E-01  8.00000000E-01  8.50000000E-01
  8.50000000E-01  8.50000000E-01  8.00000000E-01  8.50000000E-01  8.50000000E-01
  8.50000000E-01  8.00000000E-01  8.50000000E-01  8.50000000E-01  8.50000000E-01
  8.00000000E-01  8.50000000E-01  8.50000000E-01  8.50000000E-01  8.00000000E-01
  8.50000000E-01  8.50000000E-01  8.50000000E-01  8.00000000E-01  8.50000000E-01
  8.50000000E-01  8.50000000E-01  8.00000000E-01  8.50000000E-01  8.50000000E-01
  8.50000000E-01  8.00000000E-01  8.50000000E-01  8.50000000E-01  8.50000000E-01
  8.00000000E-01  8.50000000E-01  8.50000000E-01  8.50000000E-01  8.00000000E-01
  8.50000000E-01  8.50000000E-01  8.50000000E-01  8.00000000E-01  8.50000000E-01
  8.50000000E-01  8.50000000E-01  8.00000000E-01  8.50000000E-01  8.50000000E-01
  8.50000000E-01  8.00000000E-01  8.50000000E-01  8.50000000E-01  8.50000000E-01
  8.00000000E-01  8.50000000E-01  8.50000000E-01  8.50000000E-01  8.00000000E-01
  8.50000000E-01  8.50000000E-01  8.50000000E-01  8.00000000E-01  8.50000000E-01
  8.50000000E-01  8.50000000E-01  8.00000000E-01  8.50000000E-01  8.50000000E-01
  8.50000000E-01  8.00000000E-01  8.50000000E-01  8.50000000E-01  8.50000000E-01
  8.00000000E-01  8.50000000E-01  8.50000000E-01  8.50000000E-01  8.00000000E-01
  8.50000000E-01  8.50000000E-01  8.50000000E-01  8.00000000E-01  8.50000000E-01
  8.50000000E-01  8.50000000E-01  8.00000000E-01  8.50000000E-01  8.50000000E-01
  8.50000000E-01  8.00000000E-01  8.50000000E-01  8.50000000E-01  8.50000000E-01
  8.00000000E-01  8.50000000E-01  8.50000000E-01  8.50000000E-01  8.00000000E-01
  8.50000000E-01  8.50000000E-01  8.50000000E-01  8.00000000E-01  8.50000000E-01
  8.50000000E-01  8.50000000E-01  8.00000000E-01  8.50000000E-01  8.50000000E-01
  8.50000000E-01  8.00000000E-01  8.50000000E-01  8.50000000E-01  8.50000000E-01
  8.00000000E-01  8.50000000E-01  8.50000000E-01  8.50000000E-01  8.00000000E-01
  8.50000000E-01  8.50000000E-01  8.50000000E-01  8.00000000E-01  8.50000000E-01
  8.50000000E-01  8.50000000E-01  8.00000000E-01  8.50000000E-01  8.50000000E-01
  8.50000000E-01  8.00000000E-01  8.50000000E-01  8.50000000E-01  8.50000000E-01
  8.00000000E-01  8.50000000E-01  8.50000000E-01  8.50000000E-01  8.00000000E-01
  8.50000000E-01  8.50000000E-01  8.50000000E-01  8.00000000E-01  8.50000000E-01
  8.50000000E-01  8.50000000E-01  8.00000000E-01  8.50000000E-01  8.50000000E-01
  8.50000000E-01  8.00000000E-01  8.50000000E-01  8.50000000E-01  8.50000000E-01
  8.00000000E-01  8.50000000E-01  8.50000000E-01  8.50000000E-01  8.00000000E-01
  8.50000000E-01  8.50000000E-01  8.50000000E-01  8.00000000E-01  8.50000000E-01
  8.50000000E-01  8.50000000E-01  8.00000000E-01  8.50000000E-01  8.50000000E-01
  8.50000000E-01  8.00000000E-01  8.50000000E-01  8.50000000E-01  8.50000000E-01
  8.00000000E-01  8.50000000E-01  8.50000000E-01  8.50000000E-01  8.00000000E-01
  8.50000000E-01  8.50000000E-01  8.50000000E-01  8.00000000E-01  8.50000000E-01
  8.50000000E-01  8.50000000E-01  8.00000000E-01  8.50000000E-01  8.50000000E-01
  8.50000000E-01  8.00000000E-01  8.50000000E-01  8.50000000E-01  8.50000000E-01
  8.00000000E-01  8.50000000E-01  8.50000000E-01  8.50000000E-01  8.00000000E-01
  8.50000000E-01  8.50000000E-01  8.50000000E-01  8.00000000E-01  8.50000000E-01
  8.50000000E-01  8.50000000E-01  8.00000000E-01  8.50000000E-01  8.50000000E-01
  8.50000000E-01  8.00000000E-01  8.50000000E-01  8.50000000E-01  8.50000000E-01
  8.00000000E-01  8.50000000E-01  8.50000000E-01  8.50000000E-01  8.00000000E-01
  8.50000000E-01  8.50000000E-01  8.50000000E-01  8.00000000E-01  8.50000000E-01
  8.50000000E-01  8.50000000E-01  8.00000000E-01  8.50000000E-01  8.50000000E-01
  8.50000000E-01  8.00000000E-01  8.50000000E-01  8.50000000E-01  8.50000000E-01
  8.00000000E-01  8.50000000E-01  8.50000000E-01  8.50000000E-01  8.00000000E-01
  8.50000000E-01  8.50000000E-01  8.50000000E-01  8.00000000E-01  8.50000000E-01
  8.50000000E-01  8.50000000E-01  8.00000000E-01  8.50000000E-01  8.50000000E-01
  8.50000000E-01  8.00000000E-01  8.50000000E-01  8.50000000E-01  8.50000000E-01
  8.00000000E-01  8.50000000E-01  8.50000000E-01  8.50000000E-01  8.00000000E-01
  8.50000000E-01  8.50000000E-01  8.50000000E-01  8.00000000E-01  8.50000000E-01
  8.50000000E-01  8.50000000E-01  8.00000000E-01  8.50000000E-01  8.50000000E-01
  8.50000000E-01  8.00000000E-01  8.50000000E-01  8.50000000E-01  8.50000000E-01
  8.00000000E-01  8.50000000E-01  8.50000000E-01  8.50000000E-01  8.00000000E-01
  8.50000000E-01  8.50000000E-01  8.50000000E-01  8.00000000E-01  8.50000000E-01
  8.50000000E-01  8.50000000E-01  8.00000000E-01  8.50000000E-01  8.50000000E-01
  8.50000000E-01  8.00000000E-01  8.50000000E-01  8.50000000E-01  8.50000000E-01
  8.00000000E-01  8.50000000E-01  8.50000000E-01  8.50000000E-01  8.00000000E-01
  8.50000000E-01  8.50000000E-01  8.50000000E-01  8.00000000E-01  8.50000000E-01
  8.50000000E-01  8.50000000E-01  8.00000000E-01  8.50000000E-01  8.50000000E-01
  8.50000000E-01  8.00000000E-01  8.50000000E-01  8.50000000E-01  8.50000000E-01
  8.00000000E-01  8.50000000E-01  8.50000000E-01  8.50000000E-01  8.00000000E-01
  8.50000000E-01  8.50000000E-01  8.50000000E-01  8.00000000E-01  8.50000000E-01
  8.50000000E-01  8.50000000E-01  8.00000000E-01  8.50000000E-01  8.50000000E-01
  8.50000000E-01  8.00000000E-01  8.50000000E-01  8.50000000E-01  8.50000000E-01
  8.00000000E-01  8.50000000E-01  8.50000000E-01  8.50000000E-01  8.00000000E-01
  8.50000000E-01  8.50000000E-01  8.50000000E-01  8.00000000E-01  8.50000000E-01
  8.50000000E-01  8.50000000E-01  8.00000000E-01  8.50000000E-01  8.50000000E-01
  8.50000000E-01  8.00000000E-01  8.50000000E-01  8.50000000E-01  8.50000000E-01
  8.00000000E-01  8.50000000E-01  8.50000000E-01  8.50000000E-01  8.00000000E-01
  8.50000000E-01  8.50000000E-01  8.50000000E-01  8.00000000E-01  8.50000000E-01
  8.50000000E-01  8.50000000E-01  8.00000000E-01  8.50000000E-01  8.50000000E-01
  8.50000000E-01  8.00000000E-01  8.50000000E-01  8.50000000E-01  8.50000000E-01
  8.00000000E-01  8.50000000E-01  8.50000000E-01  8.50000000E-01  8.00000000E-01
  8.50000000E-01  8.50000000E-01  8.50000000E-01  8.00000000E-01  8.50000000E-01
  8.50000000E-01  8.50000000E-01  8.00000000E-01  8.50000000E-01  8.50000000E-01
  8.50000000E-01  8.00000000E-01  8.50000000E-01  8.50000000E-01  8.50000000E-01
  8.00000000E-01  8.50000000E-01  8.50000000E-01  8.50000000E-01  8.00000000E-01
  8.50000000E-01  8.50000000E-01  8.50000000E-01  8.00000000E-01  8.50000000E-01
  8.50000000E-01  8.50000000E-01  8.00000000E-01  8.50000000E-01  8.50000000E-01
  8.50000000E-01  8.00000000E-01  8.50000000E-01  8.50000000E-01  8.50000000E-01
  8.00000000E-01  8.50000000E-01  8.50000000E-01  8.50000000E-01  8.00000000E-01
  8.50000000E-01  8.50000000E-01  8.50000000E-01  8.00000000E-01  8.50000000E-01
  8.50000000E-01  8.50000000E-01  8.00000000E-01  8.50000000E-01  8.50000000E-01
  8.50000000E-01  8.00000000E-01  8.50000000E-01  8.50000000E-01  8.50000000E-01
  8.00000000E-01  8.50000000E-01  8.50000000E-01  8.50000000E-01  8.00000000E-01
  8.50000000E-01  8.50000000E-01  8.50000000E-01  8.00000000E-01  8.50000000E-01
  8.50000000E-01  8.50000000E-01  8.00000000E-01  8.50000000E-01  8.50000000E-01
  8.50000000E-01  8.00000000E-01  8.50000000E-01  8.50000000E-01  8.50000000E-01
  8.00000000E-01  8.50000000E-01  8.50000000E-01  8.50000000E-01  8.00000000E-01
  8.50000000E-01  8.50000000E-01  8.50000000E-01  8.00000000E-01  8.50000000E-01
  8.50000000E-01  8.50000000E-01  8.00000000E-01  8.50000000E-01  8.50000000E-01
  8.50000000E-01  8.00000000E-01  8.50000000E-01  8.50000000E-01  8.50000000E-01
  8.00000000E-01  8.50000000E-01  8.50000000E-01  8.50000000E-01  8.00000000E-01
  8.50000000E-01  8.50000000E-01  8.50000000E-01  8.00000000E-01  8.50000000E-01
  8.50000000E-01  8.50000000E-01  8.00000000E-01  8.50000000E-01  8.50000000E-01
  8.50000000E-01  8.00000000E-01  8.50000000E-01  8.50000000E-01  8.50000000E-01
  8.00000000E-01  8.50000000E-01  8.50000000E-01  8.50000000E-01  8.00000000E-01
  8.50000000E-01  8.50000000E-01  8.50000000E-01  8.00000000E-01  8.50000000E-01
  8.50000000E-01  8.50000000E-01  8.00000000E-01  8.50000000E-01  8.50000000E-01
  8.50000000E-01  8.00000000E-01  8.50000000E-01  8.50000000E-01  8.50000000E-01
  8.00000000E-01  8.50000000E-01  8.50000000E-01  8.50000000E-01  8.00000000E-01
  8.50000000E-01  8.50000000E-01  8.50000000E-01  8.00000000E-01  8.50000000E-01
  8.50000000E-01  8.50000000E-01  8.00000000E-01  8.50000000E-01  8.50000000E-01
  8.50000000E-01  8.00000000E-01  8.50000000E-01  8.50000000E-01  8.50000000E-01
  8.00000000E-01  8.50000000E-01  8.50000000E-01  8.50000000E-01  8.00000000E-01
  8.50000000E-01  8.50000000E-01  8.50000000E-01  8.00000000E-01  8.50000000E-01
  8.50000000E-01  8.50000000E-01  8.00000000E-01  8.50000000E-01  8.50000000E-01
  8.50000000E-01  8.00000000E-01  8.50000000E-01  8.50000000E-01  8.50000000E-01
  8.00000000E-01  8.50000000E-01  8.50000000E-01  8.50000000E-01  8.00000000E-01
  8.50000000E-01  8.50000000E-01  8.50000000E-01  8.00000000E-01  8.50000000E-01
  8.50000000E-01  8.50000000E-01  8.00000000E-01  8.50000000E-01  8.50000000E-01
  8.50000000E-01  8.00000000E-01  8.50000000E-01  8.50000000E-01  8.50000000E-01
  8.00000000E-01  8.50000000E-01  8.50000000E-01  8.50000000E-01  8.00000000E-01
  8.50000000E-01  8.50000000E-01  8.50000000E-01  8.00000000E-01  8.50000000E-01
  8.50000000E-01  8.50000000E-01  8.00000000E-01  8.50000000E-01  8.50000000E-01
  8.50000000E-01  8.00000000E-01  8.50000000E-01  8.50000000E-01  8.50000000E-01
  8.00000000E-01  8.50000000E-01  8.50000000E-01  8.50000000E-01  8.00000000E-01
  8.50000000E-01  8.50000000E-01  8.50000000E-01  8.00000000E-01  8.50000000E-01
  8.50000000E-01  8.50000000E-01  8.00000000E-01  8.50000000E-01  8.50000000E-01
  8.50000000E-01  8.00000000E-01  8.50000000E-01  8.50000000E-01  8.50000000E-01
  8.00000000E-01  8.50000000E-01  8.50000000E-01  8.50000000E-01  8.00000000E-01
  8.50000000E-01  8.50000000E-01  8.50000000E-01  8.00000000E-01  8.50000000E-01
  8.50000000E-01  8.50000000E-01  8.00000000E-01  8.50000000E-01  8.50000000E-01
  8.50000000E-01  8.00000000E-01  8.50000000E-01  8.50000000E-01  8.50000000E-01
  8.00000000E-01  8.50000000E-01  8.50000000E-01  8.50000000E-01  8.00000000E-01
  8.50000000E-01  8.50000000E-01  8.50000000E-01  8.00000000E-01  8.50000000E-01
  8.50000000E-01  8.50000000E-01  8.00000000E-01  8.50000000E-01  8.50000000E-01
  8.50000000E-01  8.00000000E-01  8.50000000E-01  8.50000000E-01  8.50000000E-01
  8.00000000E-01  8.50000000E-01  8.50000000E-01  8.50000000E-01  8.00000000E-01
  8.50000000E-01  8.50000000E-01  8.50000000E-01  8.00000000E-01  8.50000000E-01
  8.50000000E-01  8.50000000E-01  8.00000000E-01  8.50000000E-01  8.50000000E-01
  8.50000000E-01  8.00000000E-01  8.50000000E-01  8.50000000E-01  8.50000000E-01
  8.00000000E-01  8.50000000E-01  8.50000000E-01  8.50000000E-01  8.00000000E-01
  8.50000000E-01  8.50000000E-01  8.50000000E-01  8.00000000E-01  8.50000000E-01
  8.50000000E-01  8.50000000E-01  8.00000000E-01  8.50000000E-01  8.50000000E-01
  8.50000000E-01  8.00000000E-01  8.50000000E-01  8.50000000E-01  8.50000000E-01
  8.00000000E-01  8.50000000E-01  8.50000000E-01  8.50000000E-01  8.00000000E-01
  8.50000000E-01  8.50000000E-01  8.50000000E-01  8.00000000E-01  8.50000000E-01
  8.50000000E-01  8.50000000E-01  8.00000000E-01  8.50000000E-01  8.50000000E-01
  8.50000000E-01  8.00000000E-01  8.50000000E-01  8.50000000E-01  8.50000000E-01
  8.00000000E-01  8.50000000E-01  8.50000000E-01  8.50000000E-01  8.00000000E-01
  8.50000000E-01  8.50000000E-01  8.50000000E-01  8.00000000E-01  8.50000000E-01
  8.50000000E-01  8.50000000E-01  8.00000000E-01  8.50000000E-01  8.50000000E-01
  8.50000000E-01  8.00000000E-01  8.50000000E-01  8.50000000E-01  8.50000000E-01
  8.00000000E-01  8.50000000E-01  8.50000000E-01  8.50000000E-01  8.00000000E-01
  8.50000000E-01  8.50000000E-01  8.50000000E-01  8.00000000E-01  8.50000000E-01
  8.50000000E-01  8.50000000E-01  8.00000000E-01  8.50000000E-01  8.50000000E-01
  8.50000000E-01  8.00000000E-01  8.50000000E-01  8.50000000E-01  8.50000000E-01
  8.00000000E-01  8.50000000E-01  8.50000000E-01  8.50000000E-01  8.00000000E-01
  8.50000000E-01  8.50000000E-01  8.50000000E-01  8.00000000E-01  8.50000000E-01
  8.50000000E-01  8.50000000E-01  8.00000000E-01  8.50000000E-01  8.50000000E-01
  8.50000000E-01  8.00000000E-01  8.50000000E-01  8.50000000E-01  8.50000000E-01
  8.00000000E-01  8.50000000E-01  8.50000000E-01  8.50000000E-01  8.00000000E-01
  8.50000000E-01  8.50000000E-01  8.50000000E-01  8.00000000E-01  8.50000000E-01
  8.50000000E-01  8.50000000E-01  8.00000000E-01  8.50000000E-01  8.50000000E-01
  8.50000000E-01  8.00000000E-01  8.50000000E-01  8.50000000E-01  8.50000000E-01
  8.00000000E-01  8.50000000E-01  8.50000000E-01  8.50000000E-01  8.00000000E-01
  8.50000000E-01  8.50000000E-01  8.50000000E-01  8.00000000E-01  8.50000000E-01
  8.50000000E-01  8.50000000E-01  8.00000000E-01  8.50000000E-01  8.50000000E-01
  8.50000000E-01  8.00000000E-01  8.50000000E-01  8.50000000E-01  8.50000000E-01
  8.00000000E-01  8.50000000E-01  8.50000000E-01  8.50000000E-01  8.00000000E-01
  8.50000000E-01  8.50000000E-01  8.50000000E-01  8.00000000E-01  8.50000000E-01
  8.50000000E-01  8.50000000E-01  8.00000000E-01  8.50000000E-01  8.50000000E-01
  8.50000000E-01  8.00000000E-01  8.50000000E-01  8.50000000E-01  8.50000000E-01
  8.00000000E-01  8.50000000E-01  8.50000000E-01  8.50000000E-01  8.00000000E-01
  8.50000000E-01  8.50000000E-01  8.50000000E-01  8.00000000E-01  8.50000000E-01
  8.50000000E-01  8.50000000E-01  8.00000000E-01  8.50000000E-01  8.50000000E-01
  8.50000000E-01  8.00000000E-01  8.50000000E-01  8.50000000E-01  8.50000000E-01
  8.00000000E-01  8.50000000E-01  8.50000000E-01  8.50000000E-01  8.00000000E-01
  8.50000000E-01  8.50000000E-01  8.50000000E-01  8.00000000E-01  8.50000000E-01
  8.50000000E-01  8.50000000E-01  8.00000000E-01  8.50000000E-01  8.50000000E-01
  8.50000000E-01  8.00000000E-01  8.50000000E-01  8.50000000E-01  8.50000000E-01
  8.00000000E-01  8.50000000E-01  8.50000000E-01  8.50000000E-01  8.00000000E-01
  8.50000000E-01  8.50000000E-01  8.50000000E-01  8.00000000E-01  8.50000000E-01
  8.50000000E-01  8.50000000E-01  8.00000000E-01  8.50000000E-01  8.50000000E-01
  8.50000000E-01  8.00000000E-01  8.50000000E-01  8.50000000E-01  8.50000000E-01
  8.00000000E-01  8.50000000E-01  8.50000000E-01  8.50000000E-01  8.00000000E-01
  8.50000000E-01  8.50000000E-01  8.50000000E-01  8.00000000E-01  8.50000000E-01
  8.50000000E-01  8.50000000E-01  8.00000000E-01  8.50000000E-01  8.50000000E-01
  8.50000000E-01  8.00000000E-01  8.50000000E-01  8.50000000E-01  8.50000000E-01
  8.00000000E-01  8.50000000E-01  8.50000000E-01  8.50000000E-01  8.00000000E-01
  8.50000000E-01  8.50000000E-01  8.50000000E-01  8.00000000E-01  8.50000000E-01
  8.50000000E-01  8.50000000E-01  8.00000000E-01  8.50000000E-01  8.50000000E-01
  8.50000000E-01  8.00000000E-01  8.50000000E-01  8.50000000E-01  8.50000000E-01
  8.00000000E-01  8.50000000E-01  8.50000000E-01  8.50000000E-01  8.00000000E-01
  8.50000000E-01  8.50000000E-01  8.50000000E-01  8.00000000E-01  8.50000000E-01
  8.50000000E-01  8.50000000E-01  8.00000000E-01  8.50000000E-01  8.50000000E-01
  8.50000000E-01  8.00000000E-01  8.50000000E-01  8.50000000E-01  8.50000000E-01
  8.00000000E-01  8.50000000E-01  8.50000000E-01  8.50000000E-01  8.00000000E-01
  8.50000000E-01  8.50000000E-01  8.50000000E-01  8.00000000E-01  8.50000000E-01
  8.50000000E-01  8.50000000E-01  8.00000000E-01  8.50000000E-01  8.50000000E-01
  8.50000000E-01  8.00000000E-01  8.50000000E-01  8.50000000E-01  8.50000000E-01
  8.00000000E-01  8.50000000E-01  8.50000000E-01  8.50000000E-01  8.00000000E-01
  8.50000000E-01  8.50000000E-01  8.50000000E-01  8.00000000E-01  8.50000000E-01
  8.50000000E-01  8.50000000E-01  8.00000000E-01  8.50000000E-01  8.50000000E-01
  8.50000000E-01  8.00000000E-01  8.50000000E-01  8.50000000E-01  8.50000000E-01
  8.00000000E-01  8.50000000E-01  8.50000000E-01  8.50000000E-01  8.00000000E-01
  8.50000000E-01  8.50000000E-01  8.50000000E-01  8.00000000E-01  8.50000000E-01
  8.50000000E-01  8.50000000E-01  8.00000000E-01  8.50000000E-01  8.50000000E-01
  8.50000000E-01  8.00000000E-01  8.50000000E-01  8.50000000E-01  8.50000000E-01
  8.00000000E-01  8.50000000E-01  8.50000000E-01  8.50000000E-01  8.00000000E-01
  8.50000000E-01  8.50000000E-01  8.50000000E-01  8.00000000E-01  8.50000000E-01
  8.50000000E-01  8.50000000E-01  8.00000000E-01  8.50000000E-01  8.50000000E-01
  8.50000000E-01  8.00000000E-01  8.50000000E-01  8.50000000E-01  8.50000000E-01
  8.00000000E-01  8.50000000E-01  8.50000000E-01  8.50000000E-01  8.00000000E-01
  8.50000000E-01  8.50000000E-01  8.50000000E-01  8.00000000E-01  8.50000000E-01
  8.50000000E-01  8.50000000E-01  8.00000000E-01  8.50000000E-01  8.50000000E-01
  8.50000000E-01  8.00000000E-01  8.50000000E-01  8.50000000E-01  8.50000000E-01
  8.00000000E-01  8.50000000E-01  8.50000000E-01  8.50000000E-01  8.00000000E-01
  8.50000000E-01  8.50000000E-01  8.50000000E-01  8.00000000E-01  8.50000000E-01
  8.50000000E-01  8.50000000E-01  8.00000000E-01  8.50000000E-01  8.50000000E-01
  8.50000000E-01  8.00000000E-01  8.50000000E-01  8.50000000E-01  8.50000000E-01
  8.00000000E-01  8.50000000E-01  8.50000000E-01  8.50000000E-01  8.00000000E-01
  8.50000000E-01  8.50000000E-01  8.50000000E-01  8.00000000E-01  8.50000000E-01
  8.50000000E-01  8.50000000E-01  8.00000000E-01  8.50000000E-01  8.50000000E-01
  8.50000000E-01  8.00000000E-01  8.50000000E-01  8.50000000E-01  8.50000000E-01
  8.00000000E-01  8.50000000E-01  8.50000000E-01  8.50000000E-01  8.00000000E-01
  8.50000000E-01  8.50000000E-01  8.50000000E-01  8.00000000E-01  8.50000000E-01
  8.50000000E-01  8.50000000E-01  8.00000000E-01  8.50000000E-01  8.50000000E-01
  8.50000000E-01  8.00000000E-01  8.50000000E-01  8.50000000E-01  8.50000000E-01
  8.00000000E-01  8.50000000E-01  8.50000000E-01  8.50000000E-01  8.00000000E-01
  8.50000000E-01  8.50000000E-01  8.50000000E-01  8.00000000E-01  8.50000000E-01
  8.50000000E-01  8.50000000E-01  8.00000000E-01  8.50000000E-01  8.50000000E-01
  8.50000000E-01  8.00000000E-01  8.50000000E-01  8.50000000E-01  8.50000000E-01
  8.00000000E-01  8.50000000E-01  8.50000000E-01  8.50000000E-01  8.00000000E-01
  8.50000000E-01  8.50000000E-01  8.50000000E-01  8.00000000E-01  8.50000000E-01
  8.50000000E-01  8.50000000E-01  8.00000000E-01  8.50000000E-01  8.50000000E-01
  8.50000000E-01  8.00000000E-01  8.50000000E-01  8.50000000E-01  8.50000000E-01
  8.00000000E-01  8.50000000E-01  8.50000000E-01  8.50000000E-01  8.00000000E-01
  8.50000000E-01  8.50000000E-01  8.50000000E-01  8.00000000E-01  8.50000000E-01
  8.50000000E-01  8.50000000E-01  8.00000000E-01  8.50000000E-01  8.50000000E-01
  8.50000000E-01  8.00000000E-01  8.50000000E-01  8.50000000E-01  8.50000000E-01
  8.00000000E-01  8.50000000E-01  8.50000000E-01  8.50000000E-01  8.00000000E-01
  8.50000000E-01  8.50000000E-01  8.50000000E-01  8.00000000E-01  8.50000000E-01
  8.50000000E-01  8.50000000E-01  8.00000000E-01  8.50000000E-01  8.50000000E-01
  8.50000000E-01  8.00000000E-01  8.50000000E-01  8.50000000E-01  8.50000000E-01
  8.00000000E-01  8.50000000E-01  8.50000000E-01  8.50000000E-01  8.00000000E-01
  8.50000000E-01  8.50000000E-01  8.50000000E-01  8.00000000E-01  8.50000000E-01
  8.50000000E-01  8.50000000E-01  8.00000000E-01  8.50000000E-01  8.50000000E-01
  8.50000000E-01  8.00000000E-01  8.50000000E-01  8.50000000E-01  8.50000000E-01
  8.00000000E-01  8.50000000E-01  8.50000000E-01  8.50000000E-01  8.00000000E-01
  8.50000000E-01  8.50000000E-01  8.50000000E-01  8.00000000E-01  8.50000000E-01
  8.50000000E-01  8.50000000E-01  8.00000000E-01  8.50000000E-01  8.50000000E-01
  8.50000000E-01  8.00000000E-01  8.50000000E-01  8.50000000E-01  8.50000000E-01
  8.00000000E-01  8.50000000E-01  8.50000000E-01  8.50000000E-01  8.00000000E-01
  8.50000000E-01  8.50000000E-01  8.50000000E-01  8.00000000E-01  8.50000000E-01
  8.50000000E-01  8.50000000E-01  8.00000000E-01  8.50000000E-01  8.50000000E-01
  8.50000000E-01  8.00000000E-01  8.50000000E-01  8.50000000E-01  8.50000000E-01
  8.00000000E-01  8.50000000E-01  8.50000000E-01  8.50000000E-01  8.00000000E-01
  8.50000000E-01  8.50000000E-01  8.50000000E-01  8.00000000E-01  8.50000000E-01
  8.50000000E-01  8.50000000E-01  8.00000000E-01  8.50000000E-01  8.50000000E-01
  8.50000000E-01  8.00000000E-01  8.50000000E-01  8.50000000E-01  8.50000000E-01
  8.00000000E-01  8.50000000E-01  8.50000000E-01  8.50000000E-01  8.00000000E-01
  8.50000000E-01  8.50000000E-01  8.50000000E-01  8.00000000E-01  8.50000000E-01
  8.50000000E-01  8.50000000E-01  8.00000000E-01  8.50000000E-01  8.50000000E-01
  8.50000000E-01  8.00000000E-01  8.50000000E-01  8.50000000E-01  8.50000000E-01
  8.00000000E-01  8.50000000E-01  8.50000000E-01  8.50000000E-01  8.00000000E-01
  8.50000000E-01  8.50000000E-01  8.50000000E-01  8.00000000E-01  8.50000000E-01
  8.50000000E-01  8.50000000E-01  8.00000000E-01  8.50000000E-01  8.50000000E-01
  8.50000000E-01  8.00000000E-01  8.50000000E-01  8.50000000E-01  8.50000000E-01
  8.00000000E-01  8.50000000E-01  8.50000000E-01  8.50000000E-01  8.00000000E-01
  8.50000000E-01  8.50000000E-01  8.50000000E-01  8.00000000E-01  8.50000000E-01
  8.50000000E-01  8.50000000E-01  8.00000000E-01  8.50000000E-01  8.50000000E-01
  8.50000000E-01  8.00000000E-01  8.50000000E-01  8.50000000E-01  8.50000000E-01
  8.00000000E-01  8.50000000E-01  8.50000000E-01  8.50000000E-01  8.00000000E-01
  8.50000000E-01  8.50000000E-01  8.50000000E-01  8.00000000E-01  8.50000000E-01
  8.50000000E-01  8.50000000E-01  8.00000000E-01  8.50000000E-01  8.50000000E-01
  8.50000000E-01  8.00000000E-01  8.50000000E-01  8.50000000E-01  8.50000000E-01
  8.00000000E-01  8.50000000E-01  8.50000000E-01  8.50000000E-01  8.00000000E-01
  8.50000000E-01  8.50000000E-01  8.50000000E-01  8.00000000E-01  8.50000000E-01
  8.50000000E-01  8.50000000E-01  8.00000000E-01  8.50000000E-01  8.50000000E-01
  8.50000000E-01  8.00000000E-01  8.50000000E-01  8.50000000E-01  8.50000000E-01
  8.00000000E-01  8.50000000E-01  8.50000000E-01  8.50000000E-01  8.00000000E-01
  8.50000000E-01  8.50000000E-01  8.50000000E-01  8.00000000E-01  8.50000000E-01
  8.50000000E-01  8.50000000E-01  8.00000000E-01  8.50000000E-01  8.50000000E-01
  8.50000000E-01  8.00000000E-01  8.50000000E-01  8.50000000E-01  8.50000000E-01
  8.00000000E-01  8.50000000E-01  8.50000000E-01  8.50000000E-01  8.00000000E-01
  8.50000000E-01  8.50000000E-01  8.50000000E-01  8.00000000E-01  8.50000000E-01
  8.50000000E-01  8.50000000E-01  8.00000000E-01  8.50000000E-01  8.50000000E-01
  8.50000000E-01  8.00000000E-01  8.50000000E-01  8.50000000E-01  8.50000000E-01
  8.00000000E-01  8.50000000E-01  8.50000000E-01  8.50000000E-01  8.00000000E-01
  8.50000000E-01  8.50000000E-01  8.50000000E-01  8.00000000E-01  8.50000000E-01
  8.50000000E-01  8.50000000E-01  8.00000000E-01  8.50000000E-01  8.50000000E-01
  8.50000000E-01  8.00000000E-01  8.50000000E-01  8.50000000E-01  8.50000000E-01
  8.00000000E-01  8.50000000E-01  8.50000000E-01  8.50000000E-01  8.00000000E-01
  8.50000000E-01  8.50000000E-01  8.50000000E-01  8.00000000E-01  8.50000000E-01
  8.50000000E-01  8.50000000E-01  8.00000000E-01  8.50000000E-01  8.50000000E-01
  8.50000000E-01  8.00000000E-01  8.50000000E-01  8.50000000E-01  8.50000000E-01
  8.00000000E-01  8.50000000E-01  8.50000000E-01  8.50000000E-01  8.00000000E-01
  8.50000000E-01  8.50000000E-01  8.50000000E-01  8.00000000E-01  8.50000000E-01
  8.50000000E-01  8.50000000E-01  8.00000000E-01  8.50000000E-01  8.50000000E-01
  8.50000000E-01  8.00000000E-01  8.50000000E-01  8.50000000E-01  8.50000000E-01
  8.00000000E-01  8.50000000E-01  8.50000000E-01  8.50000000E-01  8.00000000E-01
  8.50000000E-01  8.50000000E-01  8.50000000E-01  8.00000000E-01  8.50000000E-01
  8.50000000E-01  8.50000000E-01  8.00000000E-01  8.50000000E-01  8.50000000E-01
  8.50000000E-01  8.00000000E-01  8.50000000E-01  8.50000000E-01  8.50000000E-01
  8.00000000E-01  8.50000000E-01  8.50000000E-01  8.50000000E-01  8.00000000E-01
  8.50000000E-01  8.50000000E-01  8.50000000E-01  8.00000000E-01  8.50000000E-01
  8.50000000E-01  8.50000000E-01  8.00000000E-01  8.50000000E-01  8.50000000E-01
  8.50000000E-01  8.00000000E-01  8.50000000E-01  8.50000000E-01  8.50000000E-01
  8.00000000E-01  8.50000000E-01  8.50000000E-01  8.50000000E-01  8.00000000E-01
  8.50000000E-01  8.50000000E-01  8.50000000E-01  8.00000000E-01  8.50000000E-01
  8.50000000E-01  8.50000000E-01  8.00000000E-01  8.50000000E-01  8.50000000E-01
  8.50000000E-01  8.00000000E-01  8.50000000E-01  8.50000000E-01  8.50000000E-01
  8.00000000E-01  8.50000000E-01  8.50000000E-01  8.50000000E-01  8.00000000E-01
  8.50000000E-01  8.50000000E-01  8.50000000E-01  8.00000000E-01  8.50000000E-01
  8.50000000E-01  8.50000000E-01  8.00000000E-01  8.50000000E-01  8.50000000E-01
  8.50000000E-01  8.00000000E-01  8.50000000E-01  8.50000000E-01  8.50000000E-01
  8.00000000E-01  8.50000000E-01  8.50000000E-01  8.50000000E-01  8.00000000E-01
  8.50000000E-01  8.50000000E-01  8.50000000E-01  8.00000000E-01  8.50000000E-01
  8.50000000E-01  8.50000000E-01  8.00000000E-01  8.50000000E-01  8.50000000E-01
  8.50000000E-01  8.00000000E-01  8.50000000E-01  8.50000000E-01  8.50000000E-01
  8.00000000E-01  8.50000000E-01  8.50000000E-01  8.50000000E-01  8.00000000E-01
  8.50000000E-01  8.50000000E-01  8.50000000E-01  8.00000000E-01  8.50000000E-01
  8.50000000E-01  8.50000000E-01  8.00000000E-01  8.50000000E-01  8.50000000E-01
  8.50000000E-01  8.00000000E-01  8.50000000E-01  8.50000000E-01  8.50000000E-01
  8.00000000E-01  8.50000000E-01  8.50000000E-01  8.50000000E-01  8.00000000E-01
  8.50000000E-01  8.50000000E-01  8.50000000E-01  8.00000000E-01  8.50000000E-01
  8.50000000E-01  8.50000000E-01  8.00000000E-01  8.50000000E-01  8.50000000E-01
  8.50000000E-01  8.00000000E-01  8.50000000E-01  8.50000000E-01  8.50000000E-01
  8.00000000E-01  8.50000000E-01  8.50000000E-01  8.50000000E-01  8.00000000E-01
  8.50000000E-01  8.50000000E-01  8.50000000E-01  8.00000000E-01  8.50000000E-01
  8.50000000E-01  8.50000000E-01  8.00000000E-01  8.50000000E-01  8.50000000E-01
  8.50000000E-01  8.00000000E-01  8.50000000E-01  8.50000000E-01  8.50000000E-01
  8.00000000E-01  8.50000000E-01  8.50000000E-01  8.50000000E-01  8.00000000E-01
  8.50000000E-01  8.50000000E-01  8.50000000E-01  8.00000000E-01  8.50000000E-01
  8.50000000E-01  8.50000000E-01  8.00000000E-01  8.50000000E-01  8.50000000E-01
  8.50000000E-01  8.00000000E-01  8.50000000E-01  8.50000000E-01  8.50000000E-01
  8.00000000E-01  8.50000000E-01  8.50000000E-01  8.50000000E-01  8.00000000E-01
  8.50000000E-01  8.50000000E-01  8.50000000E-01  8.00000000E-01  8.50000000E-01
  8.50000000E-01  8.50000000E-01  8.00000000E-01  8.50000000E-01  8.50000000E-01
  8.50000000E-01  8.00000000E-01  8.50000000E-01  8.50000000E-01  8.50000000E-01
  8.00000000E-01  8.50000000E-01  8.50000000E-01  8.50000000E-01  8.00000000E-01
  8.50000000E-01  8.50000000E-01  8.50000000E-01  8.00000000E-01  8.50000000E-01
  8.50000000E-01  8.50000000E-01  8.00000000E-01  8.50000000E-01  8.50000000E-01
  8.50000000E-01  8.00000000E-01  8.50000000E-01  8.50000000E-01  8.50000000E-01
  8.00000000E-01  8.50000000E-01  8.50000000E-01  8.50000000E-01  8.00000000E-01
  8.50000000E-01  8.50000000E-01  8.50000000E-01  8.00000000E-01  8.50000000E-01
  8.50000000E-01  8.50000000E-01  8.00000000E-01  8.50000000E-01  8.50000000E-01
  8.50000000E-01  8.00000000E-01  8.50000000E-01  8.50000000E-01  8.50000000E-01
  8.00000000E-01  8.50000000E-01  8.50000000E-01  8.50000000E-01  8.00000000E-01
  8.50000000E-01  8.50000000E-01  8.50000000E-01  8.00000000E-01  8.50000000E-01
  8.50000000E-01  8.50000000E-01  8.00000000E-01  8.50000000E-01  8.50000000E-01
  8.50000000E-01  8.00000000E-01  8.50000000E-01  8.50000000E-01  8.50000000E-01
  8.00000000E-01  8.50000000E-01  8.50000000E-01  8.50000000E-01  8.00000000E-01
  8.50000000E-01  8.50000000E-01  8.50000000E-01  8.00000000E-01  8.50000000E-01
  8.50000000E-01  8.50000000E-01  8.00000000E-01  8.50000000E-01  8.50000000E-01
  8.50000000E-01  8.00000000E-01  8.50000000E-01  8.50000000E-01  8.50000000E-01
  8.00000000E-01  8.50000000E-01  8.50000000E-01  8.50000000E-01  8.00000000E-01
  8.50000000E-01  8.50000000E-01  8.50000000E-01  8.00000000E-01  8.50000000E-01
  8.50000000E-01  8.50000000E-01  8.00000000E-01  8.50000000E-01  8.50000000E-01
  8.50000000E-01  8.00000000E-01  8.50000000E-01  8.50000000E-01  8.50000000E-01
  8.00000000E-01  8.50000000E-01  8.50000000E-01  8.50000000E-01  8.00000000E-01
  8.50000000E-01  8.50000000E-01  8.50000000E-01  8.00000000E-01  8.50000000E-01
  8.50000000E-01  8.50000000E-01  8.00000000E-01  8.50000000E-01  8.50000000E-01
  8.50000000E-01  8.00000000E-01  8.50000000E-01  8.50000000E-01  8.50000000E-01
  8.00000000E-01  8.50000000E-01  8.50000000E-01  8.50000000E-01  8.00000000E-01
  8.50000000E-01  8.50000000E-01  8.50000000E-01  8.00000000E-01  8.50000000E-01
  8.50000000E-01  8.50000000E-01  8.00000000E-01  8.50000000E-01  8.50000000E-01
  8.50000000E-01  8.00000000E-01  8.50000000E-01  8.50000000E-01  8.50000000E-01
  8.00000000E-01  8.50000000E-01  8.50000000E-01  8.50000000E-01  8.00000000E-01
  8.50000000E-01  8.50000000E-01  8.50000000E-01  8.00000000E-01  8.50000000E-01
  8.50000000E-01  8.50000000E-01  8.00000000E-01  8.50000000E-01  8.50000000E-01
  8.50000000E-01  8.00000000E-01  8.50000000E-01  8.50000000E-01  8.50000000E-01
  8.00000000E-01  8.50000000E-01  8.50000000E-01  8.50000000E-01  8.00000000E-01
  8.50000000E-01  8.50000000E-01  8.50000000E-01  8.00000000E-01  8.50000000E-01
  8.50000000E-01  8.50000000E-01  8.00000000E-01  8.50000000E-01  8.50000000E-01
  8.50000000E-01  8.00000000E-01  8.50000000E-01  8.50000000E-01  8.50000000E-01
  8.00000000E-01  8.50000000E-01  8.50000000E-01  8.50000000E-01  8.00000000E-01
  8.50000000E-01  8.50000000E-01  8.50000000E-01  8.00000000E-01  8.50000000E-01
  8.50000000E-01  8.50000000E-01  8.00000000E-01  8.50000000E-01  8.50000000E-01
  8.50000000E-01  8.00000000E-01  8.50000000E-01  8.50000000E-01  8.50000000E-01
  8.00000000E-01  8.50000000E-01  8.50000000E-01  8.50000000E-01  8.00000000E-01
  8.50000000E-01  8.50000000E-01  8.50000000E-01  8.00000000E-01  8.50000000E-01
  8.50000000E-01  8.50000000E-01  8.00000000E-01  8.50000000E-01  8.50000000E-01
  8.50000000E-01  8.00000000E-01  8.50000000E-01  8.50000000E-01  8.50000000E-01
  8.00000000E-01  8.50000000E-01  8.50000000E-01  8.50000000E-01  8.00000000E-01
  8.50000000E-01  8.50000000E-01  8.50000000E-01  8.00000000E-01  8.50000000E-01
  8.50000000E-01  8.50000000E-01  8.00000000E-01  8.50000000E-01  8.50000000E-01
  8.50000000E-01  8.00000000E-01  8.50000000E-01  8.50000000E-01  8.50000000E-01
  8.00000000E-01  8.50000000E-01  8.50000000E-01  8.50000000E-01  8.00000000E-01
  8.50000000E-01  8.50000000E-01  8.50000000E-01  8.00000000E-01  8.50000000E-01
  8.50000000E-01  8.50000000E-01  8.00000000E-01  8.50000000E-01  8.50000000E-01
  8.50000000E-01  8.00000000E-01  8.50000000E-01  8.50000000E-01  8.50000000E-01
  8.00000000E-01  8.50000000E-01  8.50000000E-01  8.50000000E-01  8.00000000E-01
  8.50000000E-01  8.50000000E-01  8.50000000E-01  8.00000000E-01  8.50000000E-01
  8.50000000E-01  8.50000000E-01  8.00000000E-01  8.50000000E-01  8.50000000E-01
  8.50000000E-01  8.00000000E-01  8.50000000E-01  8.50000000E-01  8.50000000E-01
  8.00000000E-01  8.50000000E-01  8.50000000E-01  8.50000000E-01  8.00000000E-01
  8.50000000E-01  8.50000000E-01  8.50000000E-01  8.00000000E-01  8.50000000E-01
  8.50000000E-01  8.50000000E-01  8.00000000E-01  8.50000000E-01  8.50000000E-01
  8.50000000E-01  8.00000000E-01  8.50000000E-01  8.50000000E-01  8.50000000E-01
  8.00000000E-01  8.50000000E-01  8.50000000E-01  8.50000000E-01  8.00000000E-01
  8.50000000E-01  8.50000000E-01  8.50000000E-01  8.00000000E-01  8.50000000E-01
  8.50000000E-01  8.50000000E-01  8.00000000E-01  8.50000000E-01  8.50000000E-01
  8.50000000E-01  8.00000000E-01  8.50000000E-01  8.50000000E-01  8.50000000E-01
  8.00000000E-01  8.50000000E-01  8.50000000E-01  8.50000000E-01  8.00000000E-01
  8.50000000E-01  8.50000000E-01  8.50000000E-01  8.00000000E-01  8.50000000E-01
  8.50000000E-01  8.50000000E-01  8.00000000E-01  8.50000000E-01  8.50000000E-01
  8.50000000E-01  8.00000000E-01  8.50000000E-01  8.50000000E-01  8.50000000E-01
  8.00000000E-01  8.50000000E-01  8.50000000E-01  8.50000000E-01  8.00000000E-01
  8.50000000E-01  8.50000000E-01  8.50000000E-01  8.00000000E-01  8.50000000E-01
  8.50000000E-01  8.50000000E-01  8.00000000E-01  8.50000000E-01  8.50000000E-01
  8.50000000E-01  8.00000000E-01  8.50000000E-01  8.50000000E-01  8.50000000E-01
  8.00000000E-01  8.50000000E-01  8.50000000E-01  8.50000000E-01  8.00000000E-01
  8.50000000E-01  8.50000000E-01  8.50000000E-01  8.00000000E-01  8.50000000E-01
  8.50000000E-01  8.50000000E-01  8.00000000E-01  8.50000000E-01  8.50000000E-01
  8.50000000E-01  8.00000000E-01  8.50000000E-01  8.50000000E-01  8.50000000E-01
  8.00000000E-01  8.50000000E-01  8.50000000E-01  8.50000000E-01  8.00000000E-01
  8.50000000E-01  8.50000000E-01  8.50000000E-01  8.00000000E-01  8.50000000E-01
  8.50000000E-01  8.50000000E-01  8.00000000E-01  8.50000000E-01  8.50000000E-01
  8.50000000E-01  8.00000000E-01  8.50000000E-01  8.50000000E-01  8.50000000E-01
  8.00000000E-01  8.50000000E-01  8.50000000E-01  8.50000000E-01  8.00000000E-01
  8.50000000E-01  8.50000000E-01  8.50000000E-01  8.00000000E-01  8.50000000E-01
  8.50000000E-01  8.50000000E-01  8.00000000E-01  8.50000000E-01  8.50000000E-01
  8.50000000E-01  8.00000000E-01  8.50000000E-01  8.50000000E-01  8.50000000E-01
  8.00000000E-01  8.50000000E-01  8.50000000E-01  8.50000000E-01  8.00000000E-01
  8.50000000E-01  8.50000000E-01  8.50000000E-01  8.00000000E-01  8.50000000E-01
  8.50000000E-01  8.50000000E-01  8.00000000E-01  8.50000000E-01  8.50000000E-01
  8.50000000E-01  8.00000000E-01  8.50000000E-01  8.50000000E-01  8.50000000E-01
  8.00000000E-01  8.50000000E-01  8.50000000E-01  8.50000000E-01  8.00000000E-01
  8.50000000E-01  8.50000000E-01  8.50000000E-01  8.00000000E-01  8.50000000E-01
  8.50000000E-01  8.50000000E-01  8.00000000E-01  8.50000000E-01  8.50000000E-01
  8.50000000E-01  8.00000000E-01  8.50000000E-01  8.50000000E-01  8.50000000E-01
  8.00000000E-01  8.50000000E-01  8.50000000E-01  8.50000000E-01  8.00000000E-01
  8.50000000E-01  8.50000000E-01  8.50000000E-01  8.00000000E-01  8.50000000E-01
  8.50000000E-01  8.50000000E-01  8.00000000E-01  8.50000000E-01  8.50000000E-01
  8.50000000E-01  8.00000000E-01  8.50000000E-01  8.50000000E-01  8.50000000E-01
  8.00000000E-01  8.50000000E-01  8.50000000E-01  8.50000000E-01  8.00000000E-01
  8.50000000E-01  8.50000000E-01  8.50000000E-01  8.00000000E-01  8.50000000E-01
  8.50000000E-01  8.50000000E-01  8.00000000E-01  8.50000000E-01  8.50000000E-01
  8.50000000E-01  8.00000000E-01  8.50000000E-01  8.50000000E-01  8.50000000E-01
  8.00000000E-01  8.50000000E-01  8.50000000E-01  8.50000000E-01  8.00000000E-01
  8.50000000E-01  8.50000000E-01  8.50000000E-01  8.00000000E-01  8.50000000E-01
  8.50000000E-01  8.50000000E-01  8.00000000E-01  8.50000000E-01  8.50000000E-01
  8.50000000E-01  8.00000000E-01  8.50000000E-01  8.50000000E-01  8.50000000E-01
  8.00000000E-01  8.50000000E-01  8.50000000E-01  8.50000000E-01  8.00000000E-01
  8.50000000E-01  8.50000000E-01  8.50000000E-01  8.00000000E-01  8.50000000E-01
  8.50000000E-01  8.50000000E-01  8.00000000E-01  8.50000000E-01  8.50000000E-01
  8.50000000E-01  8.00000000E-01  8.50000000E-01  8.50000000E-01  8.50000000E-01
  8.00000000E-01  8.50000000E-01  8.50000000E-01  8.50000000E-01  8.00000000E-01
  8.50000000E-01  8.50000000E-01  8.50000000E-01  8.00000000E-01  8.50000000E-01
  8.50000000E-01  8.50000000E-01  8.00000000E-01  8.50000000E-01  8.50000000E-01
  8.50000000E-01  8.00000000E-01  8.50000000E-01  8.50000000E-01  8.50000000E-01
  8.00000000E-01  8.50000000E-01  8.50000000E-01  8.50000000E-01  8.00000000E-01
  8.50000000E-01  8.50000000E-01  8.50000000E-01  8.00000000E-01  8.50000000E-01
  8.50000000E-01  8.50000000E-01  8.00000000E-01  8.50000000E-01  8.50000000E-01
  8.50000000E-01  8.00000000E-01  8.50000000E-01  8.50000000E-01  8.50000000E-01
  8.00000000E-01  8.50000000E-01  8.50000000E-01  8.50000000E-01  8.00000000E-01
  8.50000000E-01  8.50000000E-01  8.50000000E-01  8.00000000E-01  8.50000000E-01
  8.50000000E-01  8.50000000E-01  8.00000000E-01  8.50000000E-01  8.50000000E-01
  8.50000000E-01  8.00000000E-01  8.50000000E-01  8.50000000E-01  8.50000000E-01
  8.00000000E-01  8.50000000E-01  8.50000000E-01  8.50000000E-01  8.00000000E-01
  8.50000000E-01  8.50000000E-01  8.50000000E-01  8.00000000E-01  8.50000000E-01
  8.50000000E-01  8.50000000E-01  8.00000000E-01  8.50000000E-01  8.50000000E-01
  8.50000000E-01  8.00000000E-01  8.50000000E-01  8.50000000E-01  8.50000000E-01
  8.00000000E-01  8.50000000E-01  8.50000000E-01  8.50000000E-01  8.00000000E-01
  8.50000000E-01  8.50000000E-01  8.50000000E-01  8.00000000E-01  8.50000000E-01
  8.50000000E-01  8.50000000E-01  8.00000000E-01  8.50000000E-01  8.50000000E-01
  8.50000000E-01  8.00000000E-01  8.50000000E-01  8.50000000E-01  8.50000000E-01
  8.00000000E-01  8.50000000E-01  8.50000000E-01  8.50000000E-01  8.00000000E-01
  8.50000000E-01  8.50000000E-01  8.50000000E-01  8.00000000E-01  8.50000000E-01
  8.50000000E-01  8.50000000E-01  8.00000000E-01  8.50000000E-01  8.50000000E-01
  8.50000000E-01  8.00000000E-01  8.50000000E-01  8.50000000E-01  8.50000000E-01
  8.00000000E-01  8.50000000E-01  8.50000000E-01  8.50000000E-01  8.00000000E-01
  8.50000000E-01  8.50000000E-01  8.50000000E-01  8.00000000E-01  8.50000000E-01
  8.50000000E-01  8.50000000E-01  8.00000000E-01  8.50000000E-01  8.50000000E-01
  8.50000000E-01  8.00000000E-01  8.50000000E-01  8.50000000E-01  8.50000000E-01
  8.00000000E-01  8.50000000E-01  8.50000000E-01  8.50000000E-01  8.00000000E-01
  8.50000000E-01  8.50000000E-01  8.50000000E-01  8.00000000E-01  8.50000000E-01
  8.50000000E-01  8.50000000E-01  8.00000000E-01  8.50000000E-01  8.50000000E-01
  8.50000000E-01  8.00000000E-01  8.50000000E-01  8.50000000E-01  8.50000000E-01
  8.00000000E-01  8.50000000E-01  8.50000000E-01  8.50000000E-01  8.00000000E-01
  8.50000000E-01  8.50000000E-01  8.50000000E-01  8.00000000E-01  8.50000000E-01
  8.50000000E-01  8.50000000E-01  8.00000000E-01  8.50000000E-01  8.50000000E-01
  8.50000000E-01  8.00000000E-01  8.50000000E-01  8.50000000E-01  8.50000000E-01
  8.00000000E-01  8.50000000E-01  8.50000000E-01  8.50000000E-01  8.00000000E-01
  8.50000000E-01  8.50000000E-01  8.50000000E-01  8.00000000E-01  8.50000000E-01
  8.50000000E-01  8.50000000E-01  8.00000000E-01  8.50000000E-01  8.50000000E-01
  8.50000000E-01  8.00000000E-01  8.50000000E-01  8.50000000E-01  8.50000000E-01
  8.00000000E-01  8.50000000E-01  8.50000000E-01  8.50000000E-01  8.00000000E-01
  8.50000000E-01  8.50000000E-01  8.50000000E-01  8.00000000E-01  8.50000000E-01
  8.50000000E-01  8.50000000E-01  8.00000000E-01  8.50000000E-01  8.50000000E-01
  8.50000000E-01  8.00000000E-01  8.50000000E-01  8.50000000E-01  8.50000000E-01
  8.00000000E-01  8.50000000E-01  8.50000000E-01  8.50000000E-01  8.00000000E-01
  8.50000000E-01  8.50000000E-01  8.50000000E-01  8.00000000E-01  8.50000000E-01
  8.50000000E-01  8.50000000E-01  8.00000000E-01  8.50000000E-01  8.50000000E-01
  8.50000000E-01  8.00000000E-01  8.50000000E-01  8.50000000E-01  8.50000000E-01
  8.00000000E-01  8.50000000E-01  8.50000000E-01  8.50000000E-01  8.00000000E-01
  8.50000000E-01  8.50000000E-01  8.50000000E-01  8.00000000E-01  8.50000000E-01
  8.50000000E-01  8.50000000E-01  8.00000000E-01  8.50000000E-01  8.50000000E-01
  8.50000000E-01  8.00000000E-01  8.50000000E-01  8.50000000E-01  8.50000000E-01
  8.00000000E-01  8.50000000E-01  8.50000000E-01  8.50000000E-01  8.00000000E-01
  8.50000000E-01  8.50000000E-01  8.50000000E-01  8.00000000E-01  8.50000000E-01
  8.50000000E-01  8.50000000E-01  8.00000000E-01  8.50000000E-01  8.50000000E-01
  8.50000000E-01  8.00000000E-01  8.50000000E-01  8.50000000E-01  8.50000000E-01
  8.00000000E-01  8.50000000E-01  8.50000000E-01  8.50000000E-01  8.00000000E-01
  8.50000000E-01  8.50000000E-01  8.50000000E-01  8.00000000E-01  8.50000000E-01
  8.50000000E-01  8.50000000E-01  8.00000000E-01  8.50000000E-01  8.50000000E-01
  8.50000000E-01  8.00000000E-01  8.50000000E-01  8.50000000E-01  8.50000000E-01
  8.00000000E-01  8.50000000E-01  8.50000000E-01  8.50000000E-01  8.00000000E-01
  8.50000000E-01  8.50000000E-01  8.50000000E-01  8.00000000E-01  8.50000000E-01
  8.50000000E-01  8.50000000E-01  8.00000000E-01  8.50000000E-01  8.50000000E-01
  8.50000000E-01  8.00000000E-01  8.50000000E-01  8.50000000E-01  8.50000000E-01
  8.00000000E-01  8.50000000E-01  8.50000000E-01  8.50000000E-01  8.00000000E-01
  8.50000000E-01  8.50000000E-01  8.50000000E-01  8.00000000E-01  8.50000000E-01
  8.50000000E-01  8.50000000E-01  8.00000000E-01  8.50000000E-01  8.50000000E-01
  8.50000000E-01  8.00000000E-01  8.50000000E-01  8.50000000E-01  8.50000000E-01
  8.00000000E-01  8.50000000E-01  8.50000000E-01  8.50000000E-01  8.00000000E-01
  8.50000000E-01  8.50000000E-01  8.50000000E-01  8.00000000E-01  8.50000000E-01
  8.50000000E-01  8.50000000E-01  8.00000000E-01  8.50000000E-01  8.50000000E-01
  8.50000000E-01  8.00000000E-01  8.50000000E-01  8.50000000E-01  8.50000000E-01
  8.00000000E-01  8.50000000E-01  8.50000000E-01  8.50000000E-01  8.00000000E-01
  8.50000000E-01  8.50000000E-01  8.50000000E-01  8.00000000E-01  8.50000000E-01
  8.50000000E-01  8.50000000E-01  8.00000000E-01  8.50000000E-01  8.50000000E-01
  8.50000000E-01  8.00000000E-01  8.50000000E-01  8.50000000E-01  8.50000000E-01
  8.00000000E-01  8.50000000E-01  8.50000000E-01  8.50000000E-01  8.00000000E-01
  8.50000000E-01  8.50000000E-01  8.50000000E-01  8.00000000E-01  8.50000000E-01
  8.50000000E-01  8.50000000E-01  8.00000000E-01  8.50000000E-01  8.50000000E-01
  8.50000000E-01  8.00000000E-01  8.50000000E-01  8.50000000E-01  8.50000000E-01
  8.00000000E-01  8.50000000E-01  8.50000000E-01  8.50000000E-01  8.00000000E-01
  8.50000000E-01  8.50000000E-01  8.50000000E-01  8.00000000E-01  8.50000000E-01
  8.50000000E-01  8.50000000E-01  8.00000000E-01  8.50000000E-01  8.50000000E-01
  8.50000000E-01  8.00000000E-01  8.50000000E-01  8.50000000E-01  8.50000000E-01
  8.00000000E-01  8.50000000E-01  8.50000000E-01  8.50000000E-01  8.00000000E-01
  8.50000000E-01  8.50000000E-01  8.50000000E-01  8.00000000E-01  8.50000000E-01
  8.50000000E-01  8.50000000E-01  8.00000000E-01  8.50000000E-01  8.50000000E-01
  8.50000000E-01  8.00000000E-01  8.50000000E-01  8.50000000E-01  8.50000000E-01
  8.00000000E-01  8.50000000E-01  8.50000000E-01  8.50000000E-01  8.00000000E-01
  8.50000000E-01  8.50000000E-01  8.50000000E-01  8.00000000E-01  8.50000000E-01
  8.50000000E-01  8.50000000E-01  8.00000000E-01  8.50000000E-01  8.50000000E-01
  8.50000000E-01  8.00000000E-01  8.50000000E-01  8.50000000E-01  8.50000000E-01
  8.00000000E-01  8.50000000E-01  8.50000000E-01  8.50000000E-01  8.00000000E-01
  8.50000000E-01  8.50000000E-01  8.50000000E-01  8.00000000E-01  8.50000000E-01
  8.50000000E-01  8.50000000E-01  8.00000000E-01  8.50000000E-01  8.50000000E-01
  8.50000000E-01  8.00000000E-01  8.50000000E-01  8.50000000E-01  8.50000000E-01
  8.00000000E-01  8.50000000E-01  8.50000000E-01  8.50000000E-01  8.00000000E-01
  8.50000000E-01  8.50000000E-01  8.50000000E-01  8.00000000E-01  8.50000000E-01
  8.50000000E-01  8.50000000E-01  8.00000000E-01  8.50000000E-01  8.50000000E-01
  8.50000000E-01  8.00000000E-01  8.50000000E-01  8.50000000E-01  8.50000000E-01
  8.00000000E-01  8.50000000E-01  8.50000000E-01  8.50000000E-01  8.00000000E-01
  8.50000000E-01  8.50000000E-01  8.50000000E-01  8.00000000E-01  8.50000000E-01
  8.50000000E-01  8.50000000E-01  8.00000000E-01  8.50000000E-01  8.50000000E-01
  8.50000000E-01  8.00000000E-01  8.50000000E-01  8.50000000E-01  8.50000000E-01
  8.00000000E-01  8.50000000E-01  8.50000000E-01  8.50000000E-01  8.00000000E-01
  8.50000000E-01  8.50000000E-01  8.50000000E-01  8.00000000E-01  8.50000000E-01
  8.50000000E-01  8.50000000E-01  8.00000000E-01  8.50000000E-01  8.50000000E-01
  8.50000000E-01  8.00000000E-01  8.50000000E-01  8.50000000E-01  8.50000000E-01
  8.00000000E-01  8.50000000E-01  8.50000000E-01  8.50000000E-01  8.00000000E-01
  8.50000000E-01  8.50000000E-01  8.50000000E-01  8.00000000E-01  8.50000000E-01
  8.50000000E-01  8.50000000E-01  8.00000000E-01  8.50000000E-01  8.50000000E-01
  8.50000000E-01  8.00000000E-01  8.50000000E-01  8.50000000E-01  8.50000000E-01
  8.00000000E-01  8.50000000E-01  8.50000000E-01  8.50000000E-01  8.00000000E-01
  8.50000000E-01  8.50000000E-01  8.50000000E-01  8.00000000E-01  8.50000000E-01
  8.50000000E-01  8.50000000E-01  8.00000000E-01  8.50000000E-01  8.50000000E-01
  8.50000000E-01  8.00000000E-01  8.50000000E-01  8.50000000E-01  8.50000000E-01
  8.00000000E-01  8.50000000E-01  8.50000000E-01  8.50000000E-01  8.00000000E-01
  8.50000000E-01  8.50000000E-01  8.50000000E-01  8.00000000E-01  8.50000000E-01
  8.50000000E-01  8.50000000E-01  8.00000000E-01  8.50000000E-01  8.50000000E-01
  8.50000000E-01  8.00000000E-01  8.50000000E-01  8.50000000E-01  8.50000000E-01
  8.00000000E-01  8.50000000E-01  8.50000000E-01  8.50000000E-01  8.00000000E-01
  8.50000000E-01  8.50000000E-01  8.50000000E-01  8.00000000E-01  8.50000000E-01
  8.50000000E-01  8.50000000E-01  8.00000000E-01  8.50000000E-01  8.50000000E-01
  8.50000000E-01  8.00000000E-01  8.50000000E-01  8.50000000E-01  8.50000000E-01
  8.00000000E-01  8.50000000E-01  8.50000000E-01  8.50000000E-01  8.00000000E-01
  8.50000000E-01  8.50000000E-01  8.50000000E-01  8.00000000E-01  8.50000000E-01
  8.50000000E-01  8.50000000E-01  8.00000000E-01  8.50000000E-01  8.50000000E-01
  8.50000000E-01  8.00000000E-01  8.50000000E-01  8.50000000E-01  8.50000000E-01
  8.00000000E-01  8.50000000E-01  8.50000000E-01  8.50000000E-01  8.00000000E-01
  8.50000000E-01  8.50000000E-01  8.50000000E-01  8.00000000E-01  8.50000000E-01
  8.50000000E-01  8.50000000E-01  8.00000000E-01  8.50000000E-01  8.50000000E-01
  8.50000000E-01  8.00000000E-01  8.50000000E-01  8.50000000E-01  8.50000000E-01
  8.00000000E-01  8.50000000E-01  8.50000000E-01  8.50000000E-01  8.00000000E-01
  8.50000000E-01  8.50000000E-01  8.50000000E-01  8.00000000E-01  8.50000000E-01
  8.50000000E-01  8.50000000E-01  8.00000000E-01  8.50000000E-01  8.50000000E-01
  8.50000000E-01  8.00000000E-01  8.50000000E-01  8.50000000E-01  8.50000000E-01
  8.00000000E-01  8.50000000E-01  8.50000000E-01  8.50000000E-01  8.00000000E-01
  8.50000000E-01  8.50000000E-01  8.50000000E-01  8.00000000E-01  8.50000000E-01
  8.50000000E-01  8.50000000E-01  8.00000000E-01  8.50000000E-01  8.50000000E-01
  8.50000000E-01  8.00000000E-01  8.50000000E-01  8.50000000E-01  8.50000000E-01
  8.00000000E-01  8.50000000E-01  8.50000000E-01  8.50000000E-01  8.00000000E-01
  8.50000000E-01  8.50000000E-01  8.50000000E-01  8.00000000E-01  8.50000000E-01
  8.50000000E-01  8.50000000E-01  8.00000000E-01  8.50000000E-01  8.50000000E-01
  8.50000000E-01  8.00000000E-01  8.50000000E-01  8.50000000E-01  8.50000000E-01
  8.00000000E-01  8.50000000E-01  8.50000000E-01  8.50000000E-01  8.00000000E-01
  8.50000000E-01  8.50000000E-01  8.50000000E-01  8.00000000E-01  8.50000000E-01
  8.50000000E-01  8.50000000E-01  8.00000000E-01  8.50000000E-01  8.50000000E-01
  8.50000000E-01  8.00000000E-01  8.50000000E-01  8.50000000E-01  8.50000000E-01
  8.00000000E-01  8.50000000E-01  8.50000000E-01  8.50000000E-01  8.00000000E-01
  8.50000000E-01  8.50000000E-01  8.50000000E-01  8.00000000E-01  8.50000000E-01
  8.50000000E-01  8.50000000E-01  8.00000000E-01  8.50000000E-01  8.50000000E-01
  8.50000000E-01  8.00000000E-01  8.50000000E-01  8.50000000E-01  8.50000000E-01
  8.00000000E-01  8.50000000E-01  8.50000000E-01  8.50000000E-01  8.00000000E-01
  8.50000000E-01  8.50000000E-01  8.50000000E-01  8.00000000E-01  8.50000000E-01
  8.50000000E-01  8.50000000E-01  8.00000000E-01  8.50000000E-01  8.50000000E-01
  8.50000000E-01  8.00000000E-01  8.50000000E-01  8.50000000E-01  8.50000000E-01
  8.00000000E-01  8.50000000E-01  8.50000000E-01  8.50000000E-01  8.00000000E-01
  8.50000000E-01  8.50000000E-01  8.50000000E-01  8.00000000E-01  8.50000000E-01
  8.50000000E-01  8.50000000E-01  8.00000000E-01  8.50000000E-01  8.50000000E-01
  8.50000000E-01  8.00000000E-01  8.50000000E-01  8.50000000E-01  8.50000000E-01
  8.00000000E-01  8.50000000E-01  8.50000000E-01  8.50000000E-01  8.00000000E-01
  8.50000000E-01  8.50000000E-01  8.50000000E-01  8.00000000E-01  8.50000000E-01
  8.50000000E-01  8.50000000E-01  8.00000000E-01  8.50000000E-01  8.50000000E-01
  8.50000000E-01  8.00000000E-01  8.50000000E-01  8.50000000E-01  8.50000000E-01
  8.00000000E-01  8.50000000E-01  8.50000000E-01  8.50000000E-01  8.00000000E-01
  8.50000000E-01  8.50000000E-01  8.50000000E-01  8.00000000E-01  8.50000000E-01
  8.50000000E-01  8.50000000E-01  8.00000000E-01  8.50000000E-01  8.50000000E-01
  8.50000000E-01  8.00000000E-01  8.50000000E-01  8.50000000E-01  8.50000000E-01
  8.00000000E-01  8.50000000E-01  8.50000000E-01  8.50000000E-01  8.00000000E-01
  8.50000000E-01  8.50000000E-01  8.50000000E-01  8.00000000E-01  8.50000000E-01
  8.50000000E-01  8.50000000E-01  8.00000000E-01  8.50000000E-01  8.50000000E-01
  8.50000000E-01  8.00000000E-01  8.50000000E-01  8.50000000E-01  8.50000000E-01
  8.00000000E-01  8.50000000E-01  8.50000000E-01  8.50000000E-01  8.00000000E-01
  8.50000000E-01  8.50000000E-01  8.50000000E-01  8.00000000E-01  8.50000000E-01
  8.50000000E-01  8.50000000E-01  8.00000000E-01  8.50000000E-01  8.50000000E-01
  8.50000000E-01  8.00000000E-01  8.50000000E-01  8.50000000E-01  8.50000000E-01
  8.00000000E-01  8.50000000E-01  8.50000000E-01  8.50000000E-01  8.00000000E-01
  8.50000000E-01  8.50000000E-01  8.50000000E-01  8.00000000E-01  8.50000000E-01
  8.50000000E-01  8.50000000E-01  8.00000000E-01  8.50000000E-01  8.50000000E-01
  8.50000000E-01  8.00000000E-01  8.50000000E-01  8.50000000E-01  8.50000000E-01
  8.00000000E-01  8.50000000E-01  8.50000000E-01  8.50000000E-01  8.00000000E-01
  8.50000000E-01  8.50000000E-01  8.50000000E-01  8.00000000E-01  8.50000000E-01
  8.50000000E-01  8.50000000E-01  8.00000000E-01  8.50000000E-01  8.50000000E-01
  8.50000000E-01  8.00000000E-01  8.50000000E-01  8.50000000E-01  8.50000000E-01
  8.00000000E-01  8.50000000E-01  8.50000000E-01  8.50000000E-01  8.00000000E-01
  8.50000000E-01  8.50000000E-01  8.50000000E-01  8.00000000E-01  8.50000000E-01
  8.50000000E-01  8.50000000E-01  8.00000000E-01  8.50000000E-01  8.50000000E-01
  8.50000000E-01  8.00000000E-01  8.50000000E-01  8.50000000E-01  8.50000000E-01
  8.00000000E-01  8.50000000E-01  8.50000000E-01  8.50000000E-01  8.00000000E-01
  8.50000000E-01  8.50000000E-01  8.50000000E-01  8.00000000E-01  8.50000000E-01
  8.50000000E-01  8.50000000E-01  8.00000000E-01  8.50000000E-01  8.50000000E-01
  8.50000000E-01  8.00000000E-01  8.50000000E-01  8.50000000E-01  8.50000000E-01
  8.00000000E-01  8.50000000E-01  8.50000000E-01  8.50000000E-01  8.00000000E-01
  8.50000000E-01  8.50000000E-01  8.50000000E-01  8.00000000E-01  8.50000000E-01
  8.50000000E-01  8.50000000E-01  8.00000000E-01  8.50000000E-01  8.50000000E-01
  8.50000000E-01  8.00000000E-01  8.50000000E-01  8.50000000E-01  8.50000000E-01
  8.00000000E-01  8.50000000E-01  8.50000000E-01  8.50000000E-01  8.00000000E-01
  8.50000000E-01  8.50000000E-01  8.50000000E-01  8.00000000E-01  8.50000000E-01
  8.50000000E-01  8.50000000E-01  8.00000000E-01  8.50000000E-01  8.50000000E-01
  8.50000000E-01  8.00000000E-01  8.50000000E-01  8.50000000E-01  8.50000000E-01
  8.00000000E-01  8.50000000E-01  8.50000000E-01  8.50000000E-01  8.00000000E-01
  8.50000000E-01  8.50000000E-01  8.50000000E-01  8.00000000E-01  8.50000000E-01
  8.50000000E-01  8.50000000E-01  8.00000000E-01  8.50000000E-01  8.50000000E-01
  8.50000000E-01  8.00000000E-01  8.50000000E-01  8.50000000E-01  8.50000000E-01
  8.00000000E-01  8.50000000E-01  8.50000000E-01  8.50000000E-01  8.00000000E-01
  8.50000000E-01  8.50000000E-01  8.50000000E-01  8.00000000E-01  8.50000000E-01
  8.50000000E-01  8.50000000E-01  8.00000000E-01  8.50000000E-01  8.50000000E-01
  8.50000000E-01  8.00000000E-01  8.50000000E-01  8.50000000E-01  8.50000000E-01
  8.00000000E-01  8.50000000E-01  8.50000000E-01  8.50000000E-01  8.00000000E-01
  8.50000000E-01  8.50000000E-01  8.50000000E-01  8.00000000E-01  8.50000000E-01
  8.50000000E-01  8.50000000E-01  8.00000000E-01  8.50000000E-01  8.50000000E-01
  8.50000000E-01  8.00000000E-01  8.50000000E-01  8.50000000E-01  8.50000000E-01
  8.00000000E-01  8.50000000E-01  8.50000000E-01  8.50000000E-01  8.00000000E-01
  8.50000000E-01  8.50000000E-01  8.50000000E-01  8.00000000E-01  8.50000000E-01
  8.50000000E-01  8.50000000E-01  8.00000000E-01  8.50000000E-01  8.50000000E-01
  8.50000000E-01  8.00000000E-01  8.50000000E-01  8.50000000E-01  8.50000000E-01
  8.00000000E-01  8.50000000E-01  8.50000000E-01  8.50000000E-01  8.00000000E-01
  8.50000000E-01  8.50000000E-01  8.50000000E-01  8.00000000E-01  8.50000000E-01
  8.50000000E-01  8.50000000E-01  8.00000000E-01  8.50000000E-01  8.50000000E-01
  8.50000000E-01  8.00000000E-01  8.50000000E-01  8.50000000E-01  8.50000000E-01
  8.00000000E-01  8.50000000E-01  8.50000000E-01  8.50000000E-01  8.00000000E-01
  8.50000000E-01  8.50000000E-01  8.50000000E-01  8.00000000E-01  8.50000000E-01
  8.50000000E-01  8.50000000E-01  8.00000000E-01  8.50000000E-01  8.50000000E-01
  8.50000000E-01  8.00000000E-01  8.50000000E-01  8.50000000E-01  8.50000000E-01
  8.00000000E-01  8.50000000E-01  8.50000000E-01  8.50000000E-01  8.00000000E-01
  8.50000000E-01  8.50000000E-01  8.50000000E-01  8.00000000E-01  8.50000000E-01
  8.50000000E-01  8.50000000E-01  8.00000000E-01  8.50000000E-01  8.50000000E-01
  8.50000000E-01  8.00000000E-01  8.50000000E-01  8.50000000E-01  8.50000000E-01
  8.00000000E-01  8.50000000E-01  8.50000000E-01  8.50000000E-01  8.00000000E-01
  8.50000000E-01  8.50000000E-01  8.50000000E-01  8.00000000E-01  8.50000000E-01
  8.50000000E-01  8.50000000E-01  8.00000000E-01  8.50000000E-01  8.50000000E-01
  8.50000000E-01  8.00000000E-01  8.50000000E-01  8.50000000E-01  8.50000000E-01
  8.00000000E-01  8.50000000E-01  8.50000000E-01  8.50000000E-01  8.00000000E-01
  8.50000000E-01  8.50000000E-01  8.50000000E-01  8.00000000E-01  8.50000000E-01
  8.50000000E-01  8.50000000E-01  8.00000000E-01  8.50000000E-01  8.50000000E-01
  8.50000000E-01  8.00000000E-01  8.50000000E-01  8.50000000E-01  8.50000000E-01
  8.00000000E-01  8.50000000E-01  8.50000000E-01  8.50000000E-01  8.00000000E-01
  8.50000000E-01  8.50000000E-01  8.50000000E-01  8.00000000E-01  8.50000000E-01
  8.50000000E-01  8.50000000E-01  8.00000000E-01  8.50000000E-01  8.50000000E-01
  8.50000000E-01  8.00000000E-01  8.50000000E-01  8.50000000E-01  8.50000000E-01
  8.00000000E-01  8.50000000E-01  8.50000000E-01  8.50000000E-01  8.00000000E-01
  8.50000000E-01  8.50000000E-01  8.50000000E-01  8.00000000E-01  8.50000000E-01
  8.50000000E-01  8.50000000E-01  8.00000000E-01  8.50000000E-01  8.50000000E-01
  8.50000000E-01  8.00000000E-01  8.50000000E-01  8.50000000E-01  8.50000000E-01
  8.00000000E-01  8.50000000E-01  8.50000000E-01  8.50000000E-01  8.00000000E-01
  8.50000000E-01  8.50000000E-01  8.50000000E-01  8.00000000E-01  8.50000000E-01
  8.50000000E-01  8.50000000E-01  8.00000000E-01  8.50000000E-01  8.50000000E-01
  8.50000000E-01  8.00000000E-01  8.50000000E-01  8.50000000E-01  8.50000000E-01
  8.00000000E-01  8.50000000E-01  8.50000000E-01  8.50000000E-01  8.00000000E-01
  8.50000000E-01  8.50000000E-01  8.50000000E-01  8.00000000E-01  8.50000000E-01
  8.50000000E-01  8.50000000E-01  8.00000000E-01  8.50000000E-01  8.50000000E-01
  8.50000000E-01  8.00000000E-01  8.50000000E-01  8.50000000E-01  8.50000000E-01
  8.00000000E-01  8.50000000E-01  8.50000000E-01  8.50000000E-01  8.00000000E-01
  8.50000000E-01  8.50000000E-01  8.50000000E-01  8.00000000E-01  8.50000000E-01
  8.50000000E-01  8.50000000E-01  8.00000000E-01  8.50000000E-01  8.50000000E-01
  8.50000000E-01  8.00000000E-01  8.50000000E-01  8.50000000E-01  8.50000000E-01
  8.00000000E-01  8.50000000E-01  8.50000000E-01  8.50000000E-01  8.00000000E-01
  8.50000000E-01  8.50000000E-01  8.50000000E-01  8.00000000E-01  8.50000000E-01
  8.50000000E-01  8.50000000E-01  8.00000000E-01  8.50000000E-01  8.50000000E-01
  8.50000000E-01  8.00000000E-01  8.50000000E-01  8.50000000E-01  8.50000000E-01
  8.00000000E-01  8.50000000E-01  8.50000000E-01  8.50000000E-01  8.00000000E-01
  8.50000000E-01  8.50000000E-01  8.50000000E-01  8.00000000E-01  8.50000000E-01
  8.50000000E-01  8.50000000E-01  8.00000000E-01  8.50000000E-01  8.50000000E-01
  8.50000000E-01  8.00000000E-01  8.50000000E-01  8.50000000E-01  8.50000000E-01
  8.00000000E-01  8.50000000E-01  8.50000000E-01  8.50000000E-01  8.00000000E-01
  8.50000000E-01  8.50000000E-01  8.50000000E-01  8.00000000E-01  8.50000000E-01
  8.50000000E-01  8.50000000E-01  8.00000000E-01  8.50000000E-01  8.50000000E-01
  8.50000000E-01  8.00000000E-01  8.50000000E-01  8.50000000E-01  8.50000000E-01
  8.00000000E-01  8.50000000E-01  8.50000000E-01  8.50000000E-01  8.00000000E-01
  8.50000000E-01  8.50000000E-01  8.50000000E-01  8.00000000E-01  8.50000000E-01
  8.50000000E-01  8.50000000E-01  8.00000000E-01  8.50000000E-01  8.50000000E-01
  8.50000000E-01  8.00000000E-01  8.50000000E-01  8.50000000E-01  8.50000000E-01
  8.00000000E-01  8.50000000E-01  8.50000000E-01  8.50000000E-01  8.00000000E-01
  8.50000000E-01  8.50000000E-01  8.50000000E-01  8.00000000E-01  8.50000000E-01
  8.50000000E-01  8.50000000E-01  8.00000000E-01  8.50000000E-01  8.50000000E-01
  8.50000000E-01  8.00000000E-01  8.50000000E-01  8.50000000E-01  8.50000000E-01
  8.00000000E-01  8.50000000E-01  8.50000000E-01  8.50000000E-01  8.00000000E-01
  8.50000000E-01  8.50000000E-01  8.50000000E-01  8.00000000E-01  8.50000000E-01
  8.50000000E-01  8.50000000E-01  8.00000000E-01  8.50000000E-01  8.50000000E-01
  8.50000000E-01  8.00000000E-01  8.50000000E-01  8.50000000E-01  8.50000000E-01
  8.00000000E-01  8.50000000E-01  8.50000000E-01  8.50000000E-01  8.00000000E-01
  8.50000000E-01  8.50000000E-01  8.50000000E-01  8.00000000E-01  8.50000000E-01
  8.50000000E-01  8.50000000E-01  8.00000000E-01  8.50000000E-01  8.50000000E-01
  8.50000000E-01  8.00000000E-01  8.50000000E-01  8.50000000E-01  8.50000000E-01
  8.00000000E-01  8.50000000E-01  8.50000000E-01  8.50000000E-01  8.00000000E-01
  8.50000000E-01  8.50000000E-01  8.50000000E-01  8.00000000E-01  8.50000000E-01
  8.50000000E-01  8.50000000E-01  8.00000000E-01  8.50000000E-01  8.50000000E-01
  8.50000000E-01  8.00000000E-01  8.50000000E-01  8.50000000E-01  8.50000000E-01
  8.00000000E-01  8.50000000E-01  8.50000000E-01  8.50000000E-01  8.00000000E-01
  8.50000000E-01  8.50000000E-01  8.50000000E-01  8.00000000E-01  8.50000000E-01
  8.50000000E-01  8.50000000E-01  8.00000000E-01  8.50000000E-01  8.50000000E-01
  8.50000000E-01  8.00000000E-01  8.50000000E-01  8.50000000E-01  8.50000000E-01
  8.00000000E-01  8.50000000E-01  8.50000000E-01  8.50000000E-01  8.00000000E-01
  8.50000000E-01  8.50000000E-01  8.50000000E-01  8.00000000E-01  8.50000000E-01
  8.50000000E-01  8.50000000E-01  8.00000000E-01  8.50000000E-01  8.50000000E-01
  8.50000000E-01  8.00000000E-01  8.50000000E-01  8.50000000E-01  8.50000000E-01
  8.00000000E-01  8.50000000E-01  8.50000000E-01  8.50000000E-01  8.00000000E-01
  8.50000000E-01  8.50000000E-01  8.50000000E-01  8.00000000E-01  8.50000000E-01
  8.50000000E-01  8.50000000E-01  8.00000000E-01  8.50000000E-01  8.50000000E-01
  8.50000000E-01  8.00000000E-01  8.50000000E-01  8.50000000E-01  8.50000000E-01
  8.00000000E-01  8.50000000E-01  8.50000000E-01  8.50000000E-01  8.00000000E-01
  8.50000000E-01  8.50000000E-01  8.50000000E-01  8.00000000E-01  8.50000000E-01
  8.50000000E-01  8.50000000E-01  8.00000000E-01  8.50000000E-01  8.50000000E-01
  8.50000000E-01  8.00000000E-01  8.50000000E-01  8.50000000E-01  8.50000000E-01
  8.00000000E-01  8.50000000E-01  8.50000000E-01  8.50000000E-01  8.00000000E-01
  8.50000000E-01  8.50000000E-01  8.50000000E-01  8.00000000E-01  8.50000000E-01
  8.50000000E-01  8.50000000E-01  8.00000000E-01  8.50000000E-01  8.50000000E-01
  8.50000000E-01  8.00000000E-01  8.50000000E-01  8.50000000E-01  8.50000000E-01
  8.00000000E-01  8.50000000E-01  8.50000000E-01  8.50000000E-01  8.00000000E-01
  8.50000000E-01  8.50000000E-01  8.50000000E-01  8.00000000E-01  8.50000000E-01
  8.50000000E-01  8.50000000E-01  8.00000000E-01  8.50000000E-01  8.50000000E-01
  8.50000000E-01  8.00000000E-01  8.50000000E-01  8.50000000E-01  8.50000000E-01
  8.00000000E-01  8.50000000E-01  8.50000000E-01  8.50000000E-01  8.00000000E-01
  8.50000000E-01  8.50000000E-01  8.50000000E-01  8.00000000E-01  8.50000000E-01
  8.50000000E-01  8.50000000E-01  8.00000000E-01  8.50000000E-01  8.50000000E-01
  8.50000000E-01  8.00000000E-01  8.50000000E-01  8.50000000E-01  8.50000000E-01
  8.00000000E-01  8.50000000E-01  8.50000000E-01  8.50000000E-01  8.00000000E-01
  8.50000000E-01  8.50000000E-01  8.50000000E-01  8.00000000E-01  8.50000000E-01
  8.50000000E-01  8.50000000E-01  8.00000000E-01  8.50000000E-01  8.50000000E-01
  8.50000000E-01  8.00000000E-01  8.50000000E-01  8.50000000E-01  8.50000000E-01
  8.00000000E-01  8.50000000E-01  8.50000000E-01  8.50000000E-01  8.00000000E-01
  8.50000000E-01  8.50000000E-01  8.50000000E-01  8.00000000E-01  8.50000000E-01
  8.50000000E-01  8.50000000E-01  8.00000000E-01  8.50000000E-01  8.50000000E-01
  8.50000000E-01  8.00000000E-01  8.50000000E-01  8.50000000E-01  8.50000000E-01
  8.00000000E-01  8.50000000E-01  8.50000000E-01  8.50000000E-01  8.00000000E-01
  8.50000000E-01  8.50000000E-01  8.50000000E-01  8.00000000E-01  8.50000000E-01
  8.50000000E-01  8.50000000E-01  8.00000000E-01  8.50000000E-01  8.50000000E-01
  8.50000000E-01  8.00000000E-01  8.50000000E-01  8.50000000E-01  8.50000000E-01
  8.00000000E-01  8.50000000E-01  8.50000000E-01  8.50000000E-01  8.00000000E-01
  8.50000000E-01  8.50000000E-01  8.50000000E-01  8.00000000E-01  8.50000000E-01
  8.50000000E-01  8.50000000E-01  8.00000000E-01  8.50000000E-01  8.50000000E-01
  8.50000000E-01  8.00000000E-01  8.50000000E-01  8.50000000E-01  8.50000000E-01
  8.00000000E-01  8.50000000E-01  8.50000000E-01  8.50000000E-01  8.00000000E-01
  8.50000000E-01  8.50000000E-01  8.50000000E-01  8.00000000E-01  8.50000000E-01
  8.50000000E-01  8.50000000E-01  8.00000000E-01  8.50000000E-01  8.50000000E-01
  8.50000000E-01  8.00000000E-01  8.50000000E-01  8.50000000E-01  8.50000000E-01
  8.00000000E-01  8.50000000E-01  8.50000000E-01  8.50000000E-01  8.00000000E-01
  8.50000000E-01  8.50000000E-01  8.50000000E-01  8.00000000E-01  8.50000000E-01
  8.50000000E-01  8.50000000E-01  8.00000000E-01  8.50000000E-01  8.50000000E-01
  8.50000000E-01  8.00000000E-01  8.50000000E-01  8.50000000E-01  8.50000000E-01
  8.00000000E-01  8.50000000E-01  8.50000000E-01  8.50000000E-01  8.00000000E-01
  8.50000000E-01  8.50000000E-01  8.50000000E-01  8.00000000E-01  8.50000000E-01
  8.50000000E-01  8.50000000E-01  8.00000000E-01  8.50000000E-01  8.50000000E-01
  8.50000000E-01  8.00000000E-01  8.50000000E-01  8.50000000E-01  8.50000000E-01
  8.00000000E-01  8.50000000E-01  8.50000000E-01  8.50000000E-01  8.00000000E-01
  8.50000000E-01  8.50000000E-01  8.50000000E-01  8.00000000E-01  8.50000000E-01
  8.50000000E-01  8.50000000E-01  8.00000000E-01  8.50000000E-01  8.50000000E-01
  8.50000000E-01  8.00000000E-01  8.50000000E-01  8.50000000E-01  8.50000000E-01
  8.00000000E-01  8.50000000E-01  8.50000000E-01  8.50000000E-01  8.00000000E-01
  8.50000000E-01  8.50000000E-01  8.50000000E-01  8.00000000E-01  8.50000000E-01
  8.50000000E-01  8.50000000E-01  8.00000000E-01  8.50000000E-01  8.50000000E-01
  8.50000000E-01  8.00000000E-01  8.50000000E-01  8.50000000E-01  8.50000000E-01
  8.00000000E-01  8.50000000E-01  8.50000000E-01  8.50000000E-01  8.00000000E-01
  8.50000000E-01  8.50000000E-01  8.50000000E-01  8.00000000E-01  8.50000000E-01
  8.50000000E-01  8.50000000E-01  8.00000000E-01  8.50000000E-01  8.50000000E-01
  8.50000000E-01  8.00000000E-01  8.50000000E-01  8.50000000E-01  8.50000000E-01
  8.00000000E-01  8.50000000E-01  8.50000000E-01  8.50000000E-01  8.00000000E-01
  8.50000000E-01  8.50000000E-01  8.50000000E-01  8.00000000E-01  8.50000000E-01
  8.50000000E-01  8.50000000E-01  8.00000000E-01  8.50000000E-01  8.50000000E-01
  8.50000000E-01  8.00000000E-01  8.50000000E-01  8.50000000E-01  8.50000000E-01
  8.00000000E-01  8.50000000E-01  8.50000000E-01  8.50000000E-01  8.00000000E-01
  8.50000000E-01  8.50000000E-01  8.50000000E-01  8.00000000E-01  8.50000000E-01
  8.50000000E-01  8.50000000E-01  8.00000000E-01  8.50000000E-01  8.50000000E-01
  8.50000000E-01  8.00000000E-01  8.50000000E-01  8.50000000E-01  8.50000000E-01
  8.00000000E-01  8.50000000E-01  8.50000000E-01  8.50000000E-01  8.00000000E-01
  8.50000000E-01  8.50000000E-01  8.50000000E-01  8.00000000E-01  8.50000000E-01
  8.50000000E-01  8.50000000E-01  8.00000000E-01  8.50000000E-01  8.50000000E-01
  8.50000000E-01  8.00000000E-01  8.50000000E-01  8.50000000E-01  8.50000000E-01
  8.00000000E-01  8.50000000E-01  8.50000000E-01  8.50000000E-01  8.00000000E-01
  8.50000000E-01  8.50000000E-01  8.50000000E-01  8.00000000E-01  8.50000000E-01
  8.50000000E-01  8.50000000E-01  8.00000000E-01  8.50000000E-01  8.50000000E-01
  8.50000000E-01  8.00000000E-01  8.50000000E-01  8.50000000E-01  8.50000000E-01
  8.00000000E-01  8.50000000E-01  8.50000000E-01  8.50000000E-01  8.00000000E-01
  8.50000000E-01  8.50000000E-01  8.50000000E-01  8.00000000E-01  8.50000000E-01
  8.50000000E-01  8.50000000E-01  8.00000000E-01  8.50000000E-01  8.50000000E-01
  8.50000000E-01  8.00000000E-01  8.50000000E-01  8.50000000E-01  8.50000000E-01
  8.00000000E-01  8.50000000E-01  8.50000000E-01  8.50000000E-01  8.00000000E-01
  8.50000000E-01  8.50000000E-01  8.50000000E-01  8.00000000E-01  8.50000000E-01
  8.50000000E-01  8.50000000E-01  8.00000000E-01  8.50000000E-01  8.50000000E-01
  8.50000000E-01  8.00000000E-01  8.50000000E-01  8.50000000E-01  8.50000000E-01
  8.00000000E-01  8.50000000E-01  8.50000000E-01  8.50000000E-01  8.00000000E-01
  8.50000000E-01  8.50000000E-01  8.50000000E-01  8.00000000E-01  8.50000000E-01
  8.50000000E-01  8.50000000E-01  8.00000000E-01  8.50000000E-01  8.50000000E-01
  8.50000000E-01  8.00000000E-01  8.50000000E-01  8.50000000E-01  8.50000000E-01
  8.00000000E-01  8.50000000E-01  8.50000000E-01  8.50000000E-01  8.00000000E-01
  8.50000000E-01  8.50000000E-01  8.50000000E-01  8.00000000E-01  8.50000000E-01
  8.50000000E-01  8.50000000E-01  8.00000000E-01  8.50000000E-01  8.50000000E-01
  8.50000000E-01  8.00000000E-01  8.50000000E-01  8.50000000E-01  8.50000000E-01
  8.00000000E-01  8.50000000E-01  8.50000000E-01  8.50000000E-01  8.00000000E-01
  8.50000000E-01  8.50000000E-01  8.50000000E-01  8.00000000E-01  8.50000000E-01
  8.50000000E-01  8.50000000E-01  8.00000000E-01  8.50000000E-01  8.50000000E-01
  8.50000000E-01  8.00000000E-01  8.50000000E-01  8.50000000E-01  8.50000000E-01
  8.00000000E-01  8.50000000E-01  8.50000000E-01  8.50000000E-01  8.00000000E-01
  8.50000000E-01  8.50000000E-01  8.50000000E-01  8.00000000E-01  8.50000000E-01
  8.50000000E-01  8.50000000E-01  8.00000000E-01  8.50000000E-01  8.50000000E-01
  8.50000000E-01  8.00000000E-01  8.50000000E-01  8.50000000E-01  8.50000000E-01
  8.00000000E-01  8.50000000E-01  8.50000000E-01  8.50000000E-01  8.00000000E-01
  8.50000000E-01  8.50000000E-01  8.50000000E-01  8.00000000E-01  8.50000000E-01
  8.50000000E-01  8.50000000E-01  8.00000000E-01  8.50000000E-01  8.50000000E-01
  8.50000000E-01  8.00000000E-01  8.50000000E-01  8.50000000E-01  8.50000000E-01
  8.00000000E-01  8.50000000E-01  8.50000000E-01  8.50000000E-01  8.00000000E-01
  8.50000000E-01  8.50000000E-01  8.50000000E-01  8.00000000E-01  8.50000000E-01
  8.50000000E-01  8.50000000E-01  8.00000000E-01  8.50000000E-01  8.50000000E-01
  8.50000000E-01  8.00000000E-01  8.50000000E-01  8.50000000E-01  8.50000000E-01
  8.00000000E-01  8.50000000E-01  8.50000000E-01  8.50000000E-01  8.00000000E-01
  8.50000000E-01  8.50000000E-01  8.50000000E-01  8.00000000E-01  8.50000000E-01
  8.50000000E-01  8.50000000E-01  8.00000000E-01  8.50000000E-01  8.50000000E-01
  8.50000000E-01  8.00000000E-01  8.50000000E-01  8.50000000E-01  8.50000000E-01
  8.00000000E-01  8.50000000E-01  8.50000000E-01  8.50000000E-01  8.00000000E-01
  8.50000000E-01  8.50000000E-01  8.50000000E-01  8.00000000E-01  8.50000000E-01
  8.50000000E-01  8.50000000E-01  8.00000000E-01  8.50000000E-01  8.50000000E-01
  8.50000000E-01  8.00000000E-01  8.50000000E-01  8.50000000E-01  8.50000000E-01
  8.00000000E-01  8.50000000E-01  8.50000000E-01  8.50000000E-01  8.00000000E-01
  8.50000000E-01  8.50000000E-01  8.50000000E-01  8.00000000E-01  8.50000000E-01
  8.50000000E-01  8.50000000E-01  8.00000000E-01  8.50000000E-01  8.50000000E-01
  8.50000000E-01  8.00000000E-01  8.50000000E-01  8.50000000E-01  8.50000000E-01
  8.00000000E-01  8.50000000E-01  8.50000000E-01  8.50000000E-01  8.00000000E-01
  8.50000000E-01  8.50000000E-01  8.50000000E-01  8.00000000E-01  8.50000000E-01
  8.50000000E-01  8.50000000E-01  8.00000000E-01  8.50000000E-01  8.50000000E-01
  8.50000000E-01  8.00000000E-01  8.50000000E-01  8.50000000E-01  8.50000000E-01
  8.00000000E-01  8.50000000E-01  8.50000000E-01  8.50000000E-01  8.00000000E-01
  8.50000000E-01  8.50000000E-01  8.50000000E-01  8.00000000E-01  8.50000000E-01
  8.50000000E-01  8.50000000E-01  8.00000000E-01  8.50000000E-01  8.50000000E-01
  8.50000000E-01  8.00000000E-01  8.50000000E-01  8.50000000E-01  8.50000000E-01
  8.00000000E-01  8.50000000E-01  8.50000000E-01  8.50000000E-01  8.00000000E-01
  8.50000000E-01  8.50000000E-01  8.50000000E-01  8.00000000E-01  8.50000000E-01
  8.50000000E-01  8.50000000E-01  8.00000000E-01  8.50000000E-01  8.50000000E-01
  8.50000000E-01  8.00000000E-01  8.50000000E-01  8.50000000E-01  8.50000000E-01
  8.00000000E-01  8.50000000E-01  8.50000000E-01  8.50000000E-01  8.00000000E-01
  8.50000000E-01  8.50000000E-01  8.50000000E-01  8.00000000E-01  8.50000000E-01
  8.50000000E-01  8.50000000E-01  8.00000000E-01  8.50000000E-01  8.50000000E-01
  8.50000000E-01  8.00000000E-01  8.50000000E-01  8.50000000E-01  8.50000000E-01
  8.00000000E-01  8.50000000E-01  8.50000000E-01  8.50000000E-01  8.00000000E-01
  8.50000000E-01  8.50000000E-01  8.50000000E-01  8.00000000E-01  8.50000000E-01
  8.50000000E-01  8.50000000E-01  8.00000000E-01  8.50000000E-01  8.50000000E-01
  8.50000000E-01  8.00000000E-01  8.50000000E-01  8.50000000E-01  8.50000000E-01
  8.00000000E-01  8.50000000E-01  8.50000000E-01  8.50000000E-01  8.00000000E-01
  8.50000000E-01  8.50000000E-01  8.50000000E-01  8.00000000E-01  8.50000000E-01
  8.50000000E-01  8.50000000E-01  8.00000000E-01  8.50000000E-01  8.50000000E-01
  8.50000000E-01  8.00000000E-01  8.50000000E-01  8.50000000E-01  8.50000000E-01
  8.00000000E-01  8.50000000E-01  8.50000000E-01  8.50000000E-01  8.00000000E-01
  8.50000000E-01  8.50000000E-01  8.50000000E-01  8.00000000E-01  8.50000000E-01
  8.50000000E-01  8.50000000E-01  8.00000000E-01  8.50000000E-01  8.50000000E-01
  8.50000000E-01  8.00000000E-01  8.50000000E-01  8.50000000E-01  8.50000000E-01
  8.00000000E-01  8.50000000E-01  8.50000000E-01  8.50000000E-01  8.00000000E-01
  8.50000000E-01  8.50000000E-01  8.50000000E-01  8.00000000E-01  8.50000000E-01
  8.50000000E-01  8.50000000E-01  8.00000000E-01  8.50000000E-01  8.50000000E-01
  8.50000000E-01  8.00000000E-01  8.50000000E-01  8.50000000E-01  8.50000000E-01
  8.00000000E-01  8.50000000E-01  8.50000000E-01  8.50000000E-01  8.00000000E-01
  8.50000000E-01  8.50000000E-01  8.50000000E-01  8.00000000E-01  8.50000000E-01
  8.50000000E-01  8.50000000E-01  8.00000000E-01  8.50000000E-01  8.50000000E-01
  8.50000000E-01  8.00000000E-01  8.50000000E-01  8.50000000E-01  8.50000000E-01
  8.00000000E-01  8.50000000E-01  8.50000000E-01  8.50000000E-01  8.00000000E-01
  8.50000000E-01  8.50000000E-01  8.50000000E-01  8.00000000E-01  8.50000000E-01
  8.50000000E-01  8.50000000E-01  8.00000000E-01  8.50000000E-01  8.50000000E-01
  8.50000000E-01  8.00000000E-01  8.50000000E-01  8.50000000E-01  8.50000000E-01
  8.00000000E-01  8.50000000E-01  8.50000000E-01  8.50000000E-01  8.00000000E-01
  8.50000000E-01  8.50000000E-01  8.50000000E-01  8.00000000E-01  8.50000000E-01
  8.50000000E-01  8.50000000E-01  8.00000000E-01  8.50000000E-01  8.50000000E-01
  8.50000000E-01  8.00000000E-01  8.50000000E-01  8.50000000E-01  8.50000000E-01
  8.00000000E-01  8.50000000E-01  8.50000000E-01  8.50000000E-01  8.00000000E-01
  8.50000000E-01  8.50000000E-01  8.50000000E-01  8.00000000E-01  8.50000000E-01
  8.50000000E-01  8.50000000E-01  8.00000000E-01  8.50000000E-01  8.50000000E-01
  8.50000000E-01  8.00000000E-01  8.50000000E-01  8.50000000E-01  8.50000000E-01
  8.00000000E-01  8.50000000E-01  8.50000000E-01  8.50000000E-01  8.00000000E-01
  8.50000000E-01  8.50000000E-01  8.50000000E-01  8.00000000E-01  8.50000000E-01
  8.50000000E-01  8.50000000E-01  8.00000000E-01  8.50000000E-01  8.50000000E-01
  8.50000000E-01  8.00000000E-01  8.50000000E-01  8.50000000E-01  8.50000000E-01
  8.00000000E-01  8.50000000E-01  8.50000000E-01  8.50000000E-01  8.00000000E-01
  8.50000000E-01  8.50000000E-01  8.50000000E-01  8.00000000E-01  8.50000000E-01
  8.50000000E-01  8.50000000E-01  8.00000000E-01  8.50000000E-01  8.50000000E-01
  8.50000000E-01  8.00000000E-01  8.50000000E-01  8.50000000E-01  8.50000000E-01
  8.00000000E-01  8.50000000E-01  8.50000000E-01  8.50000000E-01  8.00000000E-01
  8.50000000E-01  8.50000000E-01  8.50000000E-01  8.00000000E-01  8.50000000E-01
  8.50000000E-01  8.50000000E-01  8.00000000E-01  8.50000000E-01  8.50000000E-01
  8.50000000E-01  8.00000000E-01  8.50000000E-01  8.50000000E-01  8.50000000E-01
  8.00000000E-01  8.50000000E-01  8.50000000E-01  8.50000000E-01  8.00000000E-01
  8.50000000E-01  8.50000000E-01  8.50000000E-01  8.00000000E-01  8.50000000E-01
  8.50000000E-01  8.50000000E-01  8.00000000E-01  8.50000000E-01  8.50000000E-01
  8.50000000E-01  8.00000000E-01  8.50000000E-01  8.50000000E-01  8.50000000E-01
  8.00000000E-01  8.50000000E-01  8.50000000E-01  8.50000000E-01  8.00000000E-01
  8.50000000E-01  8.50000000E-01  8.50000000E-01  8.00000000E-01  8.50000000E-01
  8.50000000E-01  8.50000000E-01  8.00000000E-01  8.50000000E-01  8.50000000E-01
  8.50000000E-01  8.00000000E-01  8.50000000E-01  8.50000000E-01  8.50000000E-01
  8.00000000E-01  8.50000000E-01  8.50000000E-01  8.50000000E-01  8.00000000E-01
  8.50000000E-01  8.50000000E-01  8.50000000E-01  8.00000000E-01  8.50000000E-01
  8.50000000E-01  8.50000000E-01  8.00000000E-01  8.50000000E-01  8.50000000E-01
  8.50000000E-01  8.00000000E-01  8.50000000E-01  8.50000000E-01  8.50000000E-01
  8.00000000E-01  8.50000000E-01  8.50000000E-01  8.50000000E-01  8.00000000E-01
  8.50000000E-01  8.50000000E-01  8.50000000E-01  8.00000000E-01  8.50000000E-01
  8.50000000E-01  8.50000000E-01  8.00000000E-01  8.50000000E-01  8.50000000E-01
  8.50000000E-01  8.00000000E-01  8.50000000E-01  8.50000000E-01  8.50000000E-01
  8.00000000E-01  8.50000000E-01  8.50000000E-01  8.50000000E-01  8.00000000E-01
  8.50000000E-01  8.50000000E-01  8.50000000E-01  8.00000000E-01  8.50000000E-01
  8.50000000E-01  8.50000000E-01  8.00000000E-01  8.50000000E-01  8.50000000E-01
  8.50000000E-01  8.00000000E-01  8.50000000E-01  8.50000000E-01  8.50000000E-01
  8.00000000E-01  8.50000000E-01  8.50000000E-01  8.50000000E-01  8.00000000E-01
  8.50000000E-01  8.50000000E-01  8.50000000E-01  8.00000000E-01  8.50000000E-01
  8.50000000E-01  8.50000000E-01  8.00000000E-01  8.50000000E-01  8.50000000E-01
  8.50000000E-01  8.00000000E-01  8.50000000E-01  8.50000000E-01  8.50000000E-01
  8.00000000E-01  8.50000000E-01  8.50000000E-01  8.50000000E-01  8.00000000E-01
  8.50000000E-01  8.50000000E-01  8.50000000E-01  8.00000000E-01  8.50000000E-01
  8.50000000E-01  8.50000000E-01  8.00000000E-01  8.50000000E-01  8.50000000E-01
  8.50000000E-01  8.00000000E-01  8.50000000E-01  8.50000000E-01  8.50000000E-01
  8.00000000E-01  8.50000000E-01  8.50000000E-01  8.50000000E-01  8.00000000E-01
  8.50000000E-01  8.50000000E-01  8.50000000E-01  8.00000000E-01  8.50000000E-01
  8.50000000E-01  8.50000000E-01  8.00000000E-01  8.50000000E-01  8.50000000E-01
  8.50000000E-01  8.00000000E-01  8.50000000E-01  8.50000000E-01  8.50000000E-01
  8.00000000E-01  8.50000000E-01  8.50000000E-01  8.50000000E-01  8.00000000E-01
  8.50000000E-01  8.50000000E-01  8.50000000E-01  8.00000000E-01  8.50000000E-01
  8.50000000E-01  8.50000000E-01  8.00000000E-01  8.50000000E-01  8.50000000E-01
  8.50000000E-01  8.00000000E-01  8.50000000E-01  8.50000000E-01  8.50000000E-01
  8.00000000E-01  8.50000000E-01  8.50000000E-01  8.50000000E-01  8.00000000E-01
  8.50000000E-01  8.50000000E-01  8.50000000E-01  8.00000000E-01  8.50000000E-01
  8.50000000E-01  8.50000000E-01  8.00000000E-01  8.50000000E-01  8.50000000E-01
  8.50000000E-01  8.00000000E-01  8.50000000E-01  8.50000000E-01  8.50000000E-01
  8.00000000E-01  8.50000000E-01  8.50000000E-01  8.50000000E-01  8.00000000E-01
  8.50000000E-01  8.50000000E-01  8.50000000E-01  8.00000000E-01  8.50000000E-01
  8.50000000E-01  8.50000000E-01  8.00000000E-01  8.50000000E-01  8.50000000E-01
  8.50000000E-01  8.00000000E-01  8.50000000E-01  8.50000000E-01  8.50000000E-01
  8.00000000E-01  8.50000000E-01  8.50000000E-01  8.50000000E-01  8.00000000E-01
  8.50000000E-01  8.50000000E-01  8.50000000E-01  8.00000000E-01  8.50000000E-01
  8.50000000E-01  8.50000000E-01  8.00000000E-01  8.50000000E-01  8.50000000E-01
  8.50000000E-01  8.00000000E-01  8.50000000E-01  8.50000000E-01  8.50000000E-01
  8.00000000E-01  8.50000000E-01  8.50000000E-01  8.50000000E-01  8.00000000E-01
  8.50000000E-01  8.50000000E-01  8.50000000E-01  8.00000000E-01  8.50000000E-01
  8.50000000E-01  8.50000000E-01  8.00000000E-01  8.50000000E-01  8.50000000E-01
  8.50000000E-01  8.00000000E-01  8.50000000E-01  8.50000000E-01  8.50000000E-01
  8.00000000E-01  8.50000000E-01  8.50000000E-01  8.50000000E-01  8.00000000E-01
  8.50000000E-01  8.50000000E-01  8.50000000E-01  8.00000000E-01  8.50000000E-01
  8.50000000E-01  8.50000000E-01  8.00000000E-01  8.50000000E-01  8.50000000E-01
  8.50000000E-01  8.00000000E-01  8.50000000E-01  8.50000000E-01  8.50000000E-01
  8.00000000E-01  8.50000000E-01  8.50000000E-01  8.50000000E-01  8.00000000E-01
  8.50000000E-01  8.50000000E-01  8.50000000E-01  8.00000000E-01  8.50000000E-01
  8.50000000E-01  8.50000000E-01  8.00000000E-01  8.50000000E-01  8.50000000E-01
  8.50000000E-01  8.00000000E-01  8.50000000E-01  8.50000000E-01  8.50000000E-01
  8.00000000E-01  8.50000000E-01  8.50000000E-01  8.50000000E-01  8.00000000E-01
  8.50000000E-01  8.50000000E-01  8.50000000E-01  8.00000000E-01  8.50000000E-01
  8.50000000E-01  8.50000000E-01  8.00000000E-01  8.50000000E-01  8.50000000E-01
  8.50000000E-01  8.00000000E-01  8.50000000E-01  8.50000000E-01  8.50000000E-01
  8.00000000E-01  8.50000000E-01  8.50000000E-01  8.50000000E-01  8.00000000E-01
  8.50000000E-01  8.50000000E-01  8.50000000E-01  8.00000000E-01  8.50000000E-01
  8.50000000E-01  8.50000000E-01  8.00000000E-01  8.50000000E-01  8.50000000E-01
  8.50000000E-01  8.00000000E-01  8.50000000E-01  8.50000000E-01  8.50000000E-01
  8.00000000E-01  8.50000000E-01  8.50000000E-01  8.50000000E-01  8.00000000E-01
  8.50000000E-01  8.50000000E-01  8.50000000E-01  8.00000000E-01  8.50000000E-01
  8.50000000E-01  8.50000000E-01  8.00000000E-01  8.50000000E-01  8.50000000E-01
  8.50000000E-01  8.00000000E-01  8.50000000E-01  8.50000000E-01  8.50000000E-01
  8.00000000E-01  8.50000000E-01  8.50000000E-01  8.50000000E-01  8.00000000E-01
  8.50000000E-01  8.50000000E-01  8.50000000E-01  8.00000000E-01  8.50000000E-01
  8.50000000E-01  8.50000000E-01  8.00000000E-01  8.50000000E-01  8.50000000E-01
  8.50000000E-01  8.00000000E-01  8.50000000E-01  8.50000000E-01  8.50000000E-01
  8.00000000E-01  8.50000000E-01  8.50000000E-01  8.50000000E-01  8.00000000E-01
  8.50000000E-01  8.50000000E-01  8.50000000E-01  8.00000000E-01  8.50000000E-01
  8.50000000E-01  8.50000000E-01  8.00000000E-01  8.50000000E-01  8.50000000E-01
  8.50000000E-01  8.00000000E-01  8.50000000E-01  8.50000000E-01  8.50000000E-01
  8.00000000E-01  8.50000000E-01  8.50000000E-01  8.50000000E-01  8.00000000E-01
  8.50000000E-01  8.50000000E-01  8.50000000E-01  8.00000000E-01  8.50000000E-01
  8.50000000E-01  8.50000000E-01  8.00000000E-01  8.50000000E-01  8.50000000E-01
  8.50000000E-01  8.00000000E-01  8.50000000E-01  8.50000000E-01  8.50000000E-01
  8.00000000E-01  8.50000000E-01  8.50000000E-01  8.50000000E-01  8.00000000E-01
  8.50000000E-01  8.50000000E-01  8.50000000E-01  8.00000000E-01  8.50000000E-01
  8.50000000E-01  8.50000000E-01  8.00000000E-01  8.50000000E-01  8.50000000E-01
  8.50000000E-01  8.00000000E-01  8.50000000E-01  8.50000000E-01  8.50000000E-01
  8.00000000E-01  8.50000000E-01  8.50000000E-01  8.50000000E-01  8.00000000E-01
  8.50000000E-01  8.50000000E-01  8.50000000E-01  8.00000000E-01  8.50000000E-01
  8.50000000E-01  8.50000000E-01  8.00000000E-01  8.50000000E-01  8.50000000E-01
  8.50000000E-01  8.00000000E-01  8.50000000E-01  8.50000000E-01  8.50000000E-01
  8.00000000E-01  8.50000000E-01  8.50000000E-01  8.50000000E-01  8.00000000E-01
  8.50000000E-01  8.50000000E-01  8.50000000E-01  8.00000000E-01  8.50000000E-01
  8.50000000E-01  8.50000000E-01  8.00000000E-01  8.50000000E-01  8.50000000E-01
  8.50000000E-01  8.00000000E-01  8.50000000E-01  8.50000000E-01  8.50000000E-01
  8.00000000E-01  8.50000000E-01  8.50000000E-01  8.50000000E-01  8.00000000E-01
  8.50000000E-01  8.50000000E-01  8.50000000E-01  8.00000000E-01  8.50000000E-01
  8.50000000E-01  8.50000000E-01  8.00000000E-01  8.50000000E-01  8.50000000E-01
  8.50000000E-01  8.00000000E-01  8.50000000E-01  8.50000000E-01  8.50000000E-01
  8.00000000E-01  8.50000000E-01  8.50000000E-01  8.50000000E-01  8.00000000E-01
  8.50000000E-01  8.50000000E-01  8.50000000E-01  8.00000000E-01  8.50000000E-01
  8.50000000E-01  8.50000000E-01  8.00000000E-01  8.50000000E-01  8.50000000E-01
  8.50000000E-01  8.00000000E-01  8.50000000E-01  8.50000000E-01  8.50000000E-01
  8.00000000E-01  8.50000000E-01  8.50000000E-01  8.50000000E-01  8.00000000E-01
  8.50000000E-01  8.50000000E-01  8.50000000E-01  8.00000000E-01  8.50000000E-01
  8.50000000E-01  8.50000000E-01  8.00000000E-01  8.50000000E-01  8.50000000E-01
  8.50000000E-01  8.00000000E-01  8.50000000E-01  8.50000000E-01  8.50000000E-01
  8.00000000E-01  8.50000000E-01  8.50000000E-01  8.50000000E-01  8.00000000E-01
  8.50000000E-01  8.50000000E-01  8.50000000E-01  8.00000000E-01  8.50000000E-01
  8.50000000E-01  8.50000000E-01  8.00000000E-01  8.50000000E-01  8.50000000E-01
  8.50000000E-01  8.00000000E-01  8.50000000E-01  8.50000000E-01  8.50000000E-01
  8.00000000E-01  8.50000000E-01  8.50000000E-01  8.50000000E-01  8.00000000E-01
  8.50000000E-01  8.50000000E-01  8.50000000E-01  8.00000000E-01  8.50000000E-01
  8.50000000E-01  8.50000000E-01  8.00000000E-01  8.50000000E-01  8.50000000E-01
  8.50000000E-01  8.00000000E-01  8.50000000E-01  8.50000000E-01  8.50000000E-01
  8.00000000E-01  8.50000000E-01  8.50000000E-01  8.50000000E-01  8.00000000E-01
  8.50000000E-01  8.50000000E-01  8.50000000E-01  8.00000000E-01  8.50000000E-01
  8.50000000E-01  8.50000000E-01  8.00000000E-01  8.50000000E-01  8.50000000E-01
  8.50000000E-01  8.00000000E-01  8.50000000E-01  8.50000000E-01  8.50000000E-01
  8.00000000E-01  8.50000000E-01  8.50000000E-01  8.50000000E-01  8.00000000E-01
  8.50000000E-01  8.50000000E-01  8.50000000E-01  8.00000000E-01  8.50000000E-01
  8.50000000E-01  8.50000000E-01  8.00000000E-01  8.50000000E-01  8.50000000E-01
  8.50000000E-01  8.00000000E-01  8.50000000E-01  8.50000000E-01  8.50000000E-01
  8.00000000E-01  8.50000000E-01  8.50000000E-01  8.50000000E-01  8.00000000E-01
  8.50000000E-01  8.50000000E-01  8.50000000E-01  8.00000000E-01  8.50000000E-01
  8.50000000E-01  8.50000000E-01  8.00000000E-01  8.50000000E-01  8.50000000E-01
  8.50000000E-01  8.00000000E-01  8.50000000E-01  8.50000000E-01  8.50000000E-01
  8.00000000E-01  8.50000000E-01  8.50000000E-01  8.50000000E-01  8.00000000E-01
  8.50000000E-01  8.50000000E-01  8.50000000E-01  8.00000000E-01  8.50000000E-01
  8.50000000E-01  8.50000000E-01  8.00000000E-01  8.50000000E-01  8.50000000E-01
  8.50000000E-01  8.00000000E-01  8.50000000E-01  8.50000000E-01  8.50000000E-01
  8.00000000E-01  8.50000000E-01  8.50000000E-01  8.50000000E-01  8.00000000E-01
  8.50000000E-01  8.50000000E-01  8.50000000E-01  8.00000000E-01  8.50000000E-01
  8.50000000E-01  8.50000000E-01  8.00000000E-01  8.50000000E-01  8.50000000E-01
  8.50000000E-01  8.00000000E-01  8.50000000E-01  8.50000000E-01  8.50000000E-01
  8.00000000E-01  8.50000000E-01  8.50000000E-01  8.50000000E-01  8.00000000E-01
  8.50000000E-01  8.50000000E-01  8.50000000E-01  8.00000000E-01  8.50000000E-01
  8.50000000E-01  8.50000000E-01  8.00000000E-01  8.50000000E-01  8.50000000E-01
  8.50000000E-01  8.00000000E-01  8.50000000E-01  8.50000000E-01  8.50000000E-01
  8.00000000E-01  8.50000000E-01  8.50000000E-01  8.50000000E-01  8.00000000E-01
  8.50000000E-01  8.50000000E-01  8.50000000E-01  8.00000000E-01  8.50000000E-01
  8.50000000E-01  8.50000000E-01  8.00000000E-01  8.50000000E-01  8.50000000E-01
  8.50000000E-01  8.00000000E-01  8.50000000E-01  8.50000000E-01  8.50000000E-01
  8.00000000E-01  8.50000000E-01  8.50000000E-01  8.50000000E-01  8.00000000E-01
  8.50000000E-01  8.50000000E-01  8.50000000E-01  8.00000000E-01  8.50000000E-01
  8.50000000E-01  8.50000000E-01  8.00000000E-01  8.50000000E-01  8.50000000E-01
  8.50000000E-01  8.00000000E-01  8.50000000E-01  8.50000000E-01  8.50000000E-01
  8.00000000E-01  8.50000000E-01  8.50000000E-01  8.50000000E-01  8.00000000E-01
  8.50000000E-01  8.50000000E-01  8.50000000E-01  8.00000000E-01  8.50000000E-01
  8.50000000E-01  8.50000000E-01  8.00000000E-01  8.50000000E-01  8.50000000E-01
  8.50000000E-01  8.00000000E-01  8.50000000E-01  8.50000000E-01  8.50000000E-01
  8.00000000E-01  8.50000000E-01  8.50000000E-01  8.50000000E-01  8.00000000E-01
  8.50000000E-01  8.50000000E-01  8.50000000E-01  8.00000000E-01  8.50000000E-01
  8.50000000E-01  8.50000000E-01  8.00000000E-01  8.50000000E-01  8.50000000E-01
  8.50000000E-01  8.00000000E-01  8.50000000E-01  8.50000000E-01  8.50000000E-01
  8.00000000E-01  8.50000000E-01  8.50000000E-01  8.50000000E-01  8.00000000E-01
  8.50000000E-01  8.50000000E-01  8.50000000E-01  8.00000000E-01  8.50000000E-01
  8.50000000E-01  8.50000000E-01  8.00000000E-01  8.50000000E-01  8.50000000E-01
  8.50000000E-01  8.00000000E-01  8.50000000E-01  8.50000000E-01  8.50000000E-01
  8.00000000E-01  8.50000000E-01  8.50000000E-01  8.50000000E-01  8.00000000E-01
  8.50000000E-01  8.50000000E-01  8.50000000E-01  8.00000000E-01  8.50000000E-01
  8.50000000E-01  8.50000000E-01  8.00000000E-01  8.50000000E-01  8.50000000E-01
  8.50000000E-01  8.00000000E-01  8.50000000E-01  8.50000000E-01  8.50000000E-01
  8.00000000E-01  8.50000000E-01  8.50000000E-01  8.50000000E-01  8.00000000E-01
  8.50000000E-01  8.50000000E-01  8.50000000E-01  8.00000000E-01  8.50000000E-01
  8.50000000E-01  8.50000000E-01  8.00000000E-01  8.50000000E-01  8.50000000E-01
  8.50000000E-01  8.00000000E-01  8.50000000E-01  8.50000000E-01  8.50000000E-01
  8.00000000E-01  8.50000000E-01  8.50000000E-01  8.50000000E-01  8.00000000E-01
  8.50000000E-01  8.50000000E-01  8.50000000E-01  8.00000000E-01  8.50000000E-01
  8.50000000E-01  8.50000000E-01  8.00000000E-01  8.50000000E-01  8.50000000E-01
  8.50000000E-01  8.00000000E-01  8.50000000E-01  8.50000000E-01  8.50000000E-01
  8.00000000E-01  8.50000000E-01  8.50000000E-01  8.50000000E-01  8.00000000E-01
  8.50000000E-01  8.50000000E-01  8.50000000E-01  8.00000000E-01  8.50000000E-01
  8.50000000E-01  8.50000000E-01  8.00000000E-01  8.50000000E-01  8.50000000E-01
  8.50000000E-01  8.00000000E-01  8.50000000E-01  8.50000000E-01  8.50000000E-01
  8.00000000E-01  8.50000000E-01  8.50000000E-01  8.50000000E-01  8.00000000E-01
  8.50000000E-01  8.50000000E-01  8.50000000E-01  8.00000000E-01  8.50000000E-01
  8.50000000E-01  8.50000000E-01  8.00000000E-01  8.50000000E-01  8.50000000E-01
  8.50000000E-01  8.00000000E-01  8.50000000E-01  8.50000000E-01  8.50000000E-01
  8.00000000E-01  8.50000000E-01  8.50000000E-01  8.50000000E-01  8.00000000E-01
  8.50000000E-01  8.50000000E-01  8.50000000E-01  8.00000000E-01  8.50000000E-01
  8.50000000E-01  8.50000000E-01  8.00000000E-01  8.50000000E-01  8.50000000E-01
  8.50000000E-01  8.00000000E-01  8.50000000E-01  8.50000000E-01  8.50000000E-01
  8.00000000E-01  8.50000000E-01  8.50000000E-01  8.50000000E-01  8.00000000E-01
  8.50000000E-01  8.50000000E-01  8.50000000E-01  8.00000000E-01  8.50000000E-01
  8.50000000E-01  8.50000000E-01  8.00000000E-01  8.50000000E-01  8.50000000E-01
  8.50000000E-01  8.00000000E-01  8.50000000E-01  8.50000000E-01  8.50000000E-01
  8.00000000E-01  8.50000000E-01  8.50000000E-01  8.50000000E-01  8.00000000E-01
  8.50000000E-01  8.50000000E-01  8.50000000E-01  8.00000000E-01  8.50000000E-01
  8.50000000E-01  8.50000000E-01  8.00000000E-01  8.50000000E-01  8.50000000E-01
  8.50000000E-01  8.00000000E-01  8.50000000E-01  8.50000000E-01  8.50000000E-01
  8.00000000E-01  8.50000000E-01  8.50000000E-01  8.50000000E-01  8.00000000E-01
  8.50000000E-01  8.50000000E-01  8.50000000E-01  8.00000000E-01  8.50000000E-01
  8.50000000E-01  8.50000000E-01  8.00000000E-01  8.50000000E-01  8.50000000E-01
  8.50000000E-01  8.00000000E-01  8.50000000E-01  8.50000000E-01  8.50000000E-01
  8.00000000E-01  8.50000000E-01  8.50000000E-01  8.50000000E-01  8.00000000E-01
  8.50000000E-01  8.50000000E-01  8.50000000E-01  8.00000000E-01  8.50000000E-01
  8.50000000E-01  8.50000000E-01  8.00000000E-01  8.50000000E-01  8.50000000E-01
  8.50000000E-01  8.00000000E-01  8.50000000E-01  8.50000000E-01  8.50000000E-01
  8.00000000E-01  8.50000000E-01  8.50000000E-01  8.50000000E-01  8.00000000E-01
  8.50000000E-01  8.50000000E-01  8.50000000E-01  8.00000000E-01  8.50000000E-01
  8.50000000E-01  8.50000000E-01  8.00000000E-01  8.50000000E-01  8.50000000E-01
  8.50000000E-01  8.00000000E-01  8.50000000E-01  8.50000000E-01  8.50000000E-01
  8.00000000E-01  8.50000000E-01  8.50000000E-01  8.50000000E-01  8.00000000E-01
  8.50000000E-01  8.50000000E-01  8.50000000E-01  8.00000000E-01  8.50000000E-01
  8.50000000E-01  8.50000000E-01  8.00000000E-01  8.50000000E-01  8.50000000E-01
  8.50000000E-01  8.00000000E-01  8.50000000E-01  8.50000000E-01  8.50000000E-01
  8.00000000E-01  8.50000000E-01  8.50000000E-01  8.50000000E-01  8.00000000E-01
  8.50000000E-01  8.50000000E-01  8.50000000E-01  8.00000000E-01  8.50000000E-01
  8.50000000E-01  8.50000000E-01  8.00000000E-01  8.50000000E-01  8.50000000E-01
  8.50000000E-01  8.00000000E-01  8.50000000E-01  8.50000000E-01  8.50000000E-01
  8.00000000E-01  8.50000000E-01  8.50000000E-01  8.50000000E-01  8.00000000E-01
  8.50000000E-01  8.50000000E-01  8.50000000E-01  8.00000000E-01  8.50000000E-01
  8.50000000E-01  8.50000000E-01  8.00000000E-01  8.50000000E-01  8.50000000E-01
  8.50000000E-01  8.00000000E-01  8.50000000E-01  8.50000000E-01  8.50000000E-01
  8.00000000E-01  8.50000000E-01  8.50000000E-01  8.50000000E-01  8.00000000E-01
  8.50000000E-01  8.50000000E-01  8.50000000E-01  8.00000000E-01  8.50000000E-01
  8.50000000E-01  8.50000000E-01  8.00000000E-01  8.50000000E-01  8.50000000E-01
  8.50000000E-01  8.00000000E-01  8.50000000E-01  8.50000000E-01  8.50000000E-01
  8.00000000E-01  8.50000000E-01  8.50000000E-01  8.50000000E-01  8.00000000E-01
  8.50000000E-01  8.50000000E-01  8.50000000E-01  8.00000000E-01  8.50000000E-01
  8.50000000E-01  8.50000000E-01  8.00000000E-01  8.50000000E-01  8.50000000E-01
  8.50000000E-01  8.00000000E-01  8.50000000E-01  8.50000000E-01  8.50000000E-01
  8.00000000E-01  8.50000000E-01  8.50000000E-01  8.50000000E-01  8.00000000E-01
  8.50000000E-01  8.50000000E-01  8.50000000E-01  8.00000000E-01  8.50000000E-01
  8.50000000E-01  8.50000000E-01  8.00000000E-01  8.50000000E-01  8.50000000E-01
  8.50000000E-01  8.00000000E-01  8.50000000E-01  8.50000000E-01  8.50000000E-01
  8.00000000E-01  8.50000000E-01  8.50000000E-01  8.50000000E-01  8.00000000E-01
  8.50000000E-01  8.50000000E-01  8.50000000E-01  8.00000000E-01  8.50000000E-01
  8.50000000E-01  8.50000000E-01  8.00000000E-01  8.50000000E-01  8.50000000E-01
  8.50000000E-01  8.00000000E-01  8.50000000E-01  8.50000000E-01  8.50000000E-01
  8.00000000E-01  8.50000000E-01  8.50000000E-01  8.50000000E-01  8.00000000E-01
  8.50000000E-01  8.50000000E-01  8.50000000E-01  8.00000000E-01  8.50000000E-01
  8.50000000E-01  8.50000000E-01  8.00000000E-01  8.50000000E-01  8.50000000E-01
  8.50000000E-01  8.00000000E-01  8.50000000E-01  8.50000000E-01  8.50000000E-01
  8.00000000E-01  8.50000000E-01  8.50000000E-01  8.50000000E-01  8.00000000E-01
  8.50000000E-01  8.50000000E-01  8.50000000E-01  8.00000000E-01  8.50000000E-01
  8.50000000E-01  8.50000000E-01  8.00000000E-01  8.50000000E-01  8.50000000E-01
  8.50000000E-01  8.00000000E-01  8.50000000E-01  8.50000000E-01  8.50000000E-01
  8.00000000E-01  8.50000000E-01  8.50000000E-01  8.50000000E-01  8.00000000E-01
  8.50000000E-01  8.50000000E-01  8.50000000E-01  8.00000000E-01  8.50000000E-01
  8.50000000E-01  8.50000000E-01  8.00000000E-01  8.50000000E-01  8.50000000E-01
  8.50000000E-01  8.00000000E-01  8.50000000E-01  8.50000000E-01  8.50000000E-01
  8.00000000E-01  8.50000000E-01  8.50000000E-01  8.50000000E-01  8.00000000E-01
  8.50000000E-01  8.50000000E-01  8.50000000E-01  8.00000000E-01  8.50000000E-01
  8.50000000E-01  8.50000000E-01  8.00000000E-01  8.50000000E-01  8.50000000E-01
  8.50000000E-01  8.00000000E-01  8.50000000E-01  8.50000000E-01  8.50000000E-01
  8.00000000E-01  8.50000000E-01  8.50000000E-01  8.50000000E-01  8.00000000E-01
  8.50000000E-01  8.50000000E-01  8.50000000E-01  8.00000000E-01  8.50000000E-01
  8.50000000E-01  8.50000000E-01  8.00000000E-01  8.50000000E-01  8.50000000E-01
  8.50000000E-01  8.00000000E-01  8.50000000E-01  8.50000000E-01  8.50000000E-01
  8.00000000E-01  8.50000000E-01  8.50000000E-01  8.50000000E-01  8.00000000E-01
  8.50000000E-01  8.50000000E-01  8.50000000E-01  8.00000000E-01  8.50000000E-01
  8.50000000E-01  8.50000000E-01  8.00000000E-01  8.50000000E-01  8.50000000E-01
  8.50000000E-01  8.00000000E-01  8.50000000E-01  8.50000000E-01  8.50000000E-01
  8.00000000E-01  8.50000000E-01  8.50000000E-01  8.50000000E-01  8.00000000E-01
  8.50000000E-01  8.50000000E-01  8.50000000E-01  8.00000000E-01  8.50000000E-01
  8.50000000E-01  8.50000000E-01  8.00000000E-01  8.50000000E-01  8.50000000E-01
  8.50000000E-01  8.00000000E-01  8.50000000E-01  8.50000000E-01  8.50000000E-01
  8.00000000E-01  8.50000000E-01  8.50000000E-01  8.50000000E-01  8.00000000E-01
  8.50000000E-01  8.50000000E-01  8.50000000E-01  8.00000000E-01  8.50000000E-01
  8.50000000E-01  8.50000000E-01  8.00000000E-01  8.50000000E-01  8.50000000E-01
  8.50000000E-01  8.00000000E-01  8.50000000E-01  8.50000000E-01  8.50000000E-01
  8.00000000E-01  8.50000000E-01  8.50000000E-01  8.50000000E-01  8.00000000E-01
  8.50000000E-01  8.50000000E-01  8.50000000E-01  8.00000000E-01  8.50000000E-01
  8.50000000E-01  8.50000000E-01  8.00000000E-01  8.50000000E-01  8.50000000E-01
  8.50000000E-01  8.00000000E-01  8.50000000E-01  8.50000000E-01  8.50000000E-01
  8.00000000E-01  8.50000000E-01  8.50000000E-01  8.50000000E-01  8.00000000E-01
  8.50000000E-01  8.50000000E-01  8.50000000E-01  8.00000000E-01  8.50000000E-01
  8.50000000E-01  8.50000000E-01  8.00000000E-01  8.50000000E-01  8.50000000E-01
  8.50000000E-01  8.00000000E-01  8.50000000E-01  8.50000000E-01  8.50000000E-01
  8.00000000E-01  8.50000000E-01  8.50000000E-01  8.50000000E-01  8.00000000E-01
  8.50000000E-01  8.50000000E-01  8.50000000E-01  8.00000000E-01  8.50000000E-01
  8.50000000E-01  8.50000000E-01  8.00000000E-01  8.50000000E-01  8.50000000E-01
  8.50000000E-01  8.00000000E-01  8.50000000E-01  8.50000000E-01  8.50000000E-01
  8.00000000E-01  8.50000000E-01  8.50000000E-01  8.50000000E-01  8.00000000E-01
  8.50000000E-01  8.50000000E-01  8.50000000E-01  8.00000000E-01  8.50000000E-01
  8.50000000E-01  8.50000000E-01  8.00000000E-01  8.50000000E-01  8.50000000E-01
  8.50000000E-01  8.00000000E-01  8.50000000E-01  8.50000000E-01  8.50000000E-01
  8.00000000E-01  8.50000000E-01  8.50000000E-01  8.50000000E-01  8.00000000E-01
  8.50000000E-01  8.50000000E-01  8.50000000E-01  8.00000000E-01  8.50000000E-01
  8.50000000E-01  8.50000000E-01  8.00000000E-01  8.50000000E-01  8.50000000E-01
  8.50000000E-01  8.00000000E-01  8.50000000E-01  8.50000000E-01  8.50000000E-01
  8.00000000E-01  8.50000000E-01  8.50000000E-01  8.50000000E-01  8.00000000E-01
  8.50000000E-01  8.50000000E-01  8.50000000E-01  8.00000000E-01  8.50000000E-01
  8.50000000E-01  8.50000000E-01  8.00000000E-01  8.50000000E-01  8.50000000E-01
  8.50000000E-01  8.00000000E-01  8.50000000E-01  8.50000000E-01  8.50000000E-01
  8.00000000E-01  8.50000000E-01  8.50000000E-01  8.50000000E-01  8.00000000E-01
  8.50000000E-01  8.50000000E-01  8.50000000E-01  8.00000000E-01  8.50000000E-01
  8.50000000E-01  8.50000000E-01  8.00000000E-01  8.50000000E-01  8.50000000E-01
  8.50000000E-01  8.00000000E-01  8.50000000E-01  8.50000000E-01  8.50000000E-01
  8.00000000E-01  8.50000000E-01  8.50000000E-01  8.50000000E-01  8.00000000E-01
  8.50000000E-01  8.50000000E-01  8.50000000E-01  8.00000000E-01  8.50000000E-01
  8.50000000E-01  8.50000000E-01  8.00000000E-01  8.50000000E-01  8.50000000E-01
  8.50000000E-01  8.00000000E-01  8.50000000E-01  8.50000000E-01  8.50000000E-01
  8.00000000E-01  8.50000000E-01  8.50000000E-01  8.50000000E-01  8.00000000E-01
  8.50000000E-01  8.50000000E-01  8.50000000E-01  8.00000000E-01  8.50000000E-01
  8.50000000E-01  8.50000000E-01  8.00000000E-01  8.50000000E-01  8.50000000E-01
  8.50000000E-01  8.00000000E-01  8.50000000E-01  8.50000000E-01  8.50000000E-01
  8.00000000E-01  8.50000000E-01  8.50000000E-01  8.50000000E-01  8.00000000E-01
  8.50000000E-01  8.50000000E-01  8.50000000E-01  8.00000000E-01  8.50000000E-01
  8.50000000E-01  8.50000000E-01  8.00000000E-01  8.50000000E-01  8.50000000E-01
  8.50000000E-01  8.00000000E-01  8.50000000E-01  8.50000000E-01  8.50000000E-01
  8.00000000E-01  8.50000000E-01  8.50000000E-01  8.50000000E-01  8.00000000E-01
  8.50000000E-01  8.50000000E-01  8.50000000E-01  8.00000000E-01  8.50000000E-01
  8.50000000E-01  8.50000000E-01  8.00000000E-01  8.50000000E-01  8.50000000E-01
  8.50000000E-01  8.00000000E-01  8.50000000E-01  8.50000000E-01  8.50000000E-01
  8.00000000E-01  8.50000000E-01  8.50000000E-01  8.50000000E-01  8.00000000E-01
  8.50000000E-01  8.50000000E-01  8.50000000E-01  8.00000000E-01  8.50000000E-01
  8.50000000E-01  8.50000000E-01  8.00000000E-01  8.50000000E-01  8.50000000E-01
  8.50000000E-01  8.00000000E-01  8.50000000E-01  8.50000000E-01  8.50000000E-01
  8.00000000E-01  8.50000000E-01  8.50000000E-01  8.50000000E-01  8.00000000E-01
  8.50000000E-01  8.50000000E-01  8.50000000E-01  8.00000000E-01  8.50000000E-01
  8.50000000E-01  8.50000000E-01  8.00000000E-01  8.50000000E-01  8.50000000E-01
  8.50000000E-01  8.00000000E-01  8.50000000E-01  8.50000000E-01  8.50000000E-01
  8.00000000E-01  8.50000000E-01  8.50000000E-01  8.50000000E-01  8.00000000E-01
  8.50000000E-01  8.50000000E-01  8.50000000E-01  8.00000000E-01  8.50000000E-01
  8.50000000E-01  8.50000000E-01  8.00000000E-01  8.50000000E-01  8.50000000E-01
  8.50000000E-01  8.00000000E-01  8.50000000E-01  8.50000000E-01  8.50000000E-01
  8.00000000E-01  8.50000000E-01  8.50000000E-01  8.50000000E-01  8.00000000E-01
  8.50000000E-01  8.50000000E-01  8.50000000E-01  8.00000000E-01  8.50000000E-01
  8.50000000E-01  8.50000000E-01  8.00000000E-01  8.50000000E-01  8.50000000E-01
  8.50000000E-01  8.00000000E-01  8.50000000E-01  8.50000000E-01  8.50000000E-01
  8.00000000E-01  8.50000000E-01  8.50000000E-01  8.50000000E-01  8.00000000E-01
  8.50000000E-01  8.50000000E-01  8.50000000E-01  8.00000000E-01  8.50000000E-01
  8.50000000E-01  8.50000000E-01  8.00000000E-01  8.50000000E-01  8.50000000E-01
  8.50000000E-01  8.00000000E-01  8.50000000E-01  8.50000000E-01  8.50000000E-01
  8.00000000E-01  8.50000000E-01  8.50000000E-01  8.50000000E-01  8.00000000E-01
  8.50000000E-01  8.50000000E-01  8.50000000E-01  8.00000000E-01  8.50000000E-01
  8.50000000E-01  8.50000000E-01  8.00000000E-01  8.50000000E-01  8.50000000E-01
  8.50000000E-01  8.00000000E-01  8.50000000E-01  8.50000000E-01  8.50000000E-01
  8.00000000E-01  8.50000000E-01  8.50000000E-01  8.50000000E-01  8.00000000E-01
  8.50000000E-01  8.50000000E-01  8.50000000E-01  8.00000000E-01  8.50000000E-01
  8.50000000E-01  8.50000000E-01  8.00000000E-01  8.50000000E-01  8.50000000E-01
  8.50000000E-01  8.00000000E-01  8.50000000E-01  8.50000000E-01  8.50000000E-01
  8.00000000E-01  8.50000000E-01  8.50000000E-01  8.50000000E-01  8.00000000E-01
  8.50000000E-01  8.50000000E-01  8.50000000E-01  8.00000000E-01  8.50000000E-01
  8.50000000E-01  8.50000000E-01  8.00000000E-01  8.50000000E-01  8.50000000E-01
  8.50000000E-01  8.00000000E-01  8.50000000E-01  8.50000000E-01  8.50000000E-01
  8.00000000E-01  8.50000000E-01  8.50000000E-01  8.50000000E-01  8.00000000E-01
  8.50000000E-01  8.50000000E-01  8.50000000E-01  8.00000000E-01  8.50000000E-01
  8.50000000E-01  8.50000000E-01  8.00000000E-01  8.50000000E-01  8.50000000E-01
  8.50000000E-01  8.00000000E-01  8.50000000E-01  8.50000000E-01  8.50000000E-01
  8.00000000E-01  8.50000000E-01  8.50000000E-01  8.50000000E-01  8.00000000E-01
  8.50000000E-01  8.50000000E-01  8.50000000E-01  8.00000000E-01  8.50000000E-01
  8.50000000E-01  8.50000000E-01  8.00000000E-01  8.50000000E-01  8.50000000E-01
  8.50000000E-01  8.00000000E-01  8.50000000E-01  8.50000000E-01  8.50000000E-01
  8.00000000E-01  8.50000000E-01  8.50000000E-01  8.50000000E-01  8.00000000E-01
  8.50000000E-01  8.50000000E-01  8.50000000E-01  8.00000000E-01  8.50000000E-01
  8.50000000E-01  8.50000000E-01  8.00000000E-01  8.50000000E-01  8.50000000E-01
  8.50000000E-01  8.00000000E-01  8.50000000E-01  8.50000000E-01  8.50000000E-01
  8.00000000E-01  8.50000000E-01  8.50000000E-01  8.50000000E-01  8.00000000E-01
  8.50000000E-01  8.50000000E-01  8.50000000E-01  8.00000000E-01  8.50000000E-01
  8.50000000E-01  8.50000000E-01  8.00000000E-01  8.50000000E-01  8.50000000E-01
  8.50000000E-01  8.00000000E-01  8.50000000E-01  8.50000000E-01  8.50000000E-01
  8.00000000E-01  8.50000000E-01  8.50000000E-01  8.50000000E-01  8.00000000E-01
  8.50000000E-01  8.50000000E-01  8.50000000E-01  8.00000000E-01  8.50000000E-01
  8.50000000E-01  8.50000000E-01  8.00000000E-01  8.50000000E-01  8.50000000E-01
  8.50000000E-01  8.00000000E-01  8.50000000E-01  8.50000000E-01  8.50000000E-01
  8.00000000E-01  8.50000000E-01  8.50000000E-01  8.50000000E-01  8.00000000E-01
  8.50000000E-01  8.50000000E-01  8.50000000E-01  8.00000000E-01  8.50000000E-01
  8.50000000E-01  8.50000000E-01  8.00000000E-01  8.50000000E-01  8.50000000E-01
  8.50000000E-01  8.00000000E-01  8.50000000E-01  8.50000000E-01  8.50000000E-01
  8.00000000E-01  8.50000000E-01  8.50000000E-01  8.50000000E-01  8.00000000E-01
  8.50000000E-01  8.50000000E-01  8.50000000E-01  8.00000000E-01  8.50000000E-01
  8.50000000E-01  8.50000000E-01  8.00000000E-01  8.50000000E-01  8.50000000E-01
  8.50000000E-01  8.00000000E-01  8.50000000E-01  8.50000000E-01  8.50000000E-01
  8.00000000E-01  8.50000000E-01  8.50000000E-01  8.50000000E-01  8.00000000E-01
  8.50000000E-01  8.50000000E-01  8.50000000E-01  8.00000000E-01  8.50000000E-01
  8.50000000E-01  8.50000000E-01  8.00000000E-01  8.50000000E-01  8.50000000E-01
  8.50000000E-01  8.00000000E-01  8.50000000E-01  8.50000000E-01  8.50000000E-01
  8.00000000E-01  8.50000000E-01  8.50000000E-01  8.50000000E-01  8.00000000E-01
  8.50000000E-01  8.50000000E-01  8.50000000E-01  8.00000000E-01  8.50000000E-01
  8.50000000E-01  8.50000000E-01  8.00000000E-01  8.50000000E-01  8.50000000E-01
  8.50000000E-01  8.00000000E-01  8.50000000E-01  8.50000000E-01  8.50000000E-01
  8.00000000E-01  8.50000000E-01  8.50000000E-01  8.50000000E-01  8.00000000E-01
  8.50000000E-01  8.50000000E-01  8.50000000E-01  8.00000000E-01  8.50000000E-01
  8.50000000E-01  8.50000000E-01  8.00000000E-01  8.50000000E-01  8.50000000E-01
  8.50000000E-01  8.00000000E-01  8.50000000E-01  8.50000000E-01  8.50000000E-01
  8.00000000E-01  8.50000000E-01  8.50000000E-01  8.50000000E-01  8.00000000E-01
  8.50000000E-01  8.50000000E-01  8.50000000E-01  8.00000000E-01  8.50000000E-01
  8.50000000E-01  8.50000000E-01  8.00000000E-01  8.50000000E-01  8.50000000E-01
  8.50000000E-01  8.00000000E-01  8.50000000E-01  8.50000000E-01  8.50000000E-01
  8.00000000E-01  8.50000000E-01  8.50000000E-01  8.50000000E-01  8.00000000E-01
  8.50000000E-01  8.50000000E-01  8.50000000E-01  8.00000000E-01  8.50000000E-01
  8.50000000E-01  8.50000000E-01  8.00000000E-01  8.50000000E-01  8.50000000E-01
  8.50000000E-01  8.00000000E-01  8.50000000E-01  8.50000000E-01  8.50000000E-01
  8.00000000E-01  8.50000000E-01  8.50000000E-01  8.50000000E-01  8.00000000E-01
  8.50000000E-01  8.50000000E-01  8.50000000E-01  8.00000000E-01  8.50000000E-01
  8.50000000E-01  8.50000000E-01  8.00000000E-01  8.50000000E-01  8.50000000E-01
  8.50000000E-01  8.00000000E-01  8.50000000E-01  8.50000000E-01  8.50000000E-01
  8.00000000E-01  8.50000000E-01  8.50000000E-01  8.50000000E-01  8.00000000E-01
  8.50000000E-01  8.50000000E-01  8.50000000E-01  8.00000000E-01  8.50000000E-01
  8.50000000E-01  8.50000000E-01  8.00000000E-01  8.50000000E-01  8.50000000E-01
  8.50000000E-01  8.00000000E-01  8.50000000E-01  8.50000000E-01  8.50000000E-01
  8.00000000E-01  8.50000000E-01  8.50000000E-01  8.50000000E-01  8.00000000E-01
  8.50000000E-01  8.50000000E-01  8.50000000E-01  8.00000000E-01  8.50000000E-01
  8.50000000E-01  8.50000000E-01  8.00000000E-01  8.50000000E-01  8.50000000E-01
  8.50000000E-01  8.00000000E-01  8.50000000E-01  8.50000000E-01  8.50000000E-01
  8.00000000E-01  8.50000000E-01  8.50000000E-01  8.50000000E-01  8.00000000E-01
  8.50000000E-01  8.50000000E-01  8.50000000E-01  8.00000000E-01  8.50000000E-01
  8.50000000E-01  8.50000000E-01  8.00000000E-01  8.50000000E-01  8.50000000E-01
  8.50000000E-01  8.00000000E-01  8.50000000E-01  8.50000000E-01  8.50000000E-01
  8.00000000E-01  8.50000000E-01  8.50000000E-01  8.50000000E-01  8.00000000E-01
  8.50000000E-01  8.50000000E-01  8.50000000E-01  8.00000000E-01  8.50000000E-01
  8.50000000E-01  8.50000000E-01  8.00000000E-01  8.50000000E-01  8.50000000E-01
  8.50000000E-01  8.00000000E-01  8.50000000E-01  8.50000000E-01  8.50000000E-01
  8.00000000E-01  8.50000000E-01  8.50000000E-01  8.50000000E-01  8.00000000E-01
  8.50000000E-01  8.50000000E-01  8.50000000E-01  8.00000000E-01  8.50000000E-01
  8.50000000E-01  8.50000000E-01  8.00000000E-01  8.50000000E-01  8.50000000E-01
  8.50000000E-01  8.00000000E-01  8.50000000E-01  8.50000000E-01  8.50000000E-01
  8.00000000E-01  8.50000000E-01  8.50000000E-01  8.50000000E-01  8.00000000E-01
  8.50000000E-01  8.50000000E-01  8.50000000E-01  8.00000000E-01  8.50000000E-01
  8.50000000E-01  8.50000000E-01  8.00000000E-01  8.50000000E-01  8.50000000E-01
  8.50000000E-01  8.00000000E-01  8.50000000E-01  8.50000000E-01  8.50000000E-01
  8.00000000E-01  8.50000000E-01  8.50000000E-01  8.50000000E-01  8.00000000E-01
  8.50000000E-01  8.50000000E-01  8.50000000E-01  8.00000000E-01  8.50000000E-01
  8.50000000E-01  8.50000000E-01  8.00000000E-01  8.50000000E-01  8.50000000E-01
  8.50000000E-01  8.00000000E-01  8.50000000E-01  8.50000000E-01  8.50000000E-01
  8.00000000E-01  8.50000000E-01  8.50000000E-01  8.50000000E-01  8.00000000E-01
  8.50000000E-01  8.50000000E-01  8.50000000E-01  8.00000000E-01  8.50000000E-01
  8.50000000E-01  8.50000000E-01  8.00000000E-01  8.50000000E-01  8.50000000E-01
  8.50000000E-01  8.00000000E-01  8.50000000E-01  8.50000000E-01  8.50000000E-01
  8.00000000E-01  8.50000000E-01  8.50000000E-01  8.50000000E-01  8.00000000E-01
  8.50000000E-01  8.50000000E-01  8.50000000E-01  8.00000000E-01  8.50000000E-01
  8.50000000E-01  8.50000000E-01  8.00000000E-01  8.50000000E-01  8.50000000E-01
  8.50000000E-01  8.00000000E-01  8.50000000E-01  8.50000000E-01  8.50000000E-01
  8.00000000E-01  8.50000000E-01  8.50000000E-01  8.50000000E-01  8.00000000E-01
  8.50000000E-01  8.50000000E-01  8.50000000E-01  8.00000000E-01  8.50000000E-01
  8.50000000E-01  8.50000000E-01  8.00000000E-01  8.50000000E-01  8.50000000E-01
  8.50000000E-01  8.00000000E-01  8.50000000E-01  8.50000000E-01  8.50000000E-01
  8.00000000E-01  8.50000000E-01  8.50000000E-01  8.50000000E-01  8.00000000E-01
  8.50000000E-01  8.50000000E-01  8.50000000E-01  8.00000000E-01  8.50000000E-01
  8.50000000E-01  8.50000000E-01  8.00000000E-01  8.50000000E-01  8.50000000E-01
  8.50000000E-01  8.00000000E-01  8.50000000E-01  8.50000000E-01  8.50000000E-01
  8.00000000E-01  8.50000000E-01  8.50000000E-01  8.50000000E-01  8.00000000E-01
  8.50000000E-01  8.50000000E-01  8.50000000E-01  8.00000000E-01  8.50000000E-01
  8.50000000E-01  8.50000000E-01  8.00000000E-01  8.50000000E-01  8.50000000E-01
  8.50000000E-01  8.00000000E-01  8.50000000E-01  8.50000000E-01  8.50000000E-01
  8.00000000E-01  8.50000000E-01  8.50000000E-01  8.50000000E-01  8.00000000E-01
  8.50000000E-01  8.50000000E-01  8.50000000E-01  8.00000000E-01  8.50000000E-01
  8.50000000E-01  8.50000000E-01  8.00000000E-01  8.50000000E-01  8.50000000E-01
  8.50000000E-01  8.00000000E-01  8.50000000E-01  8.50000000E-01  8.50000000E-01
  8.00000000E-01  8.50000000E-01  8.50000000E-01  8.50000000E-01  8.00000000E-01
  8.50000000E-01  8.50000000E-01  8.50000000E-01  8.00000000E-01  8.50000000E-01
  8.50000000E-01  8.50000000E-01  8.00000000E-01  8.50000000E-01  8.50000000E-01
  8.50000000E-01  8.00000000E-01  8.50000000E-01  8.50000000E-01  8.50000000E-01
  8.00000000E-01  8.50000000E-01  8.50000000E-01  8.50000000E-01  8.00000000E-01
  8.50000000E-01  8.50000000E-01  8.50000000E-01  8.00000000E-01  8.50000000E-01
  8.50000000E-01  8.50000000E-01  8.00000000E-01  8.50000000E-01  8.50000000E-01
  8.50000000E-01  8.00000000E-01  8.50000000E-01  8.50000000E-01  8.50000000E-01
  8.00000000E-01  8.50000000E-01  8.50000000E-01  8.50000000E-01  8.00000000E-01
  8.50000000E-01  8.50000000E-01  8.50000000E-01  8.00000000E-01  8.50000000E-01
  8.50000000E-01  8.50000000E-01  8.00000000E-01  8.50000000E-01  8.50000000E-01
  8.50000000E-01  8.00000000E-01  8.50000000E-01  8.50000000E-01  8.50000000E-01
  8.00000000E-01  8.50000000E-01  8.50000000E-01  8.50000000E-01  8.00000000E-01
  8.50000000E-01  8.50000000E-01  8.50000000E-01  8.00000000E-01  8.50000000E-01
  8.50000000E-01  8.50000000E-01  8.00000000E-01  8.50000000E-01  8.50000000E-01
  8.50000000E-01  8.00000000E-01  8.50000000E-01  8.50000000E-01  8.50000000E-01
  8.00000000E-01  8.50000000E-01  8.50000000E-01  8.50000000E-01  8.00000000E-01
  8.50000000E-01  8.50000000E-01  8.50000000E-01  8.00000000E-01  8.50000000E-01
  8.50000000E-01  8.50000000E-01  8.00000000E-01  8.50000000E-01  8.50000000E-01
  8.50000000E-01  8.00000000E-01  8.50000000E-01  8.50000000E-01  8.50000000E-01
  8.00000000E-01  8.50000000E-01  8.50000000E-01  8.50000000E-01  8.00000000E-01
  8.50000000E-01  8.50000000E-01  8.50000000E-01  8.00000000E-01  8.50000000E-01
  8.50000000E-01  8.50000000E-01  8.00000000E-01  8.50000000E-01  8.50000000E-01
  8.50000000E-01  8.00000000E-01  8.50000000E-01  8.50000000E-01  8.50000000E-01
  8.00000000E-01  8.50000000E-01  8.50000000E-01  8.50000000E-01  8.00000000E-01
  8.50000000E-01  8.50000000E-01  8.50000000E-01  8.00000000E-01  8.50000000E-01
  8.50000000E-01  8.50000000E-01  8.00000000E-01  8.50000000E-01  8.50000000E-01
  8.50000000E-01  8.00000000E-01  8.50000000E-01  8.50000000E-01  8.50000000E-01
  8.00000000E-01  8.50000000E-01  8.50000000E-01  8.50000000E-01  8.00000000E-01
  8.50000000E-01  8.50000000E-01  8.50000000E-01  8.00000000E-01  8.50000000E-01
  8.50000000E-01  8.50000000E-01  8.00000000E-01  8.50000000E-01  8.50000000E-01
  8.50000000E-01  8.00000000E-01  8.50000000E-01  8.50000000E-01  8.50000000E-01
  8.00000000E-01  8.50000000E-01  8.50000000E-01  8.50000000E-01  8.00000000E-01
  8.50000000E-01  8.50000000E-01  8.50000000E-01  8.00000000E-01  8.50000000E-01
  8.50000000E-01  8.50000000E-01  8.00000000E-01  8.50000000E-01  8.50000000E-01
  8.50000000E-01  8.00000000E-01  8.50000000E-01  8.50000000E-01  8.50000000E-01
  8.00000000E-01  8.50000000E-01  8.50000000E-01  8.50000000E-01  8.00000000E-01
  8.50000000E-01  8.50000000E-01  8.50000000E-01  8.00000000E-01  8.50000000E-01
  8.50000000E-01  8.50000000E-01  8.00000000E-01  8.50000000E-01  8.50000000E-01
  8.50000000E-01  8.00000000E-01  8.50000000E-01  8.50000000E-01  8.50000000E-01
  8.00000000E-01  8.50000000E-01  8.50000000E-01  8.50000000E-01  8.00000000E-01
  8.50000000E-01  8.50000000E-01  8.50000000E-01  8.00000000E-01  8.50000000E-01
  8.50000000E-01  8.50000000E-01  8.00000000E-01  8.50000000E-01  8.50000000E-01
  8.50000000E-01  8.00000000E-01  8.50000000E-01  8.50000000E-01  8.50000000E-01
  8.00000000E-01  8.50000000E-01  8.50000000E-01  8.50000000E-01  8.00000000E-01
  8.50000000E-01  8.50000000E-01  8.50000000E-01  8.00000000E-01  8.50000000E-01
  8.50000000E-01  8.50000000E-01  8.00000000E-01  8.50000000E-01  8.50000000E-01
  8.50000000E-01  8.00000000E-01  8.50000000E-01  8.50000000E-01  8.50000000E-01
  8.00000000E-01  8.50000000E-01  8.50000000E-01  8.50000000E-01  8.00000000E-01
  8.50000000E-01  8.50000000E-01  8.50000000E-01  8.00000000E-01  8.50000000E-01
  8.50000000E-01  8.50000000E-01  8.00000000E-01  8.50000000E-01  8.50000000E-01
  8.50000000E-01  8.00000000E-01  8.50000000E-01  8.50000000E-01  8.50000000E-01
  8.00000000E-01  8.50000000E-01  8.50000000E-01  8.50000000E-01  8.00000000E-01
  8.50000000E-01  8.50000000E-01  8.50000000E-01  8.00000000E-01  8.50000000E-01
  8.50000000E-01  8.50000000E-01  8.00000000E-01  8.50000000E-01  8.50000000E-01
  8.50000000E-01  8.00000000E-01  8.50000000E-01  8.50000000E-01  8.50000000E-01
  8.00000000E-01  8.50000000E-01  8.50000000E-01  8.50000000E-01  8.00000000E-01
  8.50000000E-01  8.50000000E-01  8.50000000E-01  8.00000000E-01  8.50000000E-01
  8.50000000E-01  8.50000000E-01  8.00000000E-01  8.50000000E-01  8.50000000E-01
  8.50000000E-01  8.00000000E-01  8.50000000E-01  8.50000000E-01  8.50000000E-01
  8.00000000E-01  8.50000000E-01  8.50000000E-01  8.50000000E-01  8.00000000E-01
  8.50000000E-01  8.50000000E-01  8.50000000E-01  8.00000000E-01  8.50000000E-01
  8.50000000E-01  8.50000000E-01  8.00000000E-01  8.50000000E-01  8.50000000E-01
  8.50000000E-01  8.00000000E-01  8.50000000E-01  8.50000000E-01  8.50000000E-01
  8.00000000E-01  8.50000000E-01  8.50000000E-01  8.50000000E-01  8.00000000E-01
  8.50000000E-01  8.50000000E-01  8.50000000E-01  8.00000000E-01  8.50000000E-01
  8.50000000E-01  8.50000000E-01  8.00000000E-01  8.50000000E-01  8.50000000E-01
  8.50000000E-01  8.00000000E-01  8.50000000E-01  8.50000000E-01  8.50000000E-01
  8.00000000E-01  8.50000000E-01  8.50000000E-01  8.50000000E-01  8.00000000E-01
  8.50000000E-01  8.50000000E-01  8.50000000E-01  8.00000000E-01  8.50000000E-01
  8.50000000E-01  8.50000000E-01  8.00000000E-01  8.50000000E-01  8.50000000E-01
  8.50000000E-01  8.00000000E-01  8.50000000E-01  8.50000000E-01  8.50000000E-01
  8.00000000E-01  8.50000000E-01  8.50000000E-01  8.50000000E-01  8.00000000E-01
  8.50000000E-01  8.50000000E-01  8.50000000E-01  8.00000000E-01  8.50000000E-01
  8.50000000E-01  8.50000000E-01  8.00000000E-01  8.50000000E-01  8.50000000E-01
  8.50000000E-01  8.00000000E-01  8.50000000E-01  8.50000000E-01  8.50000000E-01
  8.00000000E-01  8.50000000E-01  8.50000000E-01  8.50000000E-01  8.00000000E-01
  8.50000000E-01  8.50000000E-01  8.50000000E-01  8.00000000E-01  8.50000000E-01
  8.50000000E-01  8.50000000E-01  8.00000000E-01  8.50000000E-01  8.50000000E-01
  8.50000000E-01  8.00000000E-01  8.50000000E-01  8.50000000E-01  8.50000000E-01
  8.00000000E-01  8.50000000E-01  8.50000000E-01  8.50000000E-01  8.00000000E-01
  8.50000000E-01  8.50000000E-01  8.50000000E-01  8.00000000E-01  8.50000000E-01
  8.50000000E-01  8.50000000E-01  8.00000000E-01  8.50000000E-01  8.50000000E-01
  8.50000000E-01  8.00000000E-01  8.50000000E-01  8.50000000E-01  8.50000000E-01
  8.00000000E-01  8.50000000E-01  8.50000000E-01  8.50000000E-01  8.00000000E-01
  8.50000000E-01  8.50000000E-01  8.50000000E-01  8.00000000E-01  8.50000000E-01
  8.50000000E-01  8.50000000E-01  8.00000000E-01  8.50000000E-01  8.50000000E-01
  8.50000000E-01  8.00000000E-01  8.50000000E-01  8.50000000E-01  8.50000000E-01
  8.00000000E-01  8.50000000E-01  8.50000000E-01  8.50000000E-01  8.00000000E-01
  8.50000000E-01  8.50000000E-01  8.50000000E-01  8.00000000E-01  8.50000000E-01
  8.50000000E-01  8.50000000E-01  8.00000000E-01  8.50000000E-01  8.50000000E-01
  8.50000000E-01  8.00000000E-01  8.50000000E-01  8.50000000E-01  8.50000000E-01
  8.00000000E-01  8.50000000E-01  8.50000000E-01  8.50000000E-01  8.00000000E-01
  8.50000000E-01  8.50000000E-01  8.50000000E-01  8.00000000E-01  8.50000000E-01
  8.50000000E-01  8.50000000E-01  8.00000000E-01  8.50000000E-01  8.50000000E-01
  8.50000000E-01  8.00000000E-01  8.50000000E-01  8.50000000E-01  8.50000000E-01
  8.00000000E-01  8.50000000E-01  8.50000000E-01  8.50000000E-01  8.00000000E-01
  8.50000000E-01  8.50000000E-01  8.50000000E-01  8.00000000E-01  8.50000000E-01
  8.50000000E-01  8.50000000E-01  8.00000000E-01  8.50000000E-01  8.50000000E-01
  8.50000000E-01  8.00000000E-01  8.50000000E-01  8.50000000E-01  8.50000000E-01
  8.00000000E-01  8.50000000E-01  8.50000000E-01  8.50000000E-01  8.00000000E-01
  8.50000000E-01  8.50000000E-01  8.50000000E-01  8.00000000E-01  8.50000000E-01
  8.50000000E-01  8.50000000E-01  8.00000000E-01  8.50000000E-01  8.50000000E-01
  8.50000000E-01  8.00000000E-01  8.50000000E-01  8.50000000E-01  8.50000000E-01
  8.00000000E-01  8.50000000E-01  8.50000000E-01  8.50000000E-01  8.00000000E-01
  8.50000000E-01  8.50000000E-01  8.50000000E-01  8.00000000E-01  8.50000000E-01
  8.50000000E-01  8.50000000E-01  8.00000000E-01  8.50000000E-01  8.50000000E-01
  8.50000000E-01  8.00000000E-01  8.50000000E-01  8.50000000E-01  8.50000000E-01
  8.00000000E-01  8.50000000E-01  8.50000000E-01  8.50000000E-01  8.00000000E-01
  8.50000000E-01  8.50000000E-01  8.50000000E-01  8.00000000E-01  8.50000000E-01
  8.50000000E-01  8.50000000E-01  8.00000000E-01  8.50000000E-01  8.50000000E-01
  8.50000000E-01  8.00000000E-01  8.50000000E-01  8.50000000E-01  8.50000000E-01
  8.00000000E-01  8.50000000E-01  8.50000000E-01  8.50000000E-01  8.00000000E-01
  8.50000000E-01  8.50000000E-01  8.50000000E-01  8.00000000E-01  8.50000000E-01
  8.50000000E-01  8.50000000E-01  8.00000000E-01  8.50000000E-01  8.50000000E-01
  8.50000000E-01  8.00000000E-01  8.50000000E-01  8.50000000E-01  8.50000000E-01
  8.00000000E-01  8.50000000E-01  8.50000000E-01  8.50000000E-01  8.00000000E-01
  8.50000000E-01  8.50000000E-01  8.50000000E-01  8.00000000E-01  8.50000000E-01
  8.50000000E-01  8.50000000E-01  8.00000000E-01  8.50000000E-01  8.50000000E-01
  8.50000000E-01  8.00000000E-01  8.50000000E-01  8.50000000E-01  8.50000000E-01
  8.00000000E-01  8.50000000E-01  8.50000000E-01  8.50000000E-01  8.00000000E-01
  8.50000000E-01  8.50000000E-01  8.50000000E-01  8.00000000E-01  8.50000000E-01
  8.50000000E-01  8.50000000E-01  8.00000000E-01  8.50000000E-01  8.50000000E-01
  8.50000000E-01  8.00000000E-01  8.50000000E-01  8.50000000E-01  8.50000000E-01
  8.00000000E-01  8.50000000E-01  8.50000000E-01  8.50000000E-01  8.00000000E-01
  8.50000000E-01  8.50000000E-01  8.50000000E-01  8.00000000E-01  8.50000000E-01
  8.50000000E-01  8.50000000E-01  8.00000000E-01  8.50000000E-01  8.50000000E-01
  8.50000000E-01  8.00000000E-01  8.50000000E-01  8.50000000E-01  8.50000000E-01
  8.00000000E-01  8.50000000E-01  8.50000000E-01  8.50000000E-01  8.00000000E-01
  8.50000000E-01  8.50000000E-01  8.50000000E-01  8.00000000E-01  8.50000000E-01
  8.50000000E-01  8.50000000E-01  8.00000000E-01  8.50000000E-01  8.50000000E-01
  8.50000000E-01  8.00000000E-01  8.50000000E-01  8.50000000E-01  8.50000000E-01
  8.00000000E-01  8.50000000E-01  8.50000000E-01  8.50000000E-01  8.00000000E-01
  8.50000000E-01  8.50000000E-01  8.50000000E-01  8.00000000E-01  8.50000000E-01
  8.50000000E-01  8.50000000E-01  8.00000000E-01  8.50000000E-01  8.50000000E-01
  8.50000000E-01  8.00000000E-01  8.50000000E-01  8.50000000E-01  8.50000000E-01
  8.00000000E-01  8.50000000E-01  8.50000000E-01  8.50000000E-01  8.00000000E-01
  8.50000000E-01  8.50000000E-01  8.50000000E-01  8.00000000E-01  8.50000000E-01
  8.50000000E-01  8.50000000E-01  8.00000000E-01  8.50000000E-01  8.50000000E-01
  8.50000000E-01  8.00000000E-01  8.50000000E-01  8.50000000E-01  8.50000000E-01
  8.00000000E-01  8.50000000E-01  8.50000000E-01  8.50000000E-01  8.00000000E-01
  8.50000000E-01  8.50000000E-01  8.50000000E-01  8.00000000E-01  8.50000000E-01
  8.50000000E-01  8.50000000E-01  8.00000000E-01  8.50000000E-01  8.50000000E-01
  8.50000000E-01  8.00000000E-01  8.50000000E-01  8.50000000E-01  8.50000000E-01
  8.00000000E-01  8.50000000E-01  8.50000000E-01  8.50000000E-01  8.00000000E-01
  8.50000000E-01  8.50000000E-01  8.50000000E-01  8.00000000E-01  8.50000000E-01
  8.50000000E-01  8.50000000E-01  8.00000000E-01  8.50000000E-01  8.50000000E-01
  8.50000000E-01  8.00000000E-01  8.50000000E-01  8.50000000E-01  8.50000000E-01
  8.00000000E-01  8.50000000E-01  8.50000000E-01  8.50000000E-01  8.00000000E-01
  8.50000000E-01  8.50000000E-01  8.50000000E-01  8.00000000E-01  8.50000000E-01
  8.50000000E-01  8.50000000E-01  8.00000000E-01  8.50000000E-01  8.50000000E-01
  8.50000000E-01  8.00000000E-01  8.50000000E-01  8.50000000E-01  8.50000000E-01
  8.00000000E-01  8.50000000E-01  8.50000000E-01  8.50000000E-01  8.00000000E-01
  8.50000000E-01  8.50000000E-01  8.50000000E-01  8.00000000E-01  8.50000000E-01
  8.50000000E-01  8.50000000E-01  8.00000000E-01  8.50000000E-01  8.50000000E-01
  8.50000000E-01  8.00000000E-01  8.50000000E-01  8.50000000E-01  8.50000000E-01
  8.00000000E-01  8.50000000E-01  8.50000000E-01  8.50000000E-01  8.00000000E-01
  8.50000000E-01  8.50000000E-01  8.50000000E-01  8.00000000E-01  8.50000000E-01
  8.50000000E-01  8.50000000E-01  8.00000000E-01  8.50000000E-01  8.50000000E-01
  8.50000000E-01  8.00000000E-01  8.50000000E-01  8.50000000E-01  8.50000000E-01
  8.00000000E-01  8.50000000E-01  8.50000000E-01  8.50000000E-01  8.00000000E-01
  8.50000000E-01  8.50000000E-01  8.50000000E-01  8.00000000E-01  8.50000000E-01
  8.50000000E-01  8.50000000E-01  8.00000000E-01  8.50000000E-01  8.50000000E-01
  8.50000000E-01  8.00000000E-01  8.50000000E-01  8.50000000E-01  8.50000000E-01
  8.00000000E-01  8.50000000E-01  8.50000000E-01  8.50000000E-01  8.00000000E-01
  8.50000000E-01  8.50000000E-01  8.50000000E-01  8.00000000E-01  8.50000000E-01
  8.50000000E-01  8.50000000E-01  8.00000000E-01  8.50000000E-01  8.50000000E-01
  8.50000000E-01  8.00000000E-01  8.50000000E-01  8.50000000E-01  8.50000000E-01
  8.00000000E-01  8.50000000E-01  8.50000000E-01  8.50000000E-01  8.00000000E-01
  8.50000000E-01  8.50000000E-01  8.50000000E-01  8.00000000E-01  8.50000000E-01
  8.50000000E-01  8.50000000E-01  8.00000000E-01  8.50000000E-01  8.50000000E-01
  8.50000000E-01  8.00000000E-01  8.50000000E-01  8.50000000E-01  8.50000000E-01
  8.00000000E-01  8.50000000E-01  8.50000000E-01  8.50000000E-01  8.00000000E-01
  8.50000000E-01  8.50000000E-01  8.50000000E-01  8.00000000E-01  8.50000000E-01
  8.50000000E-01  8.50000000E-01  8.00000000E-01  8.50000000E-01  8.50000000E-01
  8.50000000E-01  8.00000000E-01  8.50000000E-01  8.50000000E-01  8.50000000E-01
  8.00000000E-01  8.50000000E-01  8.50000000E-01  8.50000000E-01  8.00000000E-01
  8.50000000E-01  8.50000000E-01  8.50000000E-01  8.00000000E-01  8.50000000E-01
  8.50000000E-01  8.50000000E-01  8.00000000E-01  8.50000000E-01  8.50000000E-01
  8.50000000E-01  8.00000000E-01  8.50000000E-01  8.50000000E-01  8.50000000E-01
  8.00000000E-01  8.50000000E-01  8.50000000E-01  8.50000000E-01  8.00000000E-01
  8.50000000E-01  8.50000000E-01  8.50000000E-01  8.00000000E-01  8.50000000E-01
  8.50000000E-01  8.50000000E-01  8.00000000E-01  8.50000000E-01  8.50000000E-01
  8.50000000E-01  8.00000000E-01  8.50000000E-01  8.50000000E-01  8.50000000E-01
  8.00000000E-01  8.50000000E-01  8.50000000E-01  8.50000000E-01  8.00000000E-01
  8.50000000E-01  8.50000000E-01  8.50000000E-01  8.00000000E-01  8.50000000E-01
  8.50000000E-01  8.50000000E-01  8.00000000E-01  8.50000000E-01  8.50000000E-01
  8.50000000E-01  8.00000000E-01  8.50000000E-01  8.50000000E-01  8.50000000E-01
  8.00000000E-01  8.50000000E-01  8.50000000E-01  8.50000000E-01  8.00000000E-01
  8.50000000E-01  8.50000000E-01  8.50000000E-01  8.00000000E-01  8.50000000E-01
  8.50000000E-01  8.50000000E-01  8.00000000E-01  8.50000000E-01  8.50000000E-01
  8.50000000E-01  8.00000000E-01  8.50000000E-01  8.50000000E-01  8.50000000E-01
  8.00000000E-01  8.50000000E-01  8.50000000E-01  8.50000000E-01  8.00000000E-01
  8.50000000E-01  8.50000000E-01  8.50000000E-01  8.00000000E-01  8.50000000E-01
  8.50000000E-01  8.50000000E-01  8.00000000E-01  8.50000000E-01  8.50000000E-01
  8.50000000E-01  8.00000000E-01  8.50000000E-01  8.50000000E-01  8.50000000E-01
  8.00000000E-01  8.50000000E-01  8.50000000E-01  8.50000000E-01  8.00000000E-01
  8.50000000E-01  8.50000000E-01  8.50000000E-01  8.00000000E-01  8.50000000E-01
  8.50000000E-01  8.50000000E-01  8.00000000E-01  8.50000000E-01  8.50000000E-01
  8.50000000E-01  8.00000000E-01  8.50000000E-01  8.50000000E-01  8.50000000E-01
  8.00000000E-01  8.50000000E-01  8.50000000E-01  8.50000000E-01  8.00000000E-01
  8.50000000E-01  8.50000000E-01  8.50000000E-01  8.00000000E-01  8.50000000E-01
  8.50000000E-01  8.50000000E-01  8.00000000E-01  8.50000000E-01  8.50000000E-01
  8.50000000E-01  8.00000000E-01  8.50000000E-01  8.50000000E-01  8.50000000E-01
  8.00000000E-01  8.50000000E-01  8.50000000E-01  8.50000000E-01  8.00000000E-01
  8.50000000E-01  8.50000000E-01  8.50000000E-01  8.00000000E-01  8.50000000E-01
  8.50000000E-01  8.50000000E-01  8.00000000E-01  8.50000000E-01  8.50000000E-01
  8.50000000E-01  8.00000000E-01  8.50000000E-01  8.50000000E-01  8.50000000E-01
  8.00000000E-01  8.50000000E-01  8.50000000E-01  8.50000000E-01  8.00000000E-01
  8.50000000E-01  8.50000000E-01  8.50000000E-01  8.00000000E-01  8.50000000E-01
  8.50000000E-01  8.50000000E-01  8.00000000E-01  8.50000000E-01  8.50000000E-01
  8.50000000E-01  8.00000000E-01  8.50000000E-01  8.50000000E-01  8.50000000E-01
  8.00000000E-01  8.50000000E-01  8.50000000E-01  8.50000000E-01  8.00000000E-01
  8.50000000E-01  8.50000000E-01  8.50000000E-01  8.00000000E-01  8.50000000E-01
  8.50000000E-01  8.50000000E-01  8.00000000E-01  8.50000000E-01  8.50000000E-01
  8.50000000E-01  8.00000000E-01  8.50000000E-01  8.50000000E-01  8.50000000E-01
  8.00000000E-01  8.50000000E-01  8.50000000E-01  8.50000000E-01  8.00000000E-01
  8.50000000E-01  8.50000000E-01  8.50000000E-01  8.00000000E-01  8.50000000E-01
  8.50000000E-01  8.50000000E-01  8.00000000E-01  8.50000000E-01  8.50000000E-01
  8.50000000E-01  8.00000000E-01  8.50000000E-01  8.50000000E-01  8.50000000E-01
  8.00000000E-01  8.50000000E-01  8.50000000E-01  8.50000000E-01  8.00000000E-01
  8.50000000E-01  8.50000000E-01  8.50000000E-01  8.00000000E-01  8.50000000E-01
  8.50000000E-01  8.50000000E-01  8.00000000E-01  8.50000000E-01  8.50000000E-01
  8.50000000E-01  8.00000000E-01  8.50000000E-01  8.50000000E-01  8.50000000E-01
  8.00000000E-01  8.50000000E-01  8.50000000E-01  8.50000000E-01  8.00000000E-01
  8.50000000E-01  8.50000000E-01  8.50000000E-01  8.00000000E-01  8.50000000E-01
  8.50000000E-01  8.50000000E-01  8.00000000E-01  8.50000000E-01  8.50000000E-01
  8.50000000E-01  8.00000000E-01  8.50000000E-01  8.50000000E-01  8.50000000E-01
  8.00000000E-01  8.50000000E-01  8.50000000E-01  8.50000000E-01  8.00000000E-01
  8.50000000E-01  8.50000000E-01  8.50000000E-01  8.00000000E-01  8.50000000E-01
  8.50000000E-01  8.50000000E-01  8.00000000E-01  8.50000000E-01  8.50000000E-01
  8.50000000E-01  8.00000000E-01  8.50000000E-01  8.50000000E-01  8.50000000E-01
  8.00000000E-01  8.50000000E-01  8.50000000E-01  8.50000000E-01  8.00000000E-01
  8.50000000E-01  8.50000000E-01  8.50000000E-01  8.00000000E-01  8.50000000E-01
  8.50000000E-01  8.50000000E-01  8.00000000E-01  8.50000000E-01  8.50000000E-01
  8.50000000E-01  8.00000000E-01  8.50000000E-01  8.50000000E-01  8.50000000E-01
  8.00000000E-01  8.50000000E-01  8.50000000E-01  8.50000000E-01  8.00000000E-01
  8.50000000E-01  8.50000000E-01  8.50000000E-01  8.00000000E-01  8.50000000E-01
  8.50000000E-01  8.50000000E-01  8.00000000E-01  8.50000000E-01  8.50000000E-01
  8.50000000E-01  8.00000000E-01  8.50000000E-01  8.50000000E-01  8.50000000E-01
  8.00000000E-01  8.50000000E-01  8.50000000E-01  8.50000000E-01  8.00000000E-01
  8.50000000E-01  8.50000000E-01  8.50000000E-01  8.00000000E-01  8.50000000E-01
  8.50000000E-01  8.50000000E-01  8.00000000E-01  8.50000000E-01  8.50000000E-01
  8.50000000E-01  8.00000000E-01  8.50000000E-01  8.50000000E-01  8.50000000E-01
  8.00000000E-01  8.50000000E-01  8.50000000E-01  8.50000000E-01  8.00000000E-01
  8.50000000E-01  8.50000000E-01  8.50000000E-01  8.00000000E-01  8.50000000E-01
  8.50000000E-01  8.50000000E-01  8.00000000E-01  8.50000000E-01  8.50000000E-01
  8.50000000E-01  8.00000000E-01  8.50000000E-01  8.50000000E-01  8.50000000E-01
  8.00000000E-01  8.50000000E-01  8.50000000E-01  8.50000000E-01  8.00000000E-01
  8.50000000E-01  8.50000000E-01  8.50000000E-01  8.00000000E-01  8.50000000E-01
  8.50000000E-01  8.50000000E-01  8.00000000E-01  8.50000000E-01  8.50000000E-01
  8.50000000E-01  8.00000000E-01  8.50000000E-01  8.50000000E-01  8.50000000E-01
  8.00000000E-01  8.50000000E-01  8.50000000E-01  8.50000000E-01  8.00000000E-01
  8.50000000E-01  8.50000000E-01  8.50000000E-01  8.00000000E-01  8.50000000E-01
  8.50000000E-01  8.50000000E-01  8.00000000E-01  8.50000000E-01  8.50000000E-01
  8.50000000E-01  8.00000000E-01  8.50000000E-01  8.50000000E-01  8.50000000E-01
  8.00000000E-01  8.50000000E-01  8.50000000E-01  8.50000000E-01  8.00000000E-01
  8.50000000E-01  8.50000000E-01  8.50000000E-01  8.00000000E-01  8.50000000E-01
  8.50000000E-01  8.50000000E-01  8.00000000E-01  8.50000000E-01  8.50000000E-01
  8.50000000E-01  8.00000000E-01  8.50000000E-01  8.50000000E-01  8.50000000E-01
  8.00000000E-01  8.50000000E-01  8.50000000E-01  8.50000000E-01  8.00000000E-01
  8.50000000E-01  8.50000000E-01  8.50000000E-01  8.00000000E-01  8.50000000E-01
  8.50000000E-01  8.50000000E-01  8.00000000E-01  8.50000000E-01  8.50000000E-01
  8.50000000E-01  8.00000000E-01  8.50000000E-01  8.50000000E-01  8.50000000E-01
  8.00000000E-01  8.50000000E-01  8.50000000E-01  8.50000000E-01  8.00000000E-01
  8.50000000E-01  8.50000000E-01  8.50000000E-01  8.00000000E-01  8.50000000E-01
  8.50000000E-01  8.50000000E-01  8.00000000E-01  8.50000000E-01  8.50000000E-01
  8.50000000E-01  8.00000000E-01  8.50000000E-01  8.50000000E-01  8.50000000E-01
  8.00000000E-01  8.50000000E-01  8.50000000E-01  8.50000000E-01  8.00000000E-01
  8.50000000E-01  8.50000000E-01  8.50000000E-01  8.00000000E-01  8.50000000E-01
  8.50000000E-01  8.50000000E-01  8.00000000E-01  8.50000000E-01  8.50000000E-01
  8.50000000E-01  8.00000000E-01  8.50000000E-01  8.50000000E-01  8.50000000E-01
  8.00000000E-01  8.50000000E-01  8.50000000E-01  8.50000000E-01  8.00000000E-01
  8.50000000E-01  8.50000000E-01  8.50000000E-01  8.00000000E-01  8.50000000E-01
  8.50000000E-01  8.50000000E-01  8.00000000E-01  8.50000000E-01  8.50000000E-01
  8.50000000E-01  8.00000000E-01  8.50000000E-01  8.50000000E-01  8.50000000E-01
  8.00000000E-01  8.50000000E-01  8.50000000E-01  8.50000000E-01  8.00000000E-01
  8.50000000E-01  8.50000000E-01  8.50000000E-01  8.00000000E-01  8.50000000E-01
  8.50000000E-01  8.50000000E-01  8.00000000E-01  8.50000000E-01  8.50000000E-01
  8.50000000E-01  8.00000000E-01  8.50000000E-01  8.50000000E-01  8.50000000E-01
  8.00000000E-01  8.50000000E-01  8.50000000E-01  8.50000000E-01  8.00000000E-01
  8.50000000E-01  8.50000000E-01  8.50000000E-01  8.00000000E-01  8.50000000E-01
  8.50000000E-01  8.50000000E-01  8.00000000E-01  8.50000000E-01  8.50000000E-01
  8.50000000E-01  8.00000000E-01  8.50000000E-01  8.50000000E-01  8.50000000E-01
  8.00000000E-01  8.50000000E-01  8.50000000E-01  8.50000000E-01  8.00000000E-01
  8.50000000E-01  8.50000000E-01  8.50000000E-01  8.00000000E-01  8.50000000E-01
  8.50000000E-01  8.50000000E-01  8.00000000E-01  8.50000000E-01  8.50000000E-01
  8.50000000E-01  8.00000000E-01  8.50000000E-01  8.50000000E-01  8.50000000E-01
  8.00000000E-01  8.50000000E-01  8.50000000E-01  8.50000000E-01  8.00000000E-01
  8.50000000E-01  8.50000000E-01  8.50000000E-01  8.00000000E-01  8.50000000E-01
  8.50000000E-01  8.50000000E-01  8.00000000E-01  8.50000000E-01  8.50000000E-01
  8.50000000E-01  8.00000000E-01  8.50000000E-01  8.50000000E-01  8.50000000E-01
  8.00000000E-01  8.50000000E-01  8.50000000E-01  8.50000000E-01  8.00000000E-01
  8.50000000E-01  8.50000000E-01  8.50000000E-01  8.00000000E-01  8.50000000E-01
  8.50000000E-01  8.50000000E-01  8.00000000E-01  8.50000000E-01  8.50000000E-01
  8.50000000E-01  8.00000000E-01  8.50000000E-01  8.50000000E-01  8.50000000E-01
  8.00000000E-01  8.50000000E-01  8.50000000E-01  8.50000000E-01  8.00000000E-01
  8.50000000E-01  8.50000000E-01  8.50000000E-01  8.00000000E-01  8.50000000E-01
  8.50000000E-01  8.50000000E-01  8.00000000E-01  8.50000000E-01  8.50000000E-01
  8.50000000E-01  8.00000000E-01  8.50000000E-01  8.50000000E-01  8.50000000E-01
  8.00000000E-01  8.50000000E-01  8.50000000E-01  8.50000000E-01  8.00000000E-01
  8.50000000E-01  8.50000000E-01  8.50000000E-01  8.00000000E-01  8.50000000E-01
  8.50000000E-01  8.50000000E-01  8.00000000E-01  8.50000000E-01  8.50000000E-01
  8.50000000E-01  8.00000000E-01  8.50000000E-01  8.50000000E-01  8.50000000E-01
  8.00000000E-01  8.50000000E-01  8.50000000E-01  8.50000000E-01  8.00000000E-01
  8.50000000E-01  8.50000000E-01  8.50000000E-01  8.00000000E-01  8.50000000E-01
  8.50000000E-01  8.50000000E-01  8.00000000E-01  8.50000000E-01  8.50000000E-01
  8.50000000E-01  8.00000000E-01  8.50000000E-01  8.50000000E-01  8.50000000E-01
  8.00000000E-01  8.50000000E-01  8.50000000E-01  8.50000000E-01  8.00000000E-01
  8.50000000E-01  8.50000000E-01  8.50000000E-01  8.00000000E-01  8.50000000E-01
  8.50000000E-01  8.50000000E-01  8.00000000E-01  8.50000000E-01  8.50000000E-01
  8.50000000E-01  8.00000000E-01  8.50000000E-01  8.50000000E-01  8.50000000E-01
  8.00000000E-01  8.50000000E-01  8.50000000E-01  8.50000000E-01  8.00000000E-01
  8.50000000E-01  8.50000000E-01  8.50000000E-01  8.00000000E-01  8.50000000E-01
  8.50000000E-01  8.50000000E-01  8.00000000E-01  8.50000000E-01  8.50000000E-01
  8.50000000E-01  8.00000000E-01  8.50000000E-01  8.50000000E-01  8.50000000E-01
  8.00000000E-01  8.50000000E-01  8.50000000E-01  8.50000000E-01  8.00000000E-01
  8.50000000E-01  8.50000000E-01  8.50000000E-01  8.00000000E-01  8.50000000E-01
  8.50000000E-01  8.50000000E-01  8.00000000E-01  8.50000000E-01  8.50000000E-01
  8.50000000E-01  8.00000000E-01  8.50000000E-01  8.50000000E-01  8.50000000E-01
  8.00000000E-01  8.50000000E-01  8.50000000E-01  8.50000000E-01  8.00000000E-01
  8.50000000E-01  8.50000000E-01  8.50000000E-01  8.00000000E-01  8.50000000E-01
  8.50000000E-01  8.50000000E-01  8.00000000E-01  8.50000000E-01  8.50000000E-01
  8.50000000E-01  8.00000000E-01  8.50000000E-01  8.50000000E-01  8.50000000E-01
  8.00000000E-01  8.50000000E-01  8.50000000E-01  8.50000000E-01  8.00000000E-01
  8.50000000E-01  8.50000000E-01  8.50000000E-01  8.00000000E-01  8.50000000E-01
  8.50000000E-01  8.50000000E-01  8.00000000E-01  8.50000000E-01  8.50000000E-01
  8.50000000E-01  8.00000000E-01  8.50000000E-01  8.50000000E-01  8.50000000E-01
  8.00000000E-01  8.50000000E-01  8.50000000E-01  8.50000000E-01  8.00000000E-01
  8.50000000E-01  8.50000000E-01  8.50000000E-01  8.00000000E-01  8.50000000E-01
  8.50000000E-01  8.50000000E-01  8.00000000E-01  8.50000000E-01  8.50000000E-01
  8.50000000E-01  8.00000000E-01  8.50000000E-01  8.50000000E-01  8.50000000E-01
  8.00000000E-01  8.50000000E-01  8.50000000E-01  8.50000000E-01  8.00000000E-01
  8.50000000E-01  8.50000000E-01  8.50000000E-01  8.00000000E-01  8.50000000E-01
  8.50000000E-01  8.50000000E-01  8.00000000E-01  8.50000000E-01  8.50000000E-01
  8.50000000E-01  8.00000000E-01  8.50000000E-01  8.50000000E-01  8.50000000E-01
  8.00000000E-01  8.50000000E-01  8.50000000E-01  8.50000000E-01  8.00000000E-01
  8.50000000E-01  8.50000000E-01  8.50000000E-01  8.00000000E-01  8.50000000E-01
  8.50000000E-01  8.50000000E-01  8.00000000E-01  8.50000000E-01  8.50000000E-01
  8.50000000E-01  8.00000000E-01  8.50000000E-01  8.50000000E-01  8.50000000E-01
  8.00000000E-01  8.50000000E-01  8.50000000E-01  8.50000000E-01  8.00000000E-01
  8.50000000E-01  8.50000000E-01  8.50000000E-01  8.00000000E-01  8.50000000E-01
  8.50000000E-01  8.50000000E-01  8.00000000E-01  8.50000000E-01  8.50000000E-01
  8.50000000E-01  8.00000000E-01  8.50000000E-01  8.50000000E-01  8.50000000E-01
  8.00000000E-01  8.50000000E-01  8.50000000E-01  8.50000000E-01  8.00000000E-01
  8.50000000E-01  8.50000000E-01  8.50000000E-01  8.00000000E-01  8.50000000E-01
  8.50000000E-01  8.50000000E-01  8.00000000E-01  8.50000000E-01  8.50000000E-01
  8.50000000E-01  8.00000000E-01  8.50000000E-01  8.50000000E-01  8.50000000E-01
  8.00000000E-01  8.50000000E-01  8.50000000E-01  8.50000000E-01  8.00000000E-01
  8.50000000E-01  8.50000000E-01  8.50000000E-01  8.00000000E-01  8.50000000E-01
  8.50000000E-01  8.50000000E-01  8.00000000E-01  8.50000000E-01  8.50000000E-01
  8.50000000E-01  8.00000000E-01  8.50000000E-01  8.50000000E-01  8.50000000E-01
  8.00000000E-01  8.50000000E-01  8.50000000E-01  8.50000000E-01  8.00000000E-01
  8.50000000E-01  8.50000000E-01  8.50000000E-01  8.00000000E-01  8.50000000E-01
  8.50000000E-01  8.50000000E-01  8.00000000E-01  8.50000000E-01  8.50000000E-01
  8.50000000E-01  8.00000000E-01  8.50000000E-01  8.50000000E-01  8.50000000E-01
  8.00000000E-01  8.50000000E-01  8.50000000E-01  8.50000000E-01  8.00000000E-01
  8.50000000E-01  8.50000000E-01  8.50000000E-01  8.00000000E-01  8.50000000E-01
  8.50000000E-01  8.50000000E-01  8.00000000E-01  8.50000000E-01  8.50000000E-01
  8.50000000E-01  8.00000000E-01  8.50000000E-01  8.50000000E-01  8.50000000E-01
  8.00000000E-01  8.50000000E-01  8.50000000E-01  8.50000000E-01  8.00000000E-01
  8.50000000E-01  8.50000000E-01  8.50000000E-01  8.00000000E-01  8.50000000E-01
  8.50000000E-01  8.50000000E-01  8.00000000E-01  8.50000000E-01  8.50000000E-01
  8.50000000E-01  8.00000000E-01  8.50000000E-01  8.50000000E-01  8.50000000E-01
  8.00000000E-01  8.50000000E-01  8.50000000E-01  8.50000000E-01  8.00000000E-01
  8.50000000E-01  8.50000000E-01  8.50000000E-01  8.00000000E-01  8.50000000E-01
  8.50000000E-01  8.50000000E-01  8.00000000E-01  8.50000000E-01  8.50000000E-01
  8.50000000E-01  8.00000000E-01  8.50000000E-01  8.50000000E-01  8.50000000E-01
  8.00000000E-01  8.50000000E-01  8.50000000E-01  8.50000000E-01  8.00000000E-01
  8.50000000E-01  8.50000000E-01  8.50000000E-01  8.00000000E-01  8.50000000E-01
  8.50000000E-01  8.50000000E-01  8.00000000E-01  8.50000000E-01  8.50000000E-01
  8.50000000E-01  8.00000000E-01  8.50000000E-01  8.50000000E-01  8.50000000E-01
  8.00000000E-01  8.50000000E-01  8.50000000E-01  8.50000000E-01  8.00000000E-01
  8.50000000E-01  8.50000000E-01  8.50000000E-01  8.00000000E-01  8.50000000E-01
  8.50000000E-01  8.50000000E-01  8.00000000E-01  8.50000000E-01  8.50000000E-01
  8.50000000E-01  8.00000000E-01  8.50000000E-01  8.50000000E-01  8.50000000E-01
  8.00000000E-01  8.50000000E-01  8.50000000E-01  8.50000000E-01  8.00000000E-01
  8.50000000E-01  8.50000000E-01  8.50000000E-01  8.00000000E-01  8.50000000E-01
  8.50000000E-01  8.50000000E-01  8.00000000E-01  8.50000000E-01  8.50000000E-01
  8.50000000E-01  8.00000000E-01  8.50000000E-01  8.50000000E-01  8.50000000E-01
  8.00000000E-01  8.50000000E-01  8.50000000E-01  8.50000000E-01  8.00000000E-01
  8.50000000E-01  8.50000000E-01  8.50000000E-01  8.00000000E-01  8.50000000E-01
  8.50000000E-01  8.50000000E-01  8.00000000E-01  8.50000000E-01  8.50000000E-01
  8.50000000E-01  8.00000000E-01  8.50000000E-01  8.50000000E-01  8.50000000E-01
  8.00000000E-01  8.50000000E-01  8.50000000E-01  8.50000000E-01  8.00000000E-01
  8.50000000E-01  8.50000000E-01  8.50000000E-01  8.00000000E-01  8.50000000E-01
  8.50000000E-01  8.50000000E-01  8.00000000E-01  8.50000000E-01  8.50000000E-01
  8.50000000E-01  8.00000000E-01  8.50000000E-01  8.50000000E-01  8.50000000E-01
  8.00000000E-01  8.50000000E-01  8.50000000E-01  8.50000000E-01  8.00000000E-01
  8.50000000E-01  8.50000000E-01  8.50000000E-01  8.00000000E-01  8.50000000E-01
  8.50000000E-01  8.50000000E-01  8.00000000E-01  8.50000000E-01  8.50000000E-01
  8.50000000E-01  8.00000000E-01  8.50000000E-01  8.50000000E-01  8.50000000E-01
  8.00000000E-01  8.50000000E-01  8.50000000E-01  8.50000000E-01  8.00000000E-01
  8.50000000E-01  8.50000000E-01  8.50000000E-01  8.00000000E-01  8.50000000E-01
  8.50000000E-01  8.50000000E-01  8.00000000E-01  8.50000000E-01  8.50000000E-01
  8.50000000E-01  8.00000000E-01  8.50000000E-01  8.50000000E-01  8.50000000E-01
  8.00000000E-01  8.50000000E-01  8.50000000E-01  8.50000000E-01  8.00000000E-01
  8.50000000E-01  8.50000000E-01  8.50000000E-01  8.00000000E-01  8.50000000E-01
  8.50000000E-01  8.50000000E-01  8.00000000E-01  8.50000000E-01  8.50000000E-01
  8.50000000E-01  8.00000000E-01  8.50000000E-01  8.50000000E-01  8.50000000E-01
  8.00000000E-01  8.50000000E-01  8.50000000E-01  8.50000000E-01  8.00000000E-01
  8.50000000E-01  8.50000000E-01  8.50000000E-01  8.00000000E-01  8.50000000E-01
  8.50000000E-01  8.50000000E-01  8.00000000E-01  8.50000000E-01  8.50000000E-01
  8.50000000E-01  8.00000000E-01  8.50000000E-01  8.50000000E-01  8.50000000E-01
  8.00000000E-01  8.50000000E-01  8.50000000E-01  8.50000000E-01  8.00000000E-01
  8.50000000E-01  8.50000000E-01  8.50000000E-01  8.00000000E-01  8.50000000E-01
  8.50000000E-01  8.50000000E-01  8.00000000E-01  8.50000000E-01  8.50000000E-01
  8.50000000E-01  8.00000000E-01  8.50000000E-01  8.50000000E-01  8.50000000E-01
  8.00000000E-01  8.50000000E-01  8.50000000E-01  8.50000000E-01  8.00000000E-01
  8.50000000E-01  8.50000000E-01  8.50000000E-01  8.00000000E-01  8.50000000E-01
  8.50000000E-01  8.50000000E-01  8.00000000E-01  8.50000000E-01  8.50000000E-01
  8.50000000E-01  8.00000000E-01  8.50000000E-01  8.50000000E-01  8.50000000E-01
  8.00000000E-01  8.50000000E-01  8.50000000E-01  8.50000000E-01  8.00000000E-01
  8.50000000E-01  8.50000000E-01  8.50000000E-01  8.00000000E-01  8.50000000E-01
  8.50000000E-01  8.50000000E-01  8.00000000E-01  8.50000000E-01  8.50000000E-01
  8.50000000E-01  8.00000000E-01  8.50000000E-01  8.50000000E-01  8.50000000E-01
  8.00000000E-01  8.50000000E-01  8.50000000E-01  8.50000000E-01  8.00000000E-01
  8.50000000E-01  8.50000000E-01  8.50000000E-01  8.00000000E-01  8.50000000E-01
  8.50000000E-01  8.50000000E-01  8.00000000E-01  8.50000000E-01  8.50000000E-01
  8.50000000E-01  8.00000000E-01  8.50000000E-01  8.50000000E-01  8.50000000E-01
  8.00000000E-01  8.50000000E-01  8.50000000E-01  8.50000000E-01  8.00000000E-01
  8.50000000E-01  8.50000000E-01  8.50000000E-01  8.00000000E-01  8.50000000E-01
  8.50000000E-01  8.50000000E-01  8.00000000E-01  8.50000000E-01  8.50000000E-01
  8.50000000E-01  8.00000000E-01  8.50000000E-01  8.50000000E-01  8.50000000E-01
  8.00000000E-01  8.50000000E-01  8.50000000E-01  8.50000000E-01  8.00000000E-01
  8.50000000E-01  8.50000000E-01  8.50000000E-01  8.00000000E-01  8.50000000E-01
  8.50000000E-01  8.50000000E-01  8.00000000E-01  8.50000000E-01  8.50000000E-01
  8.50000000E-01  8.00000000E-01  8.50000000E-01  8.50000000E-01  8.50000000E-01
  8.00000000E-01  8.50000000E-01  8.50000000E-01  8.50000000E-01  8.00000000E-01
  8.50000000E-01  8.50000000E-01  8.50000000E-01  8.00000000E-01  8.50000000E-01
  8.50000000E-01  8.50000000E-01  8.00000000E-01  8.50000000E-01  8.50000000E-01
  8.50000000E-01  8.00000000E-01  8.50000000E-01  8.50000000E-01  8.50000000E-01
  8.00000000E-01  8.50000000E-01  8.50000000E-01  8.50000000E-01  8.00000000E-01
  8.50000000E-01  8.50000000E-01  8.50000000E-01  8.00000000E-01  8.50000000E-01
  8.50000000E-01  8.50000000E-01  8.00000000E-01  8.50000000E-01  8.50000000E-01
  8.50000000E-01  8.00000000E-01  8.50000000E-01  8.50000000E-01  8.50000000E-01
  8.00000000E-01  8.50000000E-01  8.50000000E-01  8.50000000E-01  8.00000000E-01
  8.50000000E-01  8.50000000E-01  8.50000000E-01  8.00000000E-01  8.50000000E-01
  8.50000000E-01  8.50000000E-01  8.00000000E-01  8.50000000E-01  8.50000000E-01
  8.50000000E-01  8.00000000E-01  8.50000000E-01  8.50000000E-01  8.50000000E-01
  8.00000000E-01  8.50000000E-01  8.50000000E-01  8.50000000E-01  8.00000000E-01
  8.50000000E-01  8.50000000E-01  8.50000000E-01  8.00000000E-01  8.50000000E-01
  8.50000000E-01  8.50000000E-01  8.00000000E-01  8.50000000E-01  8.50000000E-01
  8.50000000E-01  8.00000000E-01  8.50000000E-01  8.50000000E-01  8.50000000E-01
  8.00000000E-01  8.50000000E-01  8.50000000E-01  8.50000000E-01  8.00000000E-01
  8.50000000E-01  8.50000000E-01  8.50000000E-01  8.00000000E-01  8.50000000E-01
  8.50000000E-01  8.50000000E-01  8.00000000E-01  8.50000000E-01  8.50000000E-01
  8.50000000E-01  8.00000000E-01  8.50000000E-01  8.50000000E-01  8.50000000E-01
  8.00000000E-01  8.50000000E-01  8.50000000E-01  8.50000000E-01  8.00000000E-01
  8.50000000E-01  8.50000000E-01  8.50000000E-01  8.00000000E-01  8.50000000E-01
  8.50000000E-01  8.50000000E-01  8.00000000E-01  8.50000000E-01  8.50000000E-01
  8.50000000E-01  8.00000000E-01  8.50000000E-01  8.50000000E-01  8.50000000E-01
  8.00000000E-01  8.50000000E-01  8.50000000E-01  8.50000000E-01  8.00000000E-01
  8.50000000E-01  8.50000000E-01  8.50000000E-01  8.00000000E-01  8.50000000E-01
  8.50000000E-01  8.50000000E-01  8.00000000E-01  8.50000000E-01  8.50000000E-01
  8.50000000E-01  8.00000000E-01  8.50000000E-01  8.50000000E-01  8.50000000E-01
  8.00000000E-01  8.50000000E-01  8.50000000E-01  8.50000000E-01  8.00000000E-01
  8.50000000E-01  8.50000000E-01  8.50000000E-01  8.00000000E-01  8.50000000E-01
  8.50000000E-01  8.50000000E-01  8.00000000E-01  8.50000000E-01  8.50000000E-01
  8.50000000E-01  8.00000000E-01  8.50000000E-01  8.50000000E-01  8.50000000E-01
  8.00000000E-01  8.50000000E-01  8.50000000E-01  8.50000000E-01  8.00000000E-01
  8.50000000E-01  8.50000000E-01  8.50000000E-01  8.00000000E-01  8.50000000E-01
  8.50000000E-01  8.50000000E-01  8.00000000E-01  8.50000000E-01  8.50000000E-01
  8.50000000E-01  8.00000000E-01  8.50000000E-01  8.50000000E-01  8.50000000E-01
  8.00000000E-01  8.50000000E-01  8.50000000E-01  8.50000000E-01  8.00000000E-01
  8.50000000E-01  8.50000000E-01  8.50000000E-01  8.00000000E-01  8.50000000E-01
  8.50000000E-01  8.50000000E-01  8.00000000E-01  8.50000000E-01  8.50000000E-01
  8.50000000E-01  8.00000000E-01  8.50000000E-01  8.50000000E-01  8.50000000E-01
  8.00000000E-01  8.50000000E-01  8.50000000E-01  8.50000000E-01  8.00000000E-01
  8.50000000E-01  8.50000000E-01  8.50000000E-01  8.00000000E-01  8.50000000E-01
  8.50000000E-01  8.50000000E-01  8.00000000E-01  8.50000000E-01  8.50000000E-01
  8.50000000E-01  8.00000000E-01  8.50000000E-01  8.50000000E-01  8.50000000E-01
  8.00000000E-01  8.50000000E-01  8.50000000E-01  8.50000000E-01  8.00000000E-01
  8.50000000E-01  8.50000000E-01  8.50000000E-01  8.00000000E-01  8.50000000E-01
  8.50000000E-01  8.50000000E-01  8.00000000E-01  8.50000000E-01  8.50000000E-01
  8.50000000E-01  8.00000000E-01  8.50000000E-01  8.50000000E-01  8.50000000E-01
  8.00000000E-01  8.50000000E-01  8.50000000E-01  8.50000000E-01  8.00000000E-01
  8.50000000E-01  8.50000000E-01  8.50000000E-01  8.00000000E-01  8.50000000E-01
  8.50000000E-01  8.50000000E-01  8.00000000E-01  8.50000000E-01  8.50000000E-01
  8.50000000E-01  8.00000000E-01  8.50000000E-01  8.50000000E-01  8.50000000E-01
  8.00000000E-01  8.50000000E-01  8.50000000E-01  8.50000000E-01  8.00000000E-01
  8.50000000E-01  8.50000000E-01  8.50000000E-01  8.00000000E-01  8.50000000E-01
  8.50000000E-01  8.50000000E-01  8.00000000E-01  8.50000000E-01  8.50000000E-01
  8.50000000E-01  8.00000000E-01  8.50000000E-01  8.50000000E-01  8.50000000E-01
  8.00000000E-01  8.50000000E-01  8.50000000E-01  8.50000000E-01  8.00000000E-01
  8.50000000E-01  8.50000000E-01  8.50000000E-01  8.00000000E-01  8.50000000E-01
  8.50000000E-01  8.50000000E-01  8.00000000E-01  8.50000000E-01  8.50000000E-01
  8.50000000E-01  8.00000000E-01  8.50000000E-01  8.50000000E-01  8.50000000E-01
  8.00000000E-01  8.50000000E-01  8.50000000E-01  8.50000000E-01  8.00000000E-01
  8.50000000E-01  8.50000000E-01  8.50000000E-01  8.00000000E-01  8.50000000E-01
  8.50000000E-01  8.50000000E-01  8.00000000E-01  8.50000000E-01  8.50000000E-01
  8.50000000E-01  8.00000000E-01  8.50000000E-01  8.50000000E-01  8.50000000E-01
  8.00000000E-01  8.50000000E-01  8.50000000E-01  8.50000000E-01  8.00000000E-01
  8.50000000E-01  8.50000000E-01  8.50000000E-01  8.00000000E-01  8.50000000E-01
  8.50000000E-01  8.50000000E-01  8.00000000E-01  8.50000000E-01  8.50000000E-01
  8.50000000E-01  8.00000000E-01  8.50000000E-01  8.50000000E-01  8.50000000E-01
  8.00000000E-01  8.50000000E-01  8.50000000E-01  8.50000000E-01  8.00000000E-01
  8.50000000E-01  8.50000000E-01  8.50000000E-01  8.00000000E-01  8.50000000E-01
  8.50000000E-01  8.50000000E-01  8.00000000E-01  8.50000000E-01  8.50000000E-01
  8.50000000E-01  8.00000000E-01  8.50000000E-01  8.50000000E-01  8.50000000E-01
  8.00000000E-01  8.50000000E-01  8.50000000E-01  8.50000000E-01  8.00000000E-01
  8.50000000E-01  8.50000000E-01  8.50000000E-01  8.00000000E-01  8.50000000E-01
  8.50000000E-01  8.50000000E-01  8.00000000E-01  8.50000000E-01  8.50000000E-01
  8.50000000E-01  8.00000000E-01  8.50000000E-01  8.50000000E-01  8.50000000E-01
  8.00000000E-01  8.50000000E-01  8.50000000E-01  8.50000000E-01  8.00000000E-01
  8.50000000E-01  8.50000000E-01  8.50000000E-01  8.00000000E-01  8.50000000E-01
  8.50000000E-01  8.50000000E-01  8.00000000E-01  8.50000000E-01  8.50000000E-01
  8.50000000E-01  8.00000000E-01  8.50000000E-01  8.50000000E-01  8.50000000E-01
  8.00000000E-01  8.50000000E-01  8.50000000E-01  8.50000000E-01  8.00000000E-01
  8.50000000E-01  8.50000000E-01  8.50000000E-01  8.00000000E-01  8.50000000E-01
  8.50000000E-01  8.50000000E-01  8.00000000E-01  8.50000000E-01  8.50000000E-01
  8.50000000E-01  8.00000000E-01  8.50000000E-01  8.50000000E-01  8.50000000E-01
  8.00000000E-01  8.50000000E-01  8.50000000E-01  8.50000000E-01  8.00000000E-01
  8.50000000E-01  8.50000000E-01  8.50000000E-01  8.00000000E-01  8.50000000E-01
  8.50000000E-01  8.50000000E-01  8.00000000E-01  8.50000000E-01  8.50000000E-01
  8.50000000E-01  8.00000000E-01  8.50000000E-01  8.50000000E-01  8.50000000E-01
  8.00000000E-01  8.50000000E-01  8.50000000E-01  8.50000000E-01  8.00000000E-01
  8.50000000E-01  8.50000000E-01  8.50000000E-01  8.00000000E-01  8.50000000E-01
  8.50000000E-01  8.50000000E-01  8.00000000E-01  8.50000000E-01  8.50000000E-01
  8.50000000E-01  8.00000000E-01  8.50000000E-01  8.50000000E-01  8.50000000E-01
  8.00000000E-01  8.50000000E-01  8.50000000E-01  8.50000000E-01  8.00000000E-01
  8.50000000E-01  8.50000000E-01  8.50000000E-01  8.00000000E-01  8.50000000E-01
  8.50000000E-01  8.50000000E-01  8.00000000E-01  8.50000000E-01  8.50000000E-01
  8.50000000E-01  8.00000000E-01  8.50000000E-01  8.50000000E-01  8.50000000E-01
  8.00000000E-01  8.50000000E-01  8.50000000E-01  8.50000000E-01  8.00000000E-01
  8.50000000E-01  8.50000000E-01  8.50000000E-01  8.00000000E-01  8.50000000E-01
  8.50000000E-01  8.50000000E-01  8.00000000E-01  8.50000000E-01  8.50000000E-01
  8.50000000E-01  8.00000000E-01  8.50000000E-01  8.50000000E-01  8.50000000E-01
  8.00000000E-01  8.50000000E-01  8.50000000E-01  8.50000000E-01  8.00000000E-01
  8.50000000E-01  8.50000000E-01  8.50000000E-01  8.00000000E-01  8.50000000E-01
  8.50000000E-01  8.50000000E-01  8.00000000E-01  8.50000000E-01  8.50000000E-01
  8.50000000E-01  8.00000000E-01  8.50000000E-01  8.50000000E-01  8.50000000E-01
  8.00000000E-01  8.50000000E-01  8.50000000E-01  8.50000000E-01  8.00000000E-01
  8.50000000E-01  8.50000000E-01  8.50000000E-01  8.00000000E-01  8.50000000E-01
  8.50000000E-01  8.50000000E-01  8.00000000E-01  8.50000000E-01  8.50000000E-01
  8.50000000E-01  8.00000000E-01  8.50000000E-01  8.50000000E-01  8.50000000E-01
  8.00000000E-01  8.50000000E-01  8.50000000E-01  8.50000000E-01  8.00000000E-01
  8.50000000E-01  8.50000000E-01  8.50000000E-01  8.00000000E-01  8.50000000E-01
  8.50000000E-01  8.50000000E-01  8.00000000E-01  8.50000000E-01  8.50000000E-01
  8.50000000E-01  8.00000000E-01  8.50000000E-01  8.50000000E-01  8.50000000E-01
  8.00000000E-01  8.50000000E-01  8.50000000E-01  8.50000000E-01  8.00000000E-01
  8.50000000E-01  8.50000000E-01  8.50000000E-01  8.00000000E-01  8.50000000E-01
  8.50000000E-01  8.50000000E-01  8.00000000E-01  8.50000000E-01  8.50000000E-01
  8.50000000E-01  8.00000000E-01  8.50000000E-01  8.50000000E-01  8.50000000E-01
  8.00000000E-01  8.50000000E-01  8.50000000E-01  8.50000000E-01  8.00000000E-01
  8.50000000E-01  8.50000000E-01  8.50000000E-01  8.00000000E-01  8.50000000E-01
  8.50000000E-01  8.50000000E-01  8.00000000E-01  8.50000000E-01  8.50000000E-01
  8.50000000E-01  8.00000000E-01  8.50000000E-01  8.50000000E-01  8.50000000E-01
  8.00000000E-01  8.50000000E-01  8.50000000E-01  8.50000000E-01  8.00000000E-01
  8.50000000E-01  8.50000000E-01  8.50000000E-01  8.00000000E-01  8.50000000E-01
  8.50000000E-01  8.50000000E-01  8.00000000E-01  8.50000000E-01  8.50000000E-01
  8.50000000E-01  8.00000000E-01  8.50000000E-01  8.50000000E-01  8.50000000E-01
  8.00000000E-01  8.50000000E-01  8.50000000E-01  8.50000000E-01  8.00000000E-01
  8.50000000E-01  8.50000000E-01  8.50000000E-01  8.00000000E-01  8.50000000E-01
  8.50000000E-01  8.50000000E-01  8.00000000E-01  8.50000000E-01  8.50000000E-01
  8.50000000E-01  8.00000000E-01  8.50000000E-01  8.50000000E-01  8.50000000E-01
  8.00000000E-01  8.50000000E-01  8.50000000E-01  8.50000000E-01  8.00000000E-01
  8.50000000E-01  8.50000000E-01  8.50000000E-01  8.00000000E-01  8.50000000E-01
  8.50000000E-01  8.50000000E-01  8.00000000E-01  8.50000000E-01  8.50000000E-01
  8.50000000E-01  8.00000000E-01  8.50000000E-01  8.50000000E-01  8.50000000E-01
  8.00000000E-01  8.50000000E-01  8.50000000E-01  8.50000000E-01  8.00000000E-01
  8.50000000E-01  8.50000000E-01  8.50000000E-01  8.00000000E-01  8.50000000E-01
  8.50000000E-01  8.50000000E-01  8.00000000E-01  8.50000000E-01  8.50000000E-01
  8.50000000E-01  8.00000000E-01  8.50000000E-01  8.50000000E-01  8.50000000E-01
  8.00000000E-01  8.50000000E-01  8.50000000E-01  8.50000000E-01  8.00000000E-01
  8.50000000E-01  8.50000000E-01  8.50000000E-01  8.00000000E-01  8.50000000E-01
  8.50000000E-01  8.50000000E-01  8.00000000E-01  8.50000000E-01  8.50000000E-01
  8.50000000E-01  8.00000000E-01  8.50000000E-01  8.50000000E-01  8.50000000E-01
  8.00000000E-01  8.50000000E-01  8.50000000E-01  8.50000000E-01  8.00000000E-01
  8.50000000E-01  8.50000000E-01  8.50000000E-01  8.00000000E-01  8.50000000E-01
  8.50000000E-01  8.50000000E-01  8.00000000E-01  8.50000000E-01  8.50000000E-01
  8.50000000E-01  8.00000000E-01  8.50000000E-01  8.50000000E-01  8.50000000E-01
  8.00000000E-01  8.50000000E-01  8.50000000E-01  8.50000000E-01  8.00000000E-01
  8.50000000E-01  8.50000000E-01  8.50000000E-01  8.00000000E-01  8.50000000E-01
  8.50000000E-01  8.50000000E-01  8.00000000E-01  8.50000000E-01  8.50000000E-01
  8.50000000E-01  8.00000000E-01  8.50000000E-01  8.50000000E-01  8.50000000E-01
  8.00000000E-01  8.50000000E-01  8.50000000E-01  8.50000000E-01  8.00000000E-01
  8.50000000E-01  8.50000000E-01  8.50000000E-01  8.00000000E-01  8.50000000E-01
  8.50000000E-01  8.50000000E-01  8.00000000E-01  8.50000000E-01  8.50000000E-01
  8.50000000E-01  8.00000000E-01  8.50000000E-01  8.50000000E-01  8.50000000E-01
  8.00000000E-01  8.50000000E-01  8.50000000E-01  8.50000000E-01  8.00000000E-01
  8.50000000E-01  8.50000000E-01  8.50000000E-01  8.00000000E-01  8.50000000E-01
  8.50000000E-01  8.50000000E-01  8.00000000E-01  8.50000000E-01  8.50000000E-01
  8.50000000E-01  8.00000000E-01  8.50000000E-01  8.50000000E-01  8.50000000E-01
  8.00000000E-01  8.50000000E-01  8.50000000E-01  8.50000000E-01  8.00000000E-01
  8.50000000E-01  8.50000000E-01  8.50000000E-01  8.00000000E-01  8.50000000E-01
  8.50000000E-01  8.50000000E-01  8.00000000E-01  8.50000000E-01  8.50000000E-01
  8.50000000E-01  8.00000000E-01  8.50000000E-01  8.50000000E-01  8.50000000E-01
  8.00000000E-01  8.50000000E-01  8.50000000E-01  8.50000000E-01  8.00000000E-01
  8.50000000E-01  8.50000000E-01  8.50000000E-01  8.00000000E-01  8.50000000E-01
  8.50000000E-01  8.50000000E-01  8.00000000E-01  8.50000000E-01  8.50000000E-01
  8.50000000E-01  8.00000000E-01  8.50000000E-01  8.50000000E-01  8.50000000E-01
  8.00000000E-01  8.50000000E-01  8.50000000E-01  8.50000000E-01  8.00000000E-01
  8.50000000E-01  8.50000000E-01  8.50000000E-01  8.00000000E-01  8.50000000E-01
  8.50000000E-01  8.50000000E-01  8.00000000E-01  8.50000000E-01  8.50000000E-01
  8.50000000E-01  8.00000000E-01  8.50000000E-01  8.50000000E-01  8.50000000E-01
  8.00000000E-01  8.50000000E-01  8.50000000E-01  8.50000000E-01  8.00000000E-01
  8.50000000E-01  8.50000000E-01  8.50000000E-01  8.00000000E-01  8.50000000E-01
  8.50000000E-01  8.50000000E-01  8.00000000E-01  8.50000000E-01  8.50000000E-01
  8.50000000E-01  8.00000000E-01  8.50000000E-01  8.50000000E-01  8.50000000E-01
  8.00000000E-01  8.50000000E-01  8.50000000E-01  8.50000000E-01  8.00000000E-01
  8.50000000E-01  8.50000000E-01  8.50000000E-01  8.00000000E-01  8.50000000E-01
  8.50000000E-01  8.50000000E-01  8.00000000E-01  8.50000000E-01  8.50000000E-01
  8.50000000E-01  8.00000000E-01  8.50000000E-01  8.50000000E-01  8.50000000E-01
  8.00000000E-01  8.50000000E-01  8.50000000E-01  8.50000000E-01  8.00000000E-01
  8.50000000E-01  8.50000000E-01  8.50000000E-01  8.00000000E-01  8.50000000E-01
  8.50000000E-01  8.50000000E-01  8.00000000E-01  8.50000000E-01  8.50000000E-01
  8.50000000E-01  8.00000000E-01  8.50000000E-01  8.50000000E-01  8.50000000E-01
  8.00000000E-01  8.50000000E-01  8.50000000E-01  8.50000000E-01  8.00000000E-01
  8.50000000E-01  8.50000000E-01  8.50000000E-01  8.00000000E-01  8.50000000E-01
  8.50000000E-01  8.50000000E-01  8.00000000E-01  8.50000000E-01  8.50000000E-01
  8.50000000E-01  8.00000000E-01  8.50000000E-01  8.50000000E-01  8.50000000E-01
  8.00000000E-01  8.50000000E-01  8.50000000E-01  8.50000000E-01  8.00000000E-01
  8.50000000E-01  8.50000000E-01  8.50000000E-01  8.00000000E-01  8.50000000E-01
  8.50000000E-01  8.50000000E-01  8.00000000E-01  8.50000000E-01  8.50000000E-01
  8.50000000E-01  8.00000000E-01  8.50000000E-01  8.50000000E-01  8.50000000E-01
  8.00000000E-01  8.50000000E-01  8.50000000E-01  8.50000000E-01  8.00000000E-01
  8.50000000E-01  8.50000000E-01  8.50000000E-01  8.00000000E-01  8.50000000E-01
  8.50000000E-01  8.50000000E-01  8.00000000E-01  8.50000000E-01  8.50000000E-01
  8.50000000E-01  8.00000000E-01  8.50000000E-01  8.50000000E-01  8.50000000E-01
  8.00000000E-01  8.50000000E-01  8.50000000E-01  8.50000000E-01  8.00000000E-01
  8.50000000E-01  8.50000000E-01  8.50000000E-01  8.00000000E-01  8.50000000E-01
  8.50000000E-01  8.50000000E-01  8.00000000E-01  8.50000000E-01  8.50000000E-01
  8.50000000E-01  8.00000000E-01  8.50000000E-01  8.50000000E-01  8.50000000E-01
  8.00000000E-01  8.50000000E-01  8.50000000E-01  8.50000000E-01  8.00000000E-01
  8.50000000E-01  8.50000000E-01  8.50000000E-01  8.00000000E-01  8.50000000E-01
  8.50000000E-01  8.50000000E-01  8.00000000E-01  8.50000000E-01  8.50000000E-01
  8.50000000E-01  8.00000000E-01  8.50000000E-01  8.50000000E-01  8.50000000E-01
  8.00000000E-01  8.50000000E-01  8.50000000E-01  8.50000000E-01  8.00000000E-01
  8.50000000E-01  8.50000000E-01  8.50000000E-01  8.00000000E-01  8.50000000E-01
  8.50000000E-01  8.50000000E-01  8.00000000E-01  8.50000000E-01  8.50000000E-01
  8.50000000E-01  8.00000000E-01  8.50000000E-01  8.50000000E-01  8.50000000E-01
  8.00000000E-01  8.50000000E-01  8.50000000E-01  8.50000000E-01  8.00000000E-01
  8.50000000E-01  8.50000000E-01  8.50000000E-01  8.00000000E-01  8.50000000E-01
  8.50000000E-01  8.50000000E-01  8.00000000E-01  8.50000000E-01  8.50000000E-01
  8.50000000E-01  8.00000000E-01  8.50000000E-01  8.50000000E-01  8.50000000E-01
  8.00000000E-01  8.50000000E-01  8.50000000E-01  8.50000000E-01  8.00000000E-01
  8.50000000E-01  8.50000000E-01  8.50000000E-01  8.00000000E-01  8.50000000E-01
  8.50000000E-01  8.50000000E-01  8.00000000E-01  8.50000000E-01  8.50000000E-01
  8.50000000E-01  8.00000000E-01  8.50000000E-01  8.50000000E-01  8.50000000E-01
  8.00000000E-01  8.50000000E-01  8.50000000E-01  8.50000000E-01  8.00000000E-01
  8.50000000E-01  8.50000000E-01  8.50000000E-01  8.00000000E-01  8.50000000E-01
  8.50000000E-01  8.50000000E-01  8.00000000E-01  8.50000000E-01  8.50000000E-01
  8.50000000E-01  8.00000000E-01  8.50000000E-01  8.50000000E-01  8.50000000E-01
  8.00000000E-01  8.50000000E-01  8.50000000E-01  8.50000000E-01  8.00000000E-01
  8.50000000E-01  8.50000000E-01  8.50000000E-01  8.00000000E-01  8.50000000E-01
  8.50000000E-01  8.50000000E-01  8.00000000E-01  8.50000000E-01  8.50000000E-01
  8.50000000E-01  8.00000000E-01  8.50000000E-01  8.50000000E-01  8.50000000E-01
  8.00000000E-01  8.50000000E-01  8.50000000E-01  8.50000000E-01  8.00000000E-01
  8.50000000E-01  8.50000000E-01  8.50000000E-01  8.00000000E-01  8.50000000E-01
  8.50000000E-01  8.50000000E-01  8.00000000E-01  8.50000000E-01  8.50000000E-01
  8.50000000E-01  8.00000000E-01  8.50000000E-01  8.50000000E-01  8.50000000E-01
  8.00000000E-01  8.50000000E-01  8.50000000E-01  8.50000000E-01  8.00000000E-01
  8.50000000E-01  8.50000000E-01  8.50000000E-01  8.00000000E-01  8.50000000E-01
  8.50000000E-01  8.50000000E-01  8.00000000E-01  8.50000000E-01  8.50000000E-01
  8.50000000E-01  8.00000000E-01  8.50000000E-01  8.50000000E-01  8.50000000E-01
  8.00000000E-01  8.50000000E-01  8.50000000E-01  8.50000000E-01  8.00000000E-01
  8.50000000E-01  8.50000000E-01  8.50000000E-01  8.00000000E-01  8.50000000E-01
  8.50000000E-01  8.50000000E-01  8.00000000E-01  8.50000000E-01  8.50000000E-01
  8.50000000E-01  8.00000000E-01  8.50000000E-01  8.50000000E-01  8.50000000E-01
  8.00000000E-01  8.50000000E-01  8.50000000E-01  8.50000000E-01  8.00000000E-01
  8.50000000E-01  8.50000000E-01  8.50000000E-01  8.00000000E-01  8.50000000E-01
  8.50000000E-01  8.50000000E-01  8.00000000E-01  8.50000000E-01  8.50000000E-01
  8.50000000E-01  8.00000000E-01  8.50000000E-01  8.50000000E-01  8.50000000E-01
  8.00000000E-01  8.50000000E-01  8.50000000E-01  8.50000000E-01  8.00000000E-01
  8.50000000E-01  8.50000000E-01  8.50000000E-01  8.00000000E-01  8.50000000E-01
  8.50000000E-01  8.50000000E-01  8.00000000E-01  8.50000000E-01  8.50000000E-01
  8.50000000E-01  8.00000000E-01  8.50000000E-01  8.50000000E-01  8.50000000E-01
  8.00000000E-01  8.50000000E-01  8.50000000E-01  8.50000000E-01  8.00000000E-01
  8.50000000E-01  8.50000000E-01  8.50000000E-01  8.00000000E-01  8.50000000E-01
  8.50000000E-01  8.50000000E-01  8.00000000E-01  8.50000000E-01  8.50000000E-01
  8.50000000E-01  8.00000000E-01  8.50000000E-01  8.50000000E-01  8.50000000E-01
  8.00000000E-01  8.50000000E-01  8.50000000E-01  8.50000000E-01  8.00000000E-01
  8.50000000E-01  8.50000000E-01  8.50000000E-01  8.00000000E-01  8.50000000E-01
  8.50000000E-01  8.50000000E-01  8.00000000E-01  8.50000000E-01  8.50000000E-01
  8.50000000E-01  8.00000000E-01  8.50000000E-01  8.50000000E-01  8.50000000E-01
  8.00000000E-01  8.50000000E-01  8.50000000E-01  8.50000000E-01  8.00000000E-01
  8.50000000E-01  8.50000000E-01  8.50000000E-01  8.00000000E-01  8.50000000E-01
  8.50000000E-01  8.50000000E-01  8.00000000E-01  8.50000000E-01  8.50000000E-01
  8.50000000E-01  8.00000000E-01  8.50000000E-01  8.50000000E-01  8.50000000E-01
  8.00000000E-01  8.50000000E-01  8.50000000E-01  8.50000000E-01  8.00000000E-01
  8.50000000E-01  8.50000000E-01  8.50000000E-01  8.00000000E-01  8.50000000E-01
  8.50000000E-01  8.50000000E-01  8.00000000E-01  8.50000000E-01  8.50000000E-01
  8.50000000E-01  8.00000000E-01  8.50000000E-01  8.50000000E-01  8.50000000E-01
  8.00000000E-01  8.50000000E-01  8.50000000E-01  8.50000000E-01  8.00000000E-01
  8.50000000E-01  8.50000000E-01  8.50000000E-01  8.00000000E-01  8.50000000E-01
  8.50000000E-01  8.50000000E-01  8.00000000E-01  8.50000000E-01  8.50000000E-01
  8.50000000E-01  8.00000000E-01  8.50000000E-01  8.50000000E-01  8.50000000E-01
  8.00000000E-01  8.50000000E-01  8.50000000E-01  8.50000000E-01  8.00000000E-01
  8.50000000E-01  8.50000000E-01  8.50000000E-01  8.00000000E-01  8.50000000E-01
  8.50000000E-01  8.50000000E-01  8.00000000E-01  8.50000000E-01  8.50000000E-01
  8.50000000E-01  8.00000000E-01  8.50000000E-01  8.50000000E-01  8.50000000E-01
  8.00000000E-01  8.50000000E-01  8.50000000E-01  8.50000000E-01  8.00000000E-01
  8.50000000E-01  8.50000000E-01  8.50000000E-01  8.00000000E-01  8.50000000E-01
  8.50000000E-01  8.50000000E-01  8.00000000E-01  8.50000000E-01  8.50000000E-01
  8.50000000E-01  8.00000000E-01  8.50000000E-01  8.50000000E-01  8.50000000E-01
  8.00000000E-01  8.50000000E-01  8.50000000E-01  8.50000000E-01  8.00000000E-01
  8.50000000E-01  8.50000000E-01  8.50000000E-01  8.00000000E-01  8.50000000E-01
  8.50000000E-01  8.50000000E-01  8.00000000E-01  8.50000000E-01  8.50000000E-01
  8.50000000E-01  8.00000000E-01  8.50000000E-01  8.50000000E-01  8.50000000E-01
  8.00000000E-01  8.50000000E-01  8.50000000E-01  8.50000000E-01  8.00000000E-01
  8.50000000E-01  8.50000000E-01  8.50000000E-01  8.00000000E-01  8.50000000E-01
  8.50000000E-01  8.50000000E-01  8.00000000E-01  8.50000000E-01  8.50000000E-01
  8.50000000E-01  8.00000000E-01  8.50000000E-01  8.50000000E-01  8.50000000E-01
  8.00000000E-01  8.50000000E-01  8.50000000E-01  8.50000000E-01  8.00000000E-01
  8.50000000E-01  8.50000000E-01  8.50000000E-01  8.00000000E-01  8.50000000E-01
  8.50000000E-01  8.50000000E-01  8.00000000E-01  8.50000000E-01  8.50000000E-01
  8.50000000E-01  8.00000000E-01  8.50000000E-01  8.50000000E-01  8.50000000E-01
  8.00000000E-01  8.50000000E-01  8.50000000E-01  8.50000000E-01  8.00000000E-01
  8.50000000E-01  8.50000000E-01  8.50000000E-01  8.00000000E-01  8.50000000E-01
  8.50000000E-01  8.50000000E-01  8.00000000E-01  8.50000000E-01  8.50000000E-01
  8.50000000E-01  8.00000000E-01  8.50000000E-01  8.50000000E-01  8.50000000E-01
  8.00000000E-01  8.50000000E-01  8.50000000E-01  8.50000000E-01  8.00000000E-01
  8.50000000E-01  8.50000000E-01  8.50000000E-01  8.00000000E-01  8.50000000E-01
  8.50000000E-01  8.50000000E-01  8.00000000E-01  8.50000000E-01  8.50000000E-01
  8.50000000E-01  8.00000000E-01  8.50000000E-01  8.50000000E-01  8.50000000E-01
  8.00000000E-01  8.50000000E-01  8.50000000E-01  8.50000000E-01  8.00000000E-01
  8.50000000E-01  8.50000000E-01  8.50000000E-01  8.00000000E-01  8.50000000E-01
  8.50000000E-01  8.50000000E-01  8.00000000E-01  8.50000000E-01  8.50000000E-01
  8.50000000E-01  8.00000000E-01  8.50000000E-01  8.50000000E-01  8.50000000E-01
  8.00000000E-01  8.50000000E-01  8.50000000E-01  8.50000000E-01  8.00000000E-01
  8.50000000E-01  8.50000000E-01  8.50000000E-01  8.00000000E-01  8.50000000E-01
  8.50000000E-01  8.50000000E-01  8.00000000E-01  8.50000000E-01  8.50000000E-01
  8.50000000E-01  8.00000000E-01  8.50000000E-01  8.50000000E-01  8.50000000E-01
  8.00000000E-01  8.50000000E-01  8.50000000E-01  8.50000000E-01  8.00000000E-01
  8.50000000E-01  8.50000000E-01  8.50000000E-01  8.00000000E-01  8.50000000E-01
  8.50000000E-01  8.50000000E-01  8.00000000E-01  8.50000000E-01  8.50000000E-01
  8.50000000E-01  8.00000000E-01  8.50000000E-01  8.50000000E-01  8.50000000E-01
  8.00000000E-01  8.50000000E-01  8.50000000E-01  8.50000000E-01  8.00000000E-01
  8.50000000E-01  8.50000000E-01  8.50000000E-01  8.00000000E-01  8.50000000E-01
  8.50000000E-01  8.50000000E-01  8.00000000E-01  8.50000000E-01  8.50000000E-01
  8.50000000E-01  8.00000000E-01  8.50000000E-01  8.50000000E-01  8.50000000E-01
  8.00000000E-01  8.50000000E-01  8.50000000E-01  8.50000000E-01  8.00000000E-01
  8.50000000E-01  8.50000000E-01  8.50000000E-01  8.00000000E-01  8.50000000E-01
  8.50000000E-01  8.50000000E-01  8.00000000E-01  8.50000000E-01  8.50000000E-01
  8.50000000E-01  8.00000000E-01  8.50000000E-01  8.50000000E-01  8.50000000E-01
  8.00000000E-01  8.50000000E-01  8.50000000E-01  8.50000000E-01  8.00000000E-01
  8.50000000E-01  8.50000000E-01  8.50000000E-01  8.00000000E-01  8.50000000E-01
  8.50000000E-01  8.50000000E-01  8.00000000E-01  8.50000000E-01  8.50000000E-01
  8.50000000E-01  8.00000000E-01  8.50000000E-01  8.50000000E-01  8.50000000E-01
  8.00000000E-01  8.50000000E-01  8.50000000E-01  8.50000000E-01  8.00000000E-01
  8.50000000E-01  8.50000000E-01  8.50000000E-01  8.00000000E-01  8.50000000E-01
  8.50000000E-01  8.50000000E-01  8.00000000E-01  8.50000000E-01  8.50000000E-01
  8.50000000E-01  8.00000000E-01  8.50000000E-01  8.50000000E-01  8.50000000E-01
  8.00000000E-01  8.50000000E-01  8.50000000E-01  8.50000000E-01  8.00000000E-01
  8.50000000E-01  8.50000000E-01  8.50000000E-01  8.00000000E-01  8.50000000E-01
  8.50000000E-01  8.50000000E-01  8.00000000E-01  8.50000000E-01  8.50000000E-01
  8.50000000E-01  8.00000000E-01  8.50000000E-01  8.50000000E-01  8.50000000E-01
  8.00000000E-01  8.50000000E-01  8.50000000E-01  8.50000000E-01  8.00000000E-01
  8.50000000E-01  8.50000000E-01  8.50000000E-01  8.00000000E-01  8.50000000E-01
  8.50000000E-01  8.50000000E-01  8.00000000E-01  8.50000000E-01  8.50000000E-01
  8.50000000E-01  8.00000000E-01  8.50000000E-01  8.50000000E-01  8.50000000E-01
  8.00000000E-01  8.50000000E-01  8.50000000E-01  8.50000000E-01  8.00000000E-01
  8.50000000E-01  8.50000000E-01  8.50000000E-01  8.00000000E-01  8.50000000E-01
  8.50000000E-01  8.50000000E-01  8.00000000E-01  8.50000000E-01  8.50000000E-01
  8.50000000E-01  8.00000000E-01  8.50000000E-01  8.50000000E-01  8.50000000E-01
  8.00000000E-01  8.50000000E-01  8.50000000E-01  8.50000000E-01  8.00000000E-01
  8.50000000E-01  8.50000000E-01  8.50000000E-01  8.00000000E-01  8.50000000E-01
  8.50000000E-01  8.50000000E-01  8.00000000E-01  8.50000000E-01  8.50000000E-01
  8.50000000E-01  8.00000000E-01  8.50000000E-01  8.50000000E-01  8.50000000E-01
  8.00000000E-01  8.50000000E-01  8.50000000E-01  8.50000000E-01  8.00000000E-01
  8.50000000E-01  8.50000000E-01  8.50000000E-01  8.00000000E-01  8.50000000E-01
  8.50000000E-01  8.50000000E-01  8.00000000E-01  8.50000000E-01  8.50000000E-01
  8.50000000E-01  8.00000000E-01  8.50000000E-01  8.50000000E-01  8.50000000E-01
  8.00000000E-01  8.50000000E-01  8.50000000E-01  8.50000000E-01  8.00000000E-01
  8.50000000E-01  8.50000000E-01  8.50000000E-01  8.00000000E-01  8.50000000E-01
  8.50000000E-01  8.50000000E-01  8.00000000E-01  8.50000000E-01  8.50000000E-01
  8.50000000E-01  8.00000000E-01  8.50000000E-01  8.50000000E-01  8.50000000E-01
  8.00000000E-01  8.50000000E-01  8.50000000E-01  8.50000000E-01  8.00000000E-01
  8.50000000E-01  8.50000000E-01  8.50000000E-01  8.00000000E-01  8.50000000E-01
  8.50000000E-01  8.50000000E-01  8.00000000E-01  8.50000000E-01  8.50000000E-01
  8.50000000E-01  8.00000000E-01  8.50000000E-01  8.50000000E-01  8.50000000E-01
  8.00000000E-01  8.50000000E-01  8.50000000E-01  8.50000000E-01  8.00000000E-01
  8.50000000E-01  8.50000000E-01  8.50000000E-01  8.00000000E-01  8.50000000E-01
  8.50000000E-01  8.50000000E-01  8.00000000E-01  8.50000000E-01  8.50000000E-01
  8.50000000E-01  8.00000000E-01  8.50000000E-01  8.50000000E-01  8.50000000E-01
  8.00000000E-01  8.50000000E-01  8.50000000E-01  8.50000000E-01  8.00000000E-01
  8.50000000E-01  8.50000000E-01  8.50000000E-01  8.00000000E-01  8.50000000E-01
  8.50000000E-01  8.50000000E-01  8.00000000E-01  8.50000000E-01  8.50000000E-01
  8.50000000E-01  8.00000000E-01  8.50000000E-01  8.50000000E-01  8.50000000E-01
  8.00000000E-01  8.50000000E-01  8.50000000E-01  8.50000000E-01  8.00000000E-01
  8.50000000E-01  8.50000000E-01  8.50000000E-01  8.00000000E-01  8.50000000E-01
  8.50000000E-01  8.50000000E-01  8.00000000E-01  8.50000000E-01  8.50000000E-01
  8.50000000E-01  8.00000000E-01  8.50000000E-01  8.50000000E-01  8.50000000E-01
  8.00000000E-01  8.50000000E-01  8.50000000E-01  8.50000000E-01  8.00000000E-01
  8.50000000E-01  8.50000000E-01  8.50000000E-01  8.00000000E-01  8.50000000E-01
  8.50000000E-01  8.50000000E-01  8.00000000E-01  8.50000000E-01  8.50000000E-01
  8.50000000E-01  8.00000000E-01  8.50000000E-01  8.50000000E-01  8.50000000E-01
  8.00000000E-01  8.50000000E-01  8.50000000E-01  8.50000000E-01  8.00000000E-01
  8.50000000E-01  8.50000000E-01  8.50000000E-01  8.00000000E-01  8.50000000E-01
  8.50000000E-01  8.50000000E-01  8.00000000E-01  8.50000000E-01  8.50000000E-01
  8.50000000E-01  8.00000000E-01  8.50000000E-01  8.50000000E-01  8.50000000E-01
  8.00000000E-01  8.50000000E-01  8.50000000E-01  8.50000000E-01  8.00000000E-01
  8.50000000E-01  8.50000000E-01  8.50000000E-01  8.00000000E-01  8.50000000E-01
  8.50000000E-01  8.50000000E-01  8.00000000E-01  8.50000000E-01  8.50000000E-01
  8.50000000E-01  8.00000000E-01  8.50000000E-01  8.50000000E-01  8.50000000E-01
  8.00000000E-01  8.50000000E-01  8.50000000E-01  8.50000000E-01  8.00000000E-01
  8.50000000E-01  8.50000000E-01  8.50000000E-01  8.00000000E-01  8.50000000E-01
  8.50000000E-01  8.50000000E-01  8.00000000E-01  8.50000000E-01  8.50000000E-01
  8.50000000E-01  8.00000000E-01  8.50000000E-01  8.50000000E-01  8.50000000E-01
  8.00000000E-01  8.50000000E-01  8.50000000E-01  8.50000000E-01  8.00000000E-01
  8.50000000E-01  8.50000000E-01  8.50000000E-01  8.00000000E-01  8.50000000E-01
  8.50000000E-01  8.50000000E-01  8.00000000E-01  8.50000000E-01  8.50000000E-01
  8.50000000E-01  8.00000000E-01  8.50000000E-01  8.50000000E-01  8.50000000E-01
  8.00000000E-01  8.50000000E-01  8.50000000E-01  8.50000000E-01  8.00000000E-01
  8.50000000E-01  8.50000000E-01  8.50000000E-01  8.00000000E-01  8.50000000E-01
  8.50000000E-01  8.50000000E-01  8.00000000E-01  8.50000000E-01  8.50000000E-01
  8.50000000E-01  8.00000000E-01  8.50000000E-01  8.50000000E-01  8.50000000E-01
  8.00000000E-01  8.50000000E-01  8.50000000E-01  8.50000000E-01  8.00000000E-01
  8.50000000E-01  8.50000000E-01  8.50000000E-01  8.00000000E-01  8.50000000E-01
  8.50000000E-01  8.50000000E-01  8.00000000E-01  8.50000000E-01  8.50000000E-01
  8.50000000E-01  8.00000000E-01  8.50000000E-01  8.50000000E-01  8.50000000E-01
  8.00000000E-01  8.50000000E-01  8.50000000E-01  8.50000000E-01  8.00000000E-01
  8.50000000E-01  8.50000000E-01  8.50000000E-01  8.00000000E-01  8.50000000E-01
  8.50000000E-01  8.50000000E-01  8.00000000E-01  8.50000000E-01  8.50000000E-01
  8.50000000E-01  8.00000000E-01  8.50000000E-01  8.50000000E-01  8.50000000E-01
  8.00000000E-01  8.50000000E-01  8.50000000E-01  8.50000000E-01  8.00000000E-01
  8.50000000E-01  8.50000000E-01  8.50000000E-01  8.00000000E-01  8.50000000E-01
  8.50000000E-01  8.50000000E-01  8.00000000E-01  8.50000000E-01  8.50000000E-01
  8.50000000E-01  8.00000000E-01  8.50000000E-01  8.50000000E-01  8.50000000E-01
  8.00000000E-01  8.50000000E-01  8.50000000E-01  8.50000000E-01  8.00000000E-01
  8.50000000E-01  8.50000000E-01  8.50000000E-01  8.00000000E-01  8.50000000E-01
  8.50000000E-01  8.50000000E-01  8.00000000E-01  8.50000000E-01  8.50000000E-01
  8.50000000E-01  8.00000000E-01  8.50000000E-01  8.50000000E-01  8.50000000E-01
  8.00000000E-01  8.50000000E-01  8.50000000E-01  8.50000000E-01  8.00000000E-01
  8.50000000E-01  8.50000000E-01  8.50000000E-01  8.00000000E-01  8.50000000E-01
  8.50000000E-01  8.50000000E-01  8.00000000E-01  8.50000000E-01  8.50000000E-01
  8.50000000E-01  8.00000000E-01  8.50000000E-01  8.50000000E-01  8.50000000E-01
  8.00000000E-01  8.50000000E-01  8.50000000E-01  8.50000000E-01  8.00000000E-01
  8.50000000E-01  8.50000000E-01  8.50000000E-01  8.00000000E-01  8.50000000E-01
  8.50000000E-01  8.50000000E-01  8.00000000E-01  8.50000000E-01  8.50000000E-01
  8.50000000E-01  8.00000000E-01  8.50000000E-01  8.50000000E-01  8.50000000E-01
  8.00000000E-01  8.50000000E-01  8.50000000E-01  8.50000000E-01  8.00000000E-01
  8.50000000E-01  8.50000000E-01  8.50000000E-01  8.00000000E-01  8.50000000E-01
  8.50000000E-01  8.50000000E-01  8.00000000E-01  8.50000000E-01  8.50000000E-01
  8.50000000E-01  8.00000000E-01  8.50000000E-01  8.50000000E-01  8.50000000E-01
  8.00000000E-01  8.50000000E-01  8.50000000E-01  8.50000000E-01  8.00000000E-01
  8.50000000E-01  8.50000000E-01  8.50000000E-01  8.00000000E-01  8.50000000E-01
  8.50000000E-01  8.50000000E-01  8.00000000E-01  8.50000000E-01  8.50000000E-01
  8.50000000E-01  8.00000000E-01  8.50000000E-01  8.50000000E-01  8.50000000E-01
  8.00000000E-01  8.50000000E-01  8.50000000E-01  8.50000000E-01  8.00000000E-01
  8.50000000E-01  8.50000000E-01  8.50000000E-01  8.00000000E-01  8.50000000E-01
  8.50000000E-01  8.50000000E-01  8.00000000E-01  8.50000000E-01  8.50000000E-01
  8.50000000E-01  8.00000000E-01  8.50000000E-01  8.50000000E-01  8.50000000E-01
  8.00000000E-01  8.50000000E-01  8.50000000E-01  8.50000000E-01  8.00000000E-01
  8.50000000E-01  8.50000000E-01  8.50000000E-01  8.00000000E-01  8.50000000E-01
  8.50000000E-01  8.50000000E-01  8.00000000E-01  8.50000000E-01  8.50000000E-01
  8.50000000E-01  8.00000000E-01  8.50000000E-01  8.50000000E-01  8.50000000E-01
  8.00000000E-01  8.50000000E-01  8.50000000E-01  8.50000000E-01  8.00000000E-01
  8.50000000E-01  8.50000000E-01  8.50000000E-01  8.00000000E-01  8.50000000E-01
  8.50000000E-01  8.50000000E-01  8.00000000E-01  8.50000000E-01  8.50000000E-01
  8.50000000E-01  8.00000000E-01  8.50000000E-01  8.50000000E-01  8.50000000E-01
  8.00000000E-01  8.50000000E-01  8.50000000E-01  8.50000000E-01  8.00000000E-01
  8.50000000E-01  8.50000000E-01  8.50000000E-01  8.00000000E-01  8.50000000E-01
  8.50000000E-01  8.50000000E-01  8.00000000E-01  8.50000000E-01  8.50000000E-01
  8.50000000E-01  8.00000000E-01  8.50000000E-01  8.50000000E-01  8.50000000E-01
  8.00000000E-01  8.50000000E-01  8.50000000E-01  8.50000000E-01  8.00000000E-01
  8.50000000E-01  8.50000000E-01  8.50000000E-01  8.00000000E-01  8.50000000E-01
  8.50000000E-01  8.50000000E-01  8.00000000E-01  8.50000000E-01  8.50000000E-01
  8.50000000E-01  8.00000000E-01  8.50000000E-01  8.50000000E-01  8.50000000E-01
  8.00000000E-01  8.50000000E-01  8.50000000E-01  8.50000000E-01  8.00000000E-01
  8.50000000E-01  8.50000000E-01  8.50000000E-01  8.00000000E-01  8.50000000E-01
  8.50000000E-01  8.50000000E-01  8.00000000E-01  8.50000000E-01  8.50000000E-01
  8.50000000E-01  8.00000000E-01  8.50000000E-01  8.50000000E-01  8.50000000E-01
  8.00000000E-01  8.50000000E-01  8.50000000E-01  8.50000000E-01  8.00000000E-01
  8.50000000E-01  8.50000000E-01  8.50000000E-01  8.00000000E-01  8.50000000E-01
  8.50000000E-01  8.50000000E-01  8.00000000E-01  8.50000000E-01  8.50000000E-01
  8.50000000E-01  8.00000000E-01  8.50000000E-01  8.50000000E-01  8.50000000E-01
  8.00000000E-01  8.50000000E-01  8.50000000E-01  8.50000000E-01  8.00000000E-01
  8.50000000E-01  8.50000000E-01  8.50000000E-01  8.00000000E-01  8.50000000E-01
  8.50000000E-01  8.50000000E-01  8.00000000E-01  8.50000000E-01  8.50000000E-01
  8.50000000E-01  8.00000000E-01  8.50000000E-01  8.50000000E-01  8.50000000E-01
  8.00000000E-01  8.50000000E-01  8.50000000E-01  8.50000000E-01  8.00000000E-01
  8.50000000E-01  8.50000000E-01  8.50000000E-01  8.00000000E-01  8.50000000E-01
  8.50000000E-01  8.50000000E-01  8.00000000E-01  8.50000000E-01  8.50000000E-01
  8.50000000E-01  8.00000000E-01  8.50000000E-01  8.50000000E-01  8.50000000E-01
  8.00000000E-01  8.50000000E-01  8.50000000E-01  8.50000000E-01  8.00000000E-01
  8.50000000E-01  8.50000000E-01  8.50000000E-01  8.00000000E-01  8.50000000E-01
  8.50000000E-01  8.50000000E-01  8.00000000E-01  8.50000000E-01  8.50000000E-01
  8.50000000E-01  8.00000000E-01  8.50000000E-01  8.50000000E-01  8.50000000E-01
  8.00000000E-01  8.50000000E-01  8.50000000E-01  8.50000000E-01  8.00000000E-01
  8.50000000E-01  8.50000000E-01  8.50000000E-01  8.00000000E-01  8.50000000E-01
  8.50000000E-01  8.50000000E-01  8.00000000E-01  8.50000000E-01  8.50000000E-01
  8.50000000E-01  8.00000000E-01  8.50000000E-01  8.50000000E-01  8.50000000E-01
  8.00000000E-01  8.50000000E-01  8.50000000E-01  8.50000000E-01  8.00000000E-01
  8.50000000E-01  8.50000000E-01  8.50000000E-01  8.00000000E-01  8.50000000E-01
  8.50000000E-01  8.50000000E-01  8.00000000E-01  8.50000000E-01  8.50000000E-01
  8.50000000E-01  8.00000000E-01  8.50000000E-01  8.50000000E-01  8.50000000E-01
  8.00000000E-01  8.50000000E-01  8.50000000E-01  8.50000000E-01  8.00000000E-01
  8.50000000E-01  8.50000000E-01  8.50000000E-01  8.00000000E-01  8.50000000E-01
  8.50000000E-01  8.50000000E-01  8.00000000E-01  8.50000000E-01  8.50000000E-01
  8.50000000E-01  8.00000000E-01  8.50000000E-01  8.50000000E-01  8.50000000E-01
  8.00000000E-01  8.50000000E-01  8.50000000E-01  8.50000000E-01  8.00000000E-01
  8.50000000E-01  8.50000000E-01  8.50000000E-01  8.00000000E-01  8.50000000E-01
  8.50000000E-01  8.50000000E-01  8.00000000E-01  8.50000000E-01  8.50000000E-01
  8.50000000E-01  8.00000000E-01  8.50000000E-01  8.50000000E-01  8.50000000E-01
  8.00000000E-01  8.50000000E-01  8.50000000E-01  8.50000000E-01  8.00000000E-01
  8.50000000E-01  8.50000000E-01  8.50000000E-01  8.00000000E-01  8.50000000E-01
  8.50000000E-01  8.50000000E-01  8.00000000E-01  8.50000000E-01  8.50000000E-01
  8.50000000E-01  8.00000000E-01  8.50000000E-01  8.50000000E-01  8.50000000E-01
  8.00000000E-01  8.50000000E-01  8.50000000E-01  8.50000000E-01  8.00000000E-01
  8.50000000E-01  8.50000000E-01  8.50000000E-01  8.00000000E-01  8.50000000E-01
  8.50000000E-01  8.50000000E-01  8.00000000E-01  8.50000000E-01  8.50000000E-01
  8.50000000E-01  8.00000000E-01  8.50000000E-01  8.50000000E-01  8.50000000E-01
  8.00000000E-01  8.50000000E-01  8.50000000E-01  8.50000000E-01  8.00000000E-01
  8.50000000E-01  8.50000000E-01  8.50000000E-01  8.00000000E-01  8.50000000E-01
  8.50000000E-01  8.50000000E-01  8.00000000E-01  8.50000000E-01  8.50000000E-01
  8.50000000E-01  8.00000000E-01  8.50000000E-01  8.50000000E-01  8.50000000E-01
  8.00000000E-01  8.50000000E-01  8.50000000E-01  8.50000000E-01  8.00000000E-01
  8.50000000E-01  8.50000000E-01  8.50000000E-01  8.00000000E-01  8.50000000E-01
  8.50000000E-01  8.50000000E-01  8.00000000E-01  8.50000000E-01  8.50000000E-01
  8.50000000E-01  8.00000000E-01  8.50000000E-01  8.50000000E-01  8.50000000E-01
  8.00000000E-01  8.50000000E-01  8.50000000E-01  8.50000000E-01  8.00000000E-01
  8.50000000E-01  8.50000000E-01  8.50000000E-01  8.00000000E-01  8.50000000E-01
  8.50000000E-01  8.50000000E-01  8.00000000E-01  8.50000000E-01  8.50000000E-01
  8.50000000E-01  8.00000000E-01  8.50000000E-01  8.50000000E-01  8.50000000E-01
  8.00000000E-01  8.50000000E-01  8.50000000E-01  8.50000000E-01  8.00000000E-01
  8.50000000E-01  8.50000000E-01  8.50000000E-01  8.00000000E-01  8.50000000E-01
  8.50000000E-01  8.50000000E-01  8.00000000E-01  8.50000000E-01  8.50000000E-01
  8.50000000E-01  8.00000000E-01  8.50000000E-01  8.50000000E-01  8.50000000E-01
  8.00000000E-01  8.50000000E-01  8.50000000E-01  8.50000000E-01  8.00000000E-01
  8.50000000E-01  8.50000000E-01  8.50000000E-01  8.00000000E-01  8.50000000E-01
  8.50000000E-01  8.50000000E-01  8.00000000E-01  8.50000000E-01  8.50000000E-01
  8.50000000E-01  8.00000000E-01  8.50000000E-01  8.50000000E-01  8.50000000E-01
  8.00000000E-01  8.50000000E-01  8.50000000E-01  8.50000000E-01  8.00000000E-01
  8.50000000E-01  8.50000000E-01  8.50000000E-01  8.00000000E-01  8.50000000E-01
  8.50000000E-01  8.50000000E-01  8.00000000E-01  8.50000000E-01  8.50000000E-01
  8.50000000E-01  8.00000000E-01  8.50000000E-01  8.50000000E-01  8.50000000E-01
  8.00000000E-01  8.50000000E-01  8.50000000E-01  8.50000000E-01  8.00000000E-01
  8.50000000E-01  8.50000000E-01  8.50000000E-01  8.00000000E-01  8.50000000E-01
  8.50000000E-01  8.50000000E-01  8.00000000E-01  8.50000000E-01  8.50000000E-01
  8.50000000E-01  8.00000000E-01  8.50000000E-01  8.50000000E-01  8.50000000E-01
  8.00000000E-01  8.50000000E-01  8.50000000E-01  8.50000000E-01  8.00000000E-01
  8.50000000E-01  8.50000000E-01  8.50000000E-01  8.00000000E-01  8.50000000E-01
  8.50000000E-01  8.50000000E-01  8.00000000E-01  8.50000000E-01  8.50000000E-01
  8.50000000E-01  8.00000000E-01  8.50000000E-01  8.50000000E-01  8.50000000E-01
  8.00000000E-01  8.50000000E-01  8.50000000E-01  8.50000000E-01  8.00000000E-01
  8.50000000E-01  8.50000000E-01  8.50000000E-01  8.00000000E-01  8.50000000E-01
  8.50000000E-01  8.50000000E-01  8.00000000E-01  8.50000000E-01  8.50000000E-01
  8.50000000E-01  8.00000000E-01  8.50000000E-01  8.50000000E-01  8.50000000E-01
  8.00000000E-01  8.50000000E-01  8.50000000E-01  8.50000000E-01  8.00000000E-01
  8.50000000E-01  8.50000000E-01  8.50000000E-01  8.00000000E-01  8.50000000E-01
  8.50000000E-01  8.50000000E-01  8.00000000E-01  8.50000000E-01  8.50000000E-01
  8.50000000E-01  8.00000000E-01  8.50000000E-01  8.50000000E-01  8.50000000E-01
  8.00000000E-01  8.50000000E-01  8.50000000E-01  8.50000000E-01  8.00000000E-01
  8.50000000E-01  8.50000000E-01  8.50000000E-01  8.00000000E-01  8.50000000E-01
  8.50000000E-01  8.50000000E-01  8.00000000E-01  8.50000000E-01  8.50000000E-01
  8.50000000E-01  8.00000000E-01  8.50000000E-01  8.50000000E-01  8.50000000E-01
  8.00000000E-01  8.50000000E-01  8.50000000E-01  8.50000000E-01  8.00000000E-01
  8.50000000E-01  8.50000000E-01  8.50000000E-01  8.00000000E-01  8.50000000E-01
  8.50000000E-01  8.50000000E-01  8.00000000E-01  8.50000000E-01  8.50000000E-01
  8.50000000E-01  8.00000000E-01  8.50000000E-01  8.50000000E-01  8.50000000E-01
  8.00000000E-01  8.50000000E-01  8.50000000E-01  8.50000000E-01  8.00000000E-01
  8.50000000E-01  8.50000000E-01  8.50000000E-01  8.00000000E-01  8.50000000E-01
  8.50000000E-01  8.50000000E-01  8.00000000E-01  8.50000000E-01  8.50000000E-01
  8.50000000E-01  8.00000000E-01  8.50000000E-01  8.50000000E-01  8.50000000E-01
  8.00000000E-01  8.50000000E-01  8.50000000E-01  8.50000000E-01  8.00000000E-01
  8.50000000E-01  8.50000000E-01  8.50000000E-01  8.00000000E-01  8.50000000E-01
  8.50000000E-01  8.50000000E-01  8.00000000E-01  8.50000000E-01  8.50000000E-01
  8.50000000E-01  8.00000000E-01  8.50000000E-01  8.50000000E-01  8.50000000E-01
  8.00000000E-01  8.50000000E-01  8.50000000E-01  8.50000000E-01  8.00000000E-01
  8.50000000E-01  8.50000000E-01  8.50000000E-01  8.00000000E-01  8.50000000E-01
  8.50000000E-01  8.50000000E-01  8.00000000E-01  8.50000000E-01  8.50000000E-01
  8.50000000E-01  8.00000000E-01  8.50000000E-01  8.50000000E-01  8.50000000E-01
  8.00000000E-01  8.50000000E-01  8.50000000E-01  8.50000000E-01  8.00000000E-01
  8.50000000E-01  8.50000000E-01  8.50000000E-01  8.00000000E-01  8.50000000E-01
  8.50000000E-01  8.50000000E-01  8.00000000E-01  8.50000000E-01  8.50000000E-01
  8.50000000E-01  8.00000000E-01  8.50000000E-01  8.50000000E-01  8.50000000E-01
  8.00000000E-01  8.50000000E-01  8.50000000E-01  8.50000000E-01  8.00000000E-01
  8.50000000E-01  8.50000000E-01  8.50000000E-01  8.00000000E-01  8.50000000E-01
  8.50000000E-01  8.50000000E-01  8.00000000E-01  8.50000000E-01  8.50000000E-01
  8.50000000E-01  8.00000000E-01  8.50000000E-01  8.50000000E-01  8.50000000E-01
  8.00000000E-01  8.50000000E-01  8.50000000E-01  8.50000000E-01  8.00000000E-01
  8.50000000E-01  8.50000000E-01  8.50000000E-01  8.00000000E-01  8.50000000E-01
  8.50000000E-01  8.50000000E-01  8.00000000E-01  8.50000000E-01  8.50000000E-01
  8.50000000E-01  8.00000000E-01  8.50000000E-01  8.50000000E-01  8.50000000E-01
  8.00000000E-01  8.50000000E-01  8.50000000E-01  8.50000000E-01  8.00000000E-01
  8.50000000E-01  8.50000000E-01  8.50000000E-01  8.00000000E-01  8.50000000E-01
  8.50000000E-01  8.50000000E-01  8.00000000E-01  8.50000000E-01  8.50000000E-01
  8.50000000E-01  8.00000000E-01  8.50000000E-01  8.50000000E-01  8.50000000E-01
  8.00000000E-01  8.50000000E-01  8.50000000E-01  8.50000000E-01  8.00000000E-01
  8.50000000E-01  8.50000000E-01  8.50000000E-01  8.00000000E-01  8.50000000E-01
  8.50000000E-01  8.50000000E-01  8.00000000E-01  8.50000000E-01  8.50000000E-01
  8.50000000E-01  8.00000000E-01  8.50000000E-01  8.50000000E-01  8.50000000E-01
  8.00000000E-01  8.50000000E-01  8.50000000E-01  8.50000000E-01  8.00000000E-01
  8.50000000E-01  8.50000000E-01  8.50000000E-01  8.00000000E-01  8.50000000E-01
  8.50000000E-01  8.50000000E-01  8.00000000E-01  8.50000000E-01  8.50000000E-01
  8.50000000E-01  8.00000000E-01  8.50000000E-01  8.50000000E-01  8.50000000E-01
  8.00000000E-01  8.50000000E-01  8.50000000E-01  8.50000000E-01  8.00000000E-01
  8.50000000E-01  8.50000000E-01  8.50000000E-01  8.00000000E-01  8.50000000E-01
  8.50000000E-01  8.50000000E-01  8.00000000E-01  8.50000000E-01  8.50000000E-01
  8.50000000E-01  8.00000000E-01  8.50000000E-01  8.50000000E-01  8.50000000E-01
  8.00000000E-01  8.50000000E-01  8.50000000E-01  8.50000000E-01  8.00000000E-01
  8.50000000E-01  8.50000000E-01  8.50000000E-01  8.00000000E-01  8.50000000E-01
  8.50000000E-01  8.50000000E-01  8.00000000E-01  8.50000000E-01  8.50000000E-01
  8.50000000E-01  8.00000000E-01  8.50000000E-01  8.50000000E-01  8.50000000E-01
  8.00000000E-01  8.50000000E-01  8.50000000E-01  8.50000000E-01  8.00000000E-01
  8.50000000E-01  8.50000000E-01  8.50000000E-01  8.00000000E-01  8.50000000E-01
  8.50000000E-01  8.50000000E-01  8.00000000E-01  8.50000000E-01  8.50000000E-01
  8.50000000E-01  8.00000000E-01  8.50000000E-01  8.50000000E-01  8.50000000E-01
  8.00000000E-01  8.50000000E-01  8.50000000E-01  8.50000000E-01  8.00000000E-01
  8.50000000E-01  8.50000000E-01  8.50000000E-01  8.00000000E-01  8.50000000E-01
  8.50000000E-01  8.50000000E-01  8.00000000E-01  8.50000000E-01  8.50000000E-01
  8.50000000E-01  8.00000000E-01  8.50000000E-01  8.50000000E-01  8.50000000E-01
  8.00000000E-01  8.50000000E-01  8.50000000E-01  8.50000000E-01  8.00000000E-01
  8.50000000E-01  8.50000000E-01  8.50000000E-01  8.00000000E-01  8.50000000E-01
  8.50000000E-01  8.50000000E-01  8.00000000E-01  8.50000000E-01  8.50000000E-01
  8.50000000E-01  8.00000000E-01  8.50000000E-01  8.50000000E-01  8.50000000E-01
  8.00000000E-01  8.50000000E-01  8.50000000E-01  8.50000000E-01  8.00000000E-01
  8.50000000E-01  8.50000000E-01  8.50000000E-01  8.00000000E-01  8.50000000E-01
  8.50000000E-01  8.50000000E-01  8.00000000E-01  8.50000000E-01  8.50000000E-01
  8.50000000E-01  8.00000000E-01  8.50000000E-01  8.50000000E-01  8.50000000E-01
  8.00000000E-01  8.50000000E-01  8.50000000E-01  8.50000000E-01  8.00000000E-01
  8.50000000E-01  8.50000000E-01  8.50000000E-01  8.00000000E-01  8.50000000E-01
  8.50000000E-01  8.50000000E-01  8.00000000E-01  8.50000000E-01  8.50000000E-01
  8.50000000E-01  8.00000000E-01  8.50000000E-01  8.50000000E-01  8.50000000E-01
  8.00000000E-01  8.50000000E-01  8.50000000E-01  8.50000000E-01  8.00000000E-01
  8.50000000E-01  8.50000000E-01  8.50000000E-01  8.00000000E-01  8.50000000E-01
  8.50000000E-01  8.50000000E-01  8.00000000E-01  8.50000000E-01  8.50000000E-01
  8.50000000E-01  8.00000000E-01  8.50000000E-01  8.50000000E-01  8.50000000E-01
  8.00000000E-01  8.50000000E-01  8.50000000E-01  8.50000000E-01  8.00000000E-01
  8.50000000E-01  8.50000000E-01  8.50000000E-01  8.00000000E-01  8.50000000E-01
  8.50000000E-01  8.50000000E-01  8.00000000E-01  8.50000000E-01  8.50000000E-01
  8.50000000E-01  8.00000000E-01  8.50000000E-01  8.50000000E-01  8.50000000E-01
  8.00000000E-01  8.50000000E-01  8.50000000E-01  8.50000000E-01  8.00000000E-01
  8.50000000E-01  8.50000000E-01  8.50000000E-01  8.00000000E-01  8.50000000E-01
  8.50000000E-01  8.50000000E-01  8.00000000E-01  8.50000000E-01  8.50000000E-01
  8.50000000E-01  8.00000000E-01  8.50000000E-01  8.50000000E-01  8.50000000E-01
  8.00000000E-01
%FLAG IPOL                                                                      
%FORMAT(1I8)                                                                    
       0
%FLAG CMAP_COUNT                                                                
%FORMAT(2I8)                                                                    
      29      11                                                                
%FLAG CMAP_RESOLUTION                                                           
%FORMAT(20I4)                                                                   
  24  24  24  24  24  24  24  24  24  24  24
%FLAG CMAP_PARAMETER_01                                                         
%COMMENT  Gly CMAP                                                              
%FORMAT(8F9.5)                                                                  
  0.82366  1.09817  1.13106  1.38658  2.11377  3.63194  5.20835  4.52792
  4.24857  3.42100  2.57125  2.21561  4.26659  2.21561  2.57125  3.42110
  4.24858  4.52792  4.29107  3.63184  2.03731  1.32036  1.12797  1.09814
  1.01976  0.89767  0.89484  1.21525  1.97095  3.70570  4.38855  4.65256
  4.43948  3.89754  4.21954  2.92219  1.83300  1.61528  2.13407  3.13273
  4.03304  4.37836  4.21500  3.54162  2.14871  1.44646  1.20387  1.08264
  0.94294  0.79652  0.83328  1.24136  2.06053  3.43883  4.17385  4.53101
  4.43115  4.03641  3.71837  2.02965  1.28863  1.21833  1.89263  2.85593
  4.80291  4.23497  4.08718  3.49858  2.17811  1.53114  1.22608  1.06909
  1.06124  0.90425  0.95129  1.35925  1.80900  3.18916  3.85055  4.27470
  4.17515  3.68355  2.71193  1.96823  0.88051  1.02084  1.59189  2.52883
  3.47767  4.03244  3.86779  3.39508  2.23969  1.66969  1.33019  1.16679
  1.08157  1.02005  1.10493  1.29605  1.79270  2.88632  3.63402  4.05349
  3.97657  3.35415  2.24207  1.18576  0.74267  0.67495  1.31122  2.24278
  3.21905  3.69186  4.76949  4.00571  2.34764  1.77622  1.34849  1.12849
  1.09360  0.76295  0.64220  1.00733  1.73708  2.50787  3.41571  4.45847
  3.84910  3.11193  1.97839  1.18177  0.33803  0.43176  1.23577  2.17947
  2.92428  3.38497  3.39138  3.10177  3.35228  2.15282  1.45287  1.28536
  0.61764  0.23640  0.15650  0.65857  1.56522  2.44967  3.17669  3.78043
  4.22216  2.79953  1.66579  0.59084  0.15579  0.43594  1.52040  2.27449
  2.76979  3.16911  3.12455  2.92674  2.45824  1.88927  1.36443  0.95121
 -0.00243 -0.14438  0.06931  0.84132  1.89921  2.91978  3.46170  3.60722
  3.77366  2.18724  1.52870  0.20777  0.22187  1.10049  2.08960  2.88893
  3.46272  3.66327  3.40280  3.02172  2.23074  1.32476  0.62376  0.25154
 -0.24862  0.05886  0.73935  1.98217  3.25167  4.06285  4.21447  3.90130
  2.90300  1.70374  0.74057  0.52755  1.12943  2.10802  2.78056  3.65981
  4.30377  4.58476  4.35318  3.65296  2.33204  0.81283  0.00000 -0.29835
  0.44379  1.32981  2.39709  3.82578  5.02459  5.42450  4.99639  4.00610
  2.64886  1.63847  1.37610  1.71448  2.28503  2.64949  3.24747  4.17266
  5.17265  5.75041  5.58476  4.21912  2.20540  0.64843  0.02065 -0.08593
  2.15530  3.40478  4.51993  5.80241  6.12627  6.00746  5.12631  4.58197
  2.80154  2.55737  2.87599  2.95502  2.71629  2.60279  3.64721  4.53964
  5.90407  6.82108  6.15044  4.18011  2.15201  0.96807  0.81255  1.19704
  4.21011  5.19583  5.45356  5.26216  5.22957  4.91772  4.44698  3.93537
  3.74038  4.11322  3.92595  2.94210  2.11295  2.42266  3.12536  4.83315
  6.43292  6.19670  5.13463  3.65052  2.40663  2.07125  2.29840  3.03351
  5.33877  4.55338  3.87255  3.87071  3.62149  3.87069  4.31250  4.77933
  5.37137  5.20874  3.65026  2.18763  2.20027  2.18700  3.65026  5.21405
  5.24065  4.77943  4.31250  3.87553  3.63325  5.19982  3.88530  4.53465
  4.20747  3.02450  2.29840  2.07135  2.40664  3.65062  5.13204  6.19680
  6.43292  4.83351  3.12587  2.96667  2.11029  2.93241  3.92594  4.11322
  3.74082  3.93551  4.44698  4.92068  5.53058  5.24416  5.35209  5.19605
  2.15668  1.19704  0.81255  0.96806  2.15211  4.17062  6.15034  6.82108
  5.90407  4.54177  3.63728  2.60267  2.71853  2.95502  2.87589  2.55737
  2.80717  3.89294  5.12631  6.00746  6.12372  5.80230  5.01898  3.40679
  0.45450 -0.08700  0.02065  0.64843  2.20540  4.21912  5.58476  5.75041
  5.17265  4.16788  3.24747  2.64460  2.28503  1.72593  1.37610  1.63847
  2.64538  4.01006  5.00425  5.42091  5.02459  3.80593  2.39681  1.32981
 -0.24862 -0.29835  0.00000  0.81283  2.33214  3.64847  4.35318  4.59008
  4.30377  3.65991  2.78056  2.10802  1.84494  0.52754  0.74067  1.61716
  2.90300  3.89516  4.21447  4.06285  3.25166  1.98217  0.73946  0.07427
 -0.00243  0.25154  0.64043  1.82987  2.23143  3.02038  3.40280  3.66327
  3.46272  2.88893  2.08960  1.10049  0.22171  0.20862  1.52897  2.18595
  3.24376  3.60722  3.46170  2.91968  1.89590  0.84888  0.07066 -0.14460
  0.61764  0.94007  1.36444  1.88927  2.45691  2.92674  3.12469  3.16911
  2.76979  2.27377  1.52040  0.44049  0.15579  0.59084  1.66579  2.79477
  4.25589  3.78043  3.17669  2.45043  1.56512  0.65855  0.15650  0.23719
  1.09360  1.28549  1.45287  2.15281  2.67683  3.10177  3.39138  3.38497
  2.91731  2.17947  1.23582  0.43170  0.33793  1.00844  1.97383  3.11193
  3.84910  4.46392  3.41571  2.50787  1.73708  1.00733  0.64220  0.76295
  0.97094  1.11640  1.33640  1.77623  2.30465  3.21763  3.71128  3.69186
  3.21905  2.24277  1.31122  0.67238  0.74272  1.18578  2.24207  3.35415
  3.97657  4.05349  3.63266  2.88632  1.79270  1.23680  1.00391  1.05657
  0.98044  1.16708  1.33038  1.66969  2.23969  3.39508  3.86779  4.03243
  3.47590  2.52883  1.59193  1.02084  0.88051  1.46518  2.71203  3.68355
  4.17470  4.27471  3.85203  3.18916  1.80900  1.35925  0.95109  0.90998
  0.92229  1.06909  1.22608  1.53114  2.17810  3.49858  4.08708  4.23358
  3.81032  2.85593  1.89254  1.21833  1.28863  2.03059  3.37664  4.03661
  4.43079  4.53101  4.17385  3.43883  2.06053  1.24136  0.83440  0.79652
  1.01976  1.08264  1.20394  1.44647  2.14870  3.54162  4.22527  4.37836
  4.03304  3.13273  2.13407  1.61528  1.83300  2.92219  4.10899  3.89754
  4.43948  4.65256  4.38856  3.70570  1.97095  1.21515  0.89442  0.89767
%FLAG CMAP_PARAMETER_02                                                         
%COMMENT  Ala CMAP                                                              
%FORMAT(8F9.5)                                                                  
 -0.40490 -0.91563 -0.66011 -0.12395  0.67400  1.66712  2.29819  2.59327
  2.26341  1.68604  1.08454  0.71831 -0.48870 -1.12865 -0.92439 -0.34344
  0.32979  0.59769  0.44008 -0.02411 -0.36985 -0.85317 -0.95648 -1.10907
 -0.57095 -0.51404 -0.20974  0.13143  0.76924  1.59233  2.29037  2.67125
  3.36182  2.18892  2.73567  0.45223 -0.65830 -0.99890 -0.71628  0.42576
  0.53333  0.77654  0.66928  0.32986  0.00178 -0.28339 -0.35321 -0.52818
 -0.04441  1.18495  0.28672  0.49834  1.04770  1.74318  2.42981  2.78424
  2.83854  2.61585  1.87191  0.41363 -0.42895 -0.65692  0.55228  0.27728
  0.92789  1.20682  1.03564  0.82326  0.50898  0.23806  0.20869  0.03162
  0.75270  0.92426  0.87815  1.07435  1.34904  1.95311  2.55584  3.01644
  2.98774  2.58246  1.60744  0.42752 -0.30354 -0.31446 -0.03375  0.52111
  1.16914  1.46572  1.98214  1.17058  0.95531  0.70808  0.78722  1.35766
  1.34685  2.28011  1.28633  1.21465  1.51939  2.05226  2.68560  3.11202
  2.91890  2.50948  1.45835  0.41028 -0.10582 -0.34705 -0.04464  0.55547
  1.11301  1.35870  1.48001  1.35541  1.12115  0.95721  1.12820  1.22585
  2.04850  1.37875  1.14784  1.59064  1.72039  1.78908  3.30313  3.04054
  2.98842  2.41992  1.44654  0.52504 -0.06270 -0.27801  0.87234  0.67598
  0.94307  1.15416  1.20141  1.24110  1.26105  1.20805  1.33113  1.49416
  1.04113  0.90852  0.69483  0.85361  1.26559  1.89687  2.63196  4.14974
  2.85712  2.19037  1.16979  0.05713 -0.34982 -0.13111  1.14408  0.72916
  0.83976  0.87834  2.10017  1.17948  1.17775  1.17175  1.28140  1.31313
  0.56020  0.54579  0.70265  1.11648  1.74498  2.34101  3.30438  2.91742
  2.51820  1.80071  0.63368 -0.12153  0.06806  0.72937  1.10420  1.35758
  1.49864  1.53737  1.46180  1.46294  1.03983  0.71730  0.57013  0.61315
  0.24962  0.58339  1.16380  1.97603  2.89121  3.52557  3.68570  3.11960
  2.13455  1.15056  0.41716  0.25190  0.90813  1.46041  1.72423  2.08326
  2.41176  2.51527  2.40584  2.10326  1.06657  0.24926  0.00000  0.09150
  0.69001  1.45869  2.56017  3.51462  4.36327  4.88489  4.44136  3.31773
  1.94048  1.18640  1.14388  1.38827  1.99448  1.97586  2.10793  2.62567
  3.22808  3.67878  3.65514  2.76833  1.09340 -0.02756 -0.20820  0.11394
  2.04863  3.24028  4.45604  5.33890  5.83417  5.62064  4.51400  3.15546
  2.11289  2.12474  2.51205  2.64497  2.21088  1.89502  2.06746  3.01892
  4.17428  5.04288  4.34485  2.58422  0.91721  0.02839  0.38724  1.08963
  3.86396  5.17448  4.99907  4.71176  4.69475  4.40584  3.94871  3.17716
  3.06333  3.67246  4.29338  2.44448  1.35877  2.75298  2.01318  3.50593
  5.09938  4.27559  3.31646  1.97909  0.94467  0.88095  1.62501  2.60184
  5.48793  4.77064  3.78644  3.36104  3.22046  3.45658  3.76845  4.19099
  4.55308  4.85880  2.97166  1.40450  1.55754  1.01694  2.55251  4.15890
  3.59316  2.89015  2.39954  2.03475  2.02513  2.33480  3.18431  4.21056
  4.70559  3.27912  2.28983  1.85924  2.16582  3.20992  4.49444  5.42412
  5.98035  4.20595  2.46249  1.80286  1.41486  2.22339  3.40125  3.01974
  2.06463  1.98502  2.41985  3.03336  3.42492  3.76647  4.58344  5.51267
  2.34028  1.47026  0.70060  0.67110  1.72673  3.69931  5.49162  6.13923
  5.15665  3.78295  2.61455  3.27648  2.23785  2.65327  2.09930  0.98357
  0.83115  1.73620  2.87719  3.88918  4.40086  4.76522  4.34641  3.40891
  0.89883  0.26728  0.50152  0.12164  1.64744  3.66760  4.84258  4.73428
  4.15359  3.27829  2.48102  2.07496  1.77587  1.23018  0.22862 -0.17811
  0.36837  1.62610  2.66752  3.41452  3.43224  3.08090  2.54957  1.61094
  0.32705 -0.14752 -0.38279 -0.00752  1.31062  2.89019  3.39946  3.48428
  3.29026  2.66680  1.96417  1.33230  0.70261 -0.31922 -0.88675 -0.59803
  0.32944  1.32712  1.88494  2.20282  2.13265  1.82079  1.35338  0.71220
 -0.03270 -0.18304 -0.26783  0.12774  0.88323  1.96743  2.18027  2.30248
  2.25909  1.78219  1.00274  0.24927 -0.80554 -1.41955 -1.17733 -0.22422
  1.19834  1.07092  1.05260  0.95885  0.87757  0.60790  0.30853  0.05046
  0.08873  0.15910  0.22294  0.37757  0.76603  1.36872  1.54866  1.47050
  1.32077  0.90501  0.18754 -0.81180 -1.70050 -1.70896 -0.87307 -0.00331
  0.74981  0.73853  0.55032  0.27050 -0.03313 -0.23059 -0.27425 -0.15004
  1.38786  0.31030  0.31376  0.30435  0.69516  1.26684  1.67665  1.73040
  1.48205  0.83164  0.78021 -1.27092 -1.69247 -1.59919 -0.87185  0.23049
  0.75546  0.68419  0.50548  0.18474 -0.18354 -0.22863 -0.03965  0.15614
  1.13038  0.28339  0.13603  0.26411  0.64582  1.31757  2.01140  2.13005
  1.85723  0.94711 -0.10199 -0.99228 -1.35141 -1.23057 -0.39240  0.63569
  1.03002  0.93699  1.12925  0.94167  0.14233  0.14305  0.34318  0.43742
 -0.18145 -0.18129 -0.36426 -0.02774  0.57160  1.29873  2.16831  2.37053
  1.81288  0.84225 -0.13994 -0.87562 -1.03375 -0.75156  0.33665  1.25211
  1.11963  1.00266  0.72525  0.87651  0.22308  0.12905  0.05647 -0.10214
 -1.05110 -0.75879 -0.79562 -0.36879  0.45648  1.36193  2.25739  2.41888
  1.79507  0.83030 -0.09049 -0.76021 -0.87672 -0.19067  0.64936  0.61856
  0.80179  0.82609  0.68948  0.43884 -0.07529 -0.55654 -0.80787 -1.00697
 -1.21902 -1.03039 -0.88255 -0.32105  0.49201  1.53828  2.43182  2.53201
  1.97701  1.22953  0.40353 -0.11048 -0.00493 -0.40512 -0.63562 -0.14764
  0.47545  0.72229  0.59153  0.14907 -0.47001 -0.96318 -1.22829 -1.35376
%FLAG CMAP_PARAMETER_03                                                         
%COMMENT  Ser CMAP                                                              
%FORMAT(8F9.5)                                                                  
 -0.32244  0.12696  0.66374  0.96629  1.47743  2.13577  3.30837  3.38913
  3.78327  3.61677  3.03743  2.62209  0.59637 -0.08942  0.13693  0.81913
  1.40407  1.89566  2.02859  1.78767  1.26319  0.74679  0.25597 -0.18382
 -0.13614  0.30891  0.74169  0.92985  1.33443  1.88617  2.67249  3.43995
  3.76143  3.78887  3.80499  1.52221 -0.05733 -0.34066  0.60327  0.64650
  1.44598  1.97141  2.08911  1.92346  1.50730  0.89758  0.36609  0.05737
 -0.01724  0.39903  0.82667  0.84205  1.07816  2.13764  2.43674  3.94943
  3.73714  3.79141  2.80752  0.95346 -0.16367 -0.42480 -0.06777  0.60307
  1.41557  1.99278  2.96779  1.96920  1.47962  1.03439  0.59457  0.12911
  0.46570  0.86726  0.98316  0.80986  0.98666  1.59955  2.41079  3.20727
  3.64935  3.63148  2.47335  0.85355 -0.14015 -0.32933 -0.08702  0.58877
  2.07629  1.98251  2.22178  2.02966  1.70097  1.20508  1.47349  0.47846
  1.31080  1.11924  1.06802  0.79445  1.03970  1.54752  2.34915  3.11410
  3.63127  3.58483  2.32889  0.87111 -0.11750 -0.41868 -0.16684  0.49421
  2.10985  1.74118  2.06138  2.01525  1.87980  1.43507  1.13007  0.82450
  0.80496  0.90295  0.85087  0.99319  1.28602  1.86583  2.31268  3.07673
  3.54949  3.42634  2.27469  0.94293 -0.07736 -0.32744  0.01567  0.60673
  1.00637  1.38740  1.85030  1.97368  1.95315  1.57098  1.36231  1.02570
  0.39922  0.46005  0.46177  0.43301  0.71954  1.40788  2.25490  3.10239
  3.55114  3.21056  2.11338  0.69445 -0.15953 -0.09261  0.50073  1.67114
  0.92250  1.21419  1.70050  1.94455  1.85595  1.55262  1.25060  0.74424
 -0.23129 -0.09197  0.27814  0.67643  1.25014  1.90570  2.49602  3.01993
  3.19940  2.71272  1.54051  0.39072  0.01482  0.61847  0.91815  1.14827
  1.50034  1.76177  1.96988  2.17125  2.32001  1.21775  0.65957  0.14730
 -0.66990 -0.19351  0.67719  1.47699  2.24158  2.87320  3.16318  3.17799
  2.86156  2.18170  1.17024  0.55984  0.82382  1.43488  1.59833  1.88249
  2.36095  2.61848  2.84429  2.68820  1.82329  0.68508  0.00000 -0.45091
 -0.36042  0.53154  1.94931  2.88222  3.56378  3.99191  3.89021  3.39886
  2.71331  2.10656  1.52204  1.50441  2.04966  1.96642  2.02552  2.40332
  3.07583  3.67664  4.11261  3.53101  2.67238  0.28298 -0.32598 -0.51382
  0.91718  2.23760  3.80260  4.41293  5.03270  5.01729  5.47439  3.45062
  2.95906  2.91321  2.98469  3.02362  2.47035  2.12519  2.11120  2.86826
  3.99145  5.12576  5.22266  3.70222  1.77845  0.45849  0.27569  0.45325
  2.75309  4.47184  4.67696  4.04034  3.88523  3.78921  3.64612  3.71648
  3.90022  4.32138  4.50352  3.09871  1.74137  1.96840  1.78355  3.39177
  5.21554  4.88560  4.17121  2.98817  1.90680  1.52075  1.63712  2.00389
  4.60753  4.13830  2.86491  2.23553  2.05958  2.60649  3.56970  4.76758
  5.29735  5.79016  4.54175  1.71446  1.28551  0.84527  2.09892  3.74503
  3.54732  2.94743  2.95962  2.76375  2.67890  2.73319  2.99114  3.37867
  3.01439  2.13143  1.07143  0.45729  0.71555  2.13385  3.91810  5.52110
  6.56748  4.65355  2.64280  1.82443  0.74717  1.48455  2.39160  2.24606
  1.45375  1.66402  2.46312  3.12688  3.55083  3.74903  4.03382  4.06980
  1.41025  0.57234 -0.31717 -0.61653  0.19058  2.20175  4.66758  6.26728
  5.33169  3.78979  2.19330  1.25559  1.19010  1.56040  1.33543  0.54779
  0.36104  1.20239  2.44208  3.52615  4.00446  4.17687  3.36362  2.28874
  0.83061  0.14956 -0.70021 -0.87357  0.28920  2.53560  4.72936  5.41395
  4.64402  3.46010  3.64997  1.41550  1.19489  1.04096  0.26661 -0.18844
  0.25397  1.27114  2.61263  3.37274  5.13313  3.10481  2.26711  1.39643
  0.49077  0.03090 -0.64515 -0.62863  0.57862  2.47028  4.34946  4.82124
  4.31526  3.23540  2.04536  1.19075  0.74988  0.03037 -0.36666 -0.25387
  0.63710  1.60704  2.62468  2.95787  2.63631  2.00167  1.02876  0.62875
  0.23565  0.67659 -0.33393 -0.09124  1.29884  2.37817  4.06341  4.14999
  3.71357  2.60069  1.39225  0.54877 -0.28844 -0.69855 -0.58434  0.47661
  1.47589  2.11542  2.31036  2.10407  1.53656  0.39328 -0.33123 -0.33400
  0.17985  1.00958  0.11207  0.28548  1.01319  2.01067  2.97355  3.36566
  2.71920  1.56047  0.28912 -0.84959 -1.32100 -1.10544 -0.15754  1.26947
  2.37340  2.46432  2.39211  1.07671  0.17488 -0.51086 -1.01217 -0.10452
  0.30515  0.17309 -0.14915 -0.00616  0.67458  2.22801  2.60750  3.20919
  2.81838  1.55881 -0.03343 -0.71318 -1.51335 -1.22649 -0.20860  1.34364
  3.53415  2.33060  1.86899  1.00215  0.36348 -0.24308 -0.58029 -0.30251
  0.15951  0.25184 -0.30780 -0.18302  0.48664  1.46556  2.48085  3.32006
  3.24220  1.97570  0.94236 -0.88286 -1.20666 -0.82912  0.12156  1.65258
  2.27774  2.38524  2.07778  2.08029  1.03407  0.43659 -0.08794 -0.34633
 -0.44004 -0.51177 -0.32753  0.11116  0.36024  1.30522  2.30866  3.14113
  3.20032  2.30920  0.87351 -0.22440 -0.63304 -0.21989  0.93634  1.53794
  1.69315  2.04488  2.12367  1.79459  1.31441  0.71441  0.08448 -0.60425
 -0.88221 -0.47803 -0.10474 -0.03495  0.53834  1.40583  2.32724  3.13023
  3.07435  2.62581  1.48478  1.11548  0.96128  0.92198  0.96607  0.96610
  1.35956  1.78042  1.90533  1.78117  1.29582  0.50128 -0.10724 -0.65586
 -0.52312 -0.11946  0.26248  0.48854  1.12376  2.55949  2.72088  3.32115
  3.44457  3.19220  2.42686  1.69229  1.71759  0.41719  0.33630  0.79195
  1.41516  1.85998  1.95007  1.68860  1.13478  0.56335  0.02921 -0.40033
%FLAG CMAP_PARAMETER_04                                                         
%COMMENT  Thr CMAP                                                              
%FORMAT(8F9.5)                                                                  
 -0.04283  0.18161  1.05439  1.03586  1.32935  1.80299  2.39623  2.93329
  3.35590  3.57777  3.50914  1.68053 -0.39179 -0.93314 -0.64171  0.11454
  0.89169  1.19527  1.06990  0.70217  0.45484  0.13072 -0.22279 -0.64142
 -0.89041 -0.23409  0.59158  0.55751  0.83342  1.42045  2.21734  3.18185
  3.46319  3.49225  2.74426  0.52768 -0.99342 -1.26181 -0.82560 -0.00314
  0.89227  1.33370  1.44561  1.23285  0.82708  0.26308 -0.20670 -0.77475
 -0.77931 -0.21773  0.28830  0.08738  0.88718  0.95262  1.87297  3.11301
  3.13164  3.38335  1.75405  0.07220 -1.09686 -1.29826 -0.91328 -0.03110
  0.83011  1.32603  1.46471  1.28387  0.67901  0.23347 -0.27939 -0.69694
 -0.50786 -0.10197  0.06983 -0.17637  0.06763  0.79727  2.28870  2.45490
  2.93902  3.31058  1.67194  0.10975 -0.84848 -0.98572  0.03685 -0.00657
  0.75442  1.26299  1.46733  1.35576  0.81372  0.99506 -0.07250 -0.48345
  0.10617  0.89653  1.01472  0.51464  0.29597  0.97717  1.86119  2.69722
  3.25863  3.09958  1.98360  0.61582 -0.27072 -0.59401 -0.33506  0.34299
  0.94668  1.38632  1.66220  1.70320  1.34813  1.65038  0.62845  0.23924
  0.72889  0.70286  0.50076  0.83792  0.58321  1.37720  2.36342  3.16093
  3.64517  3.46287  2.41734  1.11469  0.11040 -0.17882  0.19884  0.95013
  1.17771  1.51890  1.83892  2.02544  2.52304  1.54809  1.28633  0.94204
  0.44986  0.84132  1.02745  0.44812  0.85346  1.66099  3.07918  3.29722
  3.67845  3.42114  2.31098  0.98281  0.09466  0.19679  0.86348  1.00796
  1.32832  2.00653  1.85879  2.11827  1.96393  1.65524  1.22698  0.89636
 -0.16092 -0.07801  0.36742  0.71079  1.37539  2.07819  2.78900  3.25905
  3.45281  2.88038  1.70415  0.66784  0.52962  0.91246  1.45720  1.70827
  1.96726  2.05687  2.25152  2.69300  1.87895  1.30437  0.67732  0.16373
 -0.59497 -0.15706  0.87552  1.51129  2.23851  2.99679  3.70183  4.34392
  3.11511  2.42327  1.45045  0.88441  1.17792  1.80802  1.89428  2.26153
  2.77283  3.04412  3.18064  3.02688  2.74623  0.78666  0.00000 -0.39235
 -0.35916  0.39315  1.93035  2.81662  3.65827  4.17673  4.19465  4.39392
  2.95304  2.23500  1.84732  1.84010  2.40277  2.39122  2.40836  2.83657
  3.53179  4.15047  4.32346  3.57356  2.03334  0.38577 -0.25814 -0.48010
  0.90231  2.09057  3.75066  4.41890  5.21329  5.48263  4.81077  4.43634
  3.32223  3.13901  3.21301  3.48840  3.14705  2.66483  2.64675  3.40492
  4.64828  5.45938  5.43806  3.77072  1.88593  0.59482  0.32151  0.46925
  2.84623  5.25750  4.89403  4.16235  4.18058  4.25905  4.39881  4.30063
  4.27196  6.52030  5.09605  4.18296  2.87596  2.88864  2.98802  4.36666
  5.97212  5.37136  4.65053  3.41526  2.12052  1.70730  1.91929  2.22274
  5.08537  3.84174  2.58325  2.05517  2.09913  2.76880  4.07500  5.11462
  6.04360  6.80346  4.29068  2.24439  1.89996  1.49269  2.85393  4.25936
  3.68129  3.16198  3.17712  3.18147  3.06025  3.11939  3.59651  4.06844
  2.95875  1.85563  0.75599  0.11936  0.62544  2.16551  4.28956  6.12775
  6.83966  4.68973  2.85927  1.53513  0.96538  1.77312  2.68992  2.31815
  1.47003  2.17589  2.43707  3.45826  3.94968  4.26320  4.42076  3.92590
  1.51557  0.68246 -0.39230 -0.84277  0.04559  2.19451  4.72922  6.95780
  5.40020  3.82779  2.18071  1.35124  1.31049  1.70777  2.34439  0.75006
  0.44316  1.19441  2.39699  3.43932  4.57651  3.99795  3.91034  2.38687
  1.04547  0.30750 -0.67905 -0.95180  0.30970  2.62028  4.94026  5.63370
  4.90897  3.64364  2.33340  1.59932  2.28424  1.95144  0.81385  0.18108
  0.42251  1.36588  2.52927  3.29540  3.55721  3.32056  2.55338  1.75457
  0.60608  0.40626 -0.68634 -0.66328  0.65725  2.77987  4.62553  5.30870
  4.70772  3.57993  2.28608  1.50195  1.07282  0.51037  0.02107  0.04398
  0.78132  1.81193  2.65223  3.05004  3.29539  2.26809  1.28641  0.82302
  0.22184 -0.08581 -0.51518 -0.31218  0.81241  2.48610  4.04241  4.45494
  4.00716  2.85112  1.57321  0.70165 -0.02248 -0.39760 -0.36780  0.52170
  1.52703  2.32447  2.45530  2.32999  1.42990  0.52248  0.32984 -0.22600
 -0.84996 -0.35427 -0.56081 -0.65299 -0.35852  0.31584  1.22816  2.03830
  2.09882  1.37972  0.15727 -0.97399 -1.60803 -1.26567 -0.30784  0.86931
  1.82810  1.99110  1.50663  1.56367 -0.12333 -0.81892 -1.35944 -1.44084
 -0.71561 -0.48676 -0.90866 -1.05252 -0.76509 -0.25592  1.92498  1.39249
  1.46845  0.73400 -0.53906 -1.52276 -1.96454 -1.58268 -0.76508  0.34222
  1.68651  1.37652  1.09906  0.28335 -0.35007  0.36504 -1.18170 -1.09588
 -0.48043 -0.38894 -0.89246 -1.00398 -0.72977  1.23204  2.16417  3.03543
  3.37771  0.82671 -0.30503 -1.26073 -1.67429 -1.44717 -0.71385  1.24900
  2.08698  2.14998  1.83853  0.59083  0.08661 -0.31277 -0.35513 -0.41066
 -0.69004 -0.51194 -0.32955 -0.69400 -0.07464  0.92871  2.01875  2.85811
  2.77128  1.89030  0.66242 -0.07809 -0.10615 -0.38945  0.85104  1.94679
  1.73514  1.93323  1.84929  1.46327  1.10934  0.57034  0.50272  0.41957
 -1.25344 -1.20087 -1.12615 -1.04924 -0.95384 -0.92645 -0.69918 -0.80083
 -0.88788 -1.12156 -1.25754 -1.27281 -1.10861 -1.24222 -1.29319 -1.21080
 -1.23111 -1.26112 -1.27972 -1.28928 -1.24905 -1.24053 -1.23026 -1.26240
 -0.80998 -0.02949  0.66142  0.58819  0.90096  1.83448  2.35428  2.68721
  2.63478  2.57170  2.31832  1.91349  0.98844 -0.33805 -0.39669  0.23525
  0.83158  0.85527  0.58471  0.11117 -0.22091 -0.31767 -0.30232 -0.53977
%FLAG CMAP_PARAMETER_05                                                         
%COMMENT  Val CMAP                                                              
%FORMAT(8F9.5)                                                                  
 -2.01756 -1.73905 -0.84847 -0.46472  0.56763  1.48277  2.25636  2.19993
  1.90981  1.92836  2.09834  0.40342 -1.69535 -2.90033 -2.50948 -1.57682
 -0.64873 -0.15120 -0.28239 -0.73968 -0.94325 -1.11484 -1.15508 -2.03782
 -1.34105 -1.11818 -0.89418 -0.53817  0.12131  0.92443  1.83452  1.96102
  1.70243  1.69935  1.38644 -0.63952 -2.23904 -2.43926 -2.13880 -1.32255
 -0.42293 -0.09541 -0.22230 -0.57057 -0.62945 -0.77374 -0.70221 -1.35264
 -0.30513 -0.50219 -0.51144 -0.19462  0.20036  0.92772  1.73742  1.94165
  1.66054  1.57483  0.93993 -0.30497 -1.51733 -1.80347 -1.47901 -0.70849
  0.12800  0.42168  0.27324 -0.12805 -0.25468 -0.26176 -0.25964 -0.23486
  0.22080  0.11254 -0.09598 -0.02547  0.36470  1.04764  1.78065  1.94793
  1.64226  1.47878  0.87840  0.00733 -0.78419 -1.14640 -0.91232 -0.13181
  0.55113  0.92382  1.28488  0.38464  0.18091  0.23528  0.21156  0.24920
  0.97024  0.77699  0.11389  0.09390  0.43246  1.27421  2.11132  2.36347
  2.00982  1.63713  1.04527  0.37080 -0.23589 -0.73011 -0.44336  1.26834
  1.79252  1.22128  1.25826  1.13028  0.92625  1.82206  0.89856  0.91110
  1.70991  1.32299  0.33417  0.14944  1.16593  1.49896  3.19090  2.76539
  2.48088  1.89518  1.28911  0.61864  0.01777 -0.14494  0.22396  0.77031
  1.07240  1.26184  1.35849  1.28895  1.97069  1.48297  1.57305  1.85292
  1.48800  1.13328  0.11690  0.29064  0.85784  1.77367  2.59189  2.91705
  2.42216  1.76483  1.79629  0.86281  0.10283  0.37023  0.86569  0.94069
  1.01430  1.21124  1.35219  1.30023  1.22214  1.35322  1.48391  1.69070
  0.67909  0.57713  0.02502  0.46770  1.40409  2.27852  3.49476  2.78640
  1.95403  1.27900  0.55420 -0.02238  1.20682  1.29930  1.52554  1.64336
  1.76775  1.70570  1.67854  1.45650  1.09476  0.82649  1.19884  0.75282
  0.07073  0.30572  0.52146  1.36896  2.48099  3.33540  3.59124  2.88171
  1.76876  1.19799  0.32459  0.32422  0.95308  2.45034  2.37598  2.40673
  2.67534  2.65749  2.51708  2.14912  1.18076  0.39138  0.00000  0.07630
  0.04074  1.54419  1.96416  3.13362  4.31575  4.95477  4.44775  3.11538
  1.50508  0.72125  0.79846  1.33862  2.42257  3.24290  3.12154  3.35226
  3.78456  3.99241  3.82937  2.81100  1.25323  0.16589 -0.28260 -0.12977
  1.12864  3.90130  4.63426  5.77403  6.31577  5.96470  4.91642  3.16778
  2.26973  1.74060  2.27380  2.97981  3.51359  3.19033  3.33677  4.19992
  5.22362  5.87548  4.86276  2.93236  1.19785  0.28507  0.14742  0.63000
  3.72001  6.33863  5.35590  4.29996  4.26654  4.32352  3.98104  3.33460
  2.91813  3.53218  4.29596  4.51641  2.49249  1.90963  2.83865  4.63489
  4.97899  4.16045  3.39890  2.32070  1.48906  1.29139  1.60292  2.24778
  6.00854  3.89247  2.89440  2.55025  2.57681  3.10775  3.92241  4.01712
  4.49403  5.18578  3.70552  2.38215  2.01401  1.59381  3.04997  4.51111
  3.23799  2.70851  2.59259  2.38231  2.40214  2.94886  3.50773  4.54844
  4.51937  2.50940  1.61873  1.24925  1.66350  3.66266  4.55456  5.47628
  6.13567  4.06242  2.85443  2.03944  2.02600  2.52651  3.62142  2.70641
  1.97481  2.07470  2.56879  3.03541  3.69679  4.06367  4.65134  5.55831
  2.88814  0.52779  0.16551  0.26664  1.58420  3.71632  5.64144  6.08480
  4.85665  3.62841  2.86402  2.75331  3.09330  3.73213  2.16268  1.66846
  1.14682  2.60251  3.24104  4.65709  4.40085  4.67183  4.61862  3.96074
  1.69027  0.76750 -0.69979 -0.15185  2.22330  4.17638  5.53096  5.17628
  4.26174  3.52592  3.19619  4.19572  2.94549  1.11204  0.17610  0.05643
  0.98595  2.23581  3.45223  3.88084  3.96450  3.73252  3.28716  2.64029
  1.47850  0.63019 -0.95303 -0.13694  1.54363  3.47985  4.19958  4.05565
  3.90108  3.18085  3.58033  2.62660  2.22083 -0.31386 -0.74356 -0.27479
  1.00826  2.19607  2.74108  2.87658  2.77839  2.65101  2.37288  1.92155
  1.07215  0.66669 -0.89125 -0.20060  1.02999  2.38189  2.91480  2.77764
  2.48398  2.19059  2.01388  1.58231  0.53487 -1.19678 -1.18562 -0.14882
  0.98452  1.69506  1.85226  1.71204  1.57096  1.60872  1.52788  1.43156
  1.07875  1.04590 -0.55118 -0.28378  0.64179  1.53005  2.05887  1.60199
  1.69739  1.25571  1.02661  0.47784 -0.61980 -1.38623 -0.85945  0.33907
  1.15832  1.35313  1.15992  0.81644  0.76079  0.76522  0.89391  1.05876
  1.45117  1.22355  0.18022 -0.22437  0.39219  1.28115  1.89920  1.64643
  1.36145  1.15488  0.69505 -0.03464 -0.80651 -1.04055 -0.39746  0.64416
  1.21429  1.35414  1.10084  0.71349  0.62948  0.72070  1.07327  1.35814
  1.45821  1.01290  0.30532 -0.11668  0.26191  1.81248  2.13486  2.25298
  1.74419  1.24135  0.75222 -0.00108 -0.54822 -0.71040 -0.08108  1.02502
  1.44087  1.54881  1.35073  1.01930  0.87623  1.09706  1.50032  1.74125
  1.24172  0.70146  0.38540  0.25065  0.37446  1.32984  2.22978  2.81617
  2.19013  1.26923  0.57654  0.22218 -0.25813 -0.26505  0.64873  1.84887
  1.79747  1.73430  1.57205  1.21116  1.04895  1.15718  1.33818  1.58324
  0.52985  0.37156  0.33331  0.30703  0.70760  1.27012  2.34003  3.12435
  2.75444  1.71103  0.77398  0.27700  0.07276  0.30492  1.97301  3.06719
  2.42419  1.91835  1.82997  1.59237  1.96213  1.07834  0.58274  0.44102
 -1.78231 -0.90400 -0.83905  0.00646  1.08505  1.99726  2.71747  2.45290
  1.86533  2.24530  1.12274 -0.76075 -1.12759 -1.47736 -1.09815 -1.10064
 -0.11997  0.30194  0.03016 -0.49455 -0.85448 -1.11224 -0.54136 -0.66678
%FLAG CMAP_PARAMETER_06                                                         
%COMMENT  Asn CMAP                                                              
%FORMAT(8F9.5)                                                                  
 -2.36142 -2.38282 -1.85114 -1.14945 -0.53219  0.40272  1.10739  1.54721
  1.14822  0.56328 -0.32641 -0.97284 -1.62108 -2.61585 -2.43529 -1.76224
 -0.89168 -0.43603 -0.45868 -0.80868 -1.23357 -1.67011 -1.85428 -2.07601
 -0.99020 -0.65164 -0.16568  0.77160  0.60853  1.20633  1.86206  2.24018
  2.09896  1.87777  1.49042 -0.23289 -1.57415 -2.03742 -1.74572 -0.99728
 -0.21593  0.22447  0.13197 -0.25978 -0.50150 -0.85141 -0.96698 -0.93705
 -0.23452  0.02251  0.30781  0.40180  0.78928  1.41471  2.15873  2.53745
  2.41276  2.12221  1.06003 -0.37341 -1.32169 -1.52816 -1.15850 -0.48430
  0.26694  0.62752  0.57895  0.23875 -0.14843 -0.25471 -0.16878 -0.21645
  0.32993  0.62242  0.82014  0.83866  1.17298  1.85445  2.49579  2.76609
  2.66051  2.28725  1.11295 -0.10052 -0.45992 -0.96562 -0.70181  0.02410
  0.76921  1.15367  1.07940  0.77563  0.54329  0.42201  1.56320  0.28771
  0.72778  0.84030  1.35834  0.78504  1.25359  1.90927  2.65036  2.92871
  2.76138  2.78943  1.09211  0.00726 -0.56542 -0.81169 -0.43858  1.02217
  0.90049  1.18949  1.23458  1.15325  0.94233  0.76064  0.77201  0.78071
  0.95200  0.88305  0.67506  0.62695  1.20079  2.51954  2.77945  3.06364
  2.84209  2.21279  2.07637  0.22142  0.09971 -0.64441 -0.12844  0.59565
  0.95584  1.18330  1.26109  1.35401  1.20044  1.13471  1.25849  1.53251
  0.98852  0.75594  0.58499  0.73124  1.33660  2.15329  2.89253  3.24156
  3.05146  2.40135  1.25476  0.84619 -0.28833 -0.04297  0.52966  0.77004
  1.09586  1.21028  1.84021  1.39937  1.28983  1.25273  1.30990  2.25922
  0.43070  0.41686  0.64029  1.06650  1.77975  2.64461  3.22075  3.30475
  2.78048  1.92844  0.86429  0.03553  0.07940  0.75937  1.21102  1.56399
  1.77881  1.78336  2.76865  2.77098  1.21889  0.83048  0.66873  0.52960
  0.14984  0.40714  1.05775  1.86760  2.87661  3.67525  3.97002  3.45551
  3.16481  1.49243  0.70837  0.47291  0.83260  1.52894  1.81113  2.21287
  2.59067  2.72250  2.63597  2.26171  1.28601  0.37915  0.00000 -0.16142
  0.37322  1.05110  2.29853  3.46919  4.53739  5.08791  4.67687  3.55691
  2.24775  1.47967  1.24790  1.41912  1.99678  2.09866  2.24949  2.76531
  3.45843  3.94024  3.90981  3.00944  1.38809  0.06721 -0.25222 -0.05158
  1.65927  2.83186  4.18526  5.41852  6.44555  6.11045  4.46824  3.61889
  2.60459  2.56860  2.67046  2.84508  2.52977  2.20948  2.37873  3.27529
  4.39793  5.47368  4.42754  2.90076  1.18353  0.23659  0.40642  0.93136
  4.38128  5.67636  4.30743  4.08665  4.09042  5.21933  4.29941  3.43575
  3.37828  4.09688  3.92159  2.86586  0.72936  1.25023  1.60873  3.38397
  4.40792  3.56917  2.53579  1.66014  1.04446  1.31380  2.19557  3.14506
  4.81450  4.02770  3.08165  2.65234  2.59542  2.92277  3.38903  4.59549
  4.64414  4.42318  2.34279  0.65483  0.08515  0.48342  1.95375  3.58076
  2.98522  2.26620  2.95565  1.76159  1.91602  2.54703  3.37308  4.33159
  3.76265  2.68948  1.81256  1.33990  1.64654  2.73704  4.16511  5.07259
  5.42833  3.59789  1.73708  1.37640  0.65256  1.55040  2.79264  2.49202
  1.53215  1.55102  1.92800  2.61187  3.07623  3.54959  4.18847  4.59865
  1.87115  1.02475  0.53761  0.43174  1.54095  3.39547  5.16780  5.81117
  4.81530  3.41190  2.11102  1.55531  1.62597  2.09509  1.71205  0.80780
  0.62797  1.36163  2.44562  3.46914  3.90694  4.13511  3.86763  2.92274
  0.58000  0.17215 -0.27569  0.04547  1.59524  3.62089  4.76947  4.70111
  4.18539  3.29728  2.38734  1.86816  1.54197  1.04924  0.13429 -0.24233
  0.27816  1.37732  2.49883  3.11480  3.23962  2.93361  2.25515  1.28612
 -0.15494 -0.34050 -0.57789 -0.14372  1.35546  2.92020  3.92891  3.60777
  3.33542  2.71737  1.85692  1.82747  0.47393 -0.57416 -1.11105 -0.77930
  0.16180  1.13768  1.79580  2.04997  1.86544  1.43990  0.89481  0.25518
 -0.77548 -0.80773 -0.80786 -0.30262  0.73746  2.60772  2.12241  2.62399
  2.02789  1.41505  0.62418 -0.17027 -1.20154 -1.87203 -1.78777 -0.88748
 -0.03581  0.62951  0.66272  0.52817  0.31799  0.04386 -0.32034 -0.63929
 -0.22789 -0.11594  0.01596  0.32123  0.85166  1.52364  1.67078  1.44123
  1.16473  0.65131 -0.05490 -1.07546 -1.90235 -1.91447 -1.24920 -0.12634
  0.57735  0.78964  0.59226  0.51054  0.32819  0.10384 -0.16834 -0.29474
  0.64706  0.61584  0.56208  0.92606  1.40738  2.11648  2.40853  2.29623
  1.88691  1.22322  0.14194 -0.86223 -1.43925 -1.15134 -0.42472  0.69828
  1.34848  1.49478  1.31140  0.94545  0.68124  0.52936  0.48317  0.56963
 -0.99300 -0.97876 -1.01326 -0.77718 -0.18870  0.51456  1.06092  1.14814
  0.59953 -0.34468 -1.44363 -2.36329 -2.86251 -2.71047 -1.80960 -0.75154
 -0.26256 -0.27321 -0.57516 -1.08157 -1.29577 -1.35569 -1.17839 -1.07544
 -2.18588 -2.19390 -2.07539 -1.82534 -0.57333 -0.25977  0.54635  0.71997
  0.06649 -0.87697 -2.01012 -2.12155 -3.30791 -3.18420 -2.12738 -0.43993
 -0.72253 -0.76304 -0.88684 -1.41091 -1.66608 -1.83869 -1.74745 -1.91149
 -3.08565 -2.97228 -2.12433 -2.30328 -1.59074 -0.57423  1.86028  0.74786
  0.15188 -0.91140 -1.98044 -2.69096 -3.09247 -2.84304 -1.43999 -1.42382
 -1.21932 -1.06603 -0.97419 -1.28634 -1.70719 -2.24687 -2.46040 -2.77219
 -3.13661 -3.14092 -2.19694 -2.18054 -1.53235 -0.40538  0.59679  0.97100
  0.44526 -0.49049 -1.51523 -2.17362 -2.35354 -2.30396 -2.74203 -2.18508
 -1.54370 -1.02833 -0.96874 -1.21845 -1.74214 -2.32436 -1.97764 -2.84223
%FLAG CMAP_PARAMETER_07                                                         
%COMMENT  Asp CMAP                                                              
%FORMAT(8F9.5)                                                                  
 -1.49562 -1.46758 -1.05587 -0.62963  0.14992  1.22315  2.17140  2.70849
  2.38497  1.72937  0.78456  0.22189 -0.28120 -1.32669 -1.27041 -0.49139
  0.39957  0.88395  0.92343  0.52253 -0.03711 -0.53684 -0.78664 -1.14950
 -0.64489 -0.35503 -0.07025  0.13980  0.63990  1.34390  2.14694  2.65182
  2.63980  2.46358  2.06128  0.12666 -1.27358 -1.82069 -1.58355 -0.69542
  0.26285  0.84428  0.79877  0.40272  0.10166 -0.42888 -0.43529  0.00693
 -0.42804 -0.36910 -0.48433 -0.51308 -0.04683  0.82016  1.70274  2.29461
  2.23181  1.81286  0.54788 -0.88838 -1.78552 -2.06234 -1.63086 -0.84211
  0.15543  0.63475  0.67849  0.33758 -0.22145 -0.35208 -0.33967 -0.47257
  0.28872  0.44823  0.30222  0.17422  0.47890  1.16691  1.95585  2.33566
  2.32125  1.86687  0.72697 -0.39833 -0.96491 -1.00888 -0.68405  0.07457
  0.78111  1.10692  1.04508  0.70100  0.49678  0.21560  0.20943  0.23489
  0.71999  0.82815  0.54467  0.35417  0.72074  1.42855  2.18470  2.45775
  2.35292  1.86194  0.84660 -0.12572 -0.56530 -0.77193 -0.32602  0.31405
  0.83398  1.03708  1.07286  1.05466  0.87630  0.60296  1.14736  0.70843
  1.03998  0.87380  0.46989  0.31562  0.79617  1.57471  2.38948  2.86883
  2.76330  2.17437  1.28784  0.30631 -0.32026 -0.37585  0.11091  0.71397
  0.96823  1.18270  1.32644  1.37983  1.28316  1.17555  1.49550  1.22262
  0.97974  1.16744  0.90297  0.54507  1.16492  2.76751  2.73801  3.15414
  3.04712  2.42995  1.33037  0.40212  0.00720  0.28519  0.83612  1.03536
  1.32229  1.41220  1.64613  1.65576  1.50229  1.29755  1.36353  1.21807
  0.56947  0.66830  0.85946  1.17456  1.86629  2.71927  3.23518  3.33637
  2.81689  1.96261  1.01532  0.28151  0.39885  2.03528  1.66211  1.97715
  2.21266  2.25496  2.71296  2.09240  1.84455  1.89262  0.61624  0.50926
  0.32488  0.73152  1.43091  2.23893  3.20457  3.90721  3.99750  3.37929
  2.29378  1.30243  0.67642  0.75738  1.39616  1.94462  2.37756  2.63964
  3.12320  3.21242  3.10066  2.62911  1.42662  0.23498  0.00000  0.00010
  0.73600  1.59064  2.81308  3.69030  4.64683  5.15404  4.64262  3.19191
  1.81778  1.23102  1.39704  1.88323  2.29514  2.33708  2.53949  3.21211
  3.99577  4.37219  4.28607  4.17382  0.98275 -0.15319 -0.20281  0.18782
  2.31021  3.71717  5.60886  4.34945  4.31542  4.11915  3.38784  2.36621
  1.87800  2.37554  3.00163  2.23706  1.46509  1.02946  1.41558  2.77697
  4.16499  4.44222  3.05201  1.61863  0.26170 -0.23192  0.33982  1.20697
  3.97952  4.63690  3.67634  3.33977  3.39728  3.09758  2.73880  2.52708
  2.89144  4.05099  2.73684  2.43041  0.10319  0.55891  0.97879  2.75597
  4.07597  3.20952  2.02049  1.06720  0.41182  0.67953  1.52192  2.59554
  4.17204  3.88190  2.91020  2.47439  2.24044  2.29340  2.82300  3.31180
  4.10962  4.45591  1.88641  0.35814  0.09355  0.04944  1.59611  3.34374
  3.12305  2.17548  1.61711  1.21835  1.28852  1.86143  2.58726  3.40886
  4.52471  3.16398  2.06366  1.37578  1.36089  2.25188  3.55804  4.50011
  5.07453  3.40006  1.53037  0.88466  0.31377  1.25650  2.71111  3.02874
  1.97372  2.15472  1.59327  2.69414  2.40171  2.73245  3.27608  5.10893
  3.14945  1.90832  0.95730  0.45874  1.22866  2.92255  4.67866  5.93875
  5.15008  3.66383  2.29774  1.72070  1.79854  2.42317  2.77678  1.62694
  1.16044  1.59965  2.44139  3.50199  3.60428  3.88961  4.89752  4.22000
  1.91926  1.05173  0.21400  0.12545  1.45754  3.59387  5.39166  5.58573
  5.04916  4.05587  4.20274  2.64408  2.34109  2.61386  2.07953  0.49445
  0.84121  1.90927  3.06728  3.85257  4.22501  4.37514  3.79127  2.84961
  1.46119  0.48800 -0.09553  0.07014  1.63877  3.47982  4.57471  4.74649
  4.44286  3.81479  2.98666  2.30656  1.73429  1.06748  0.23379 -0.03219
  0.94327  1.97829  2.84941  3.36983  4.08523  3.32868  2.75870  2.00730
  0.75221  0.37623  0.02947  0.33761  1.52499  2.72714  4.19077  3.63118
  3.52459  2.92951  2.14991  1.38545  0.38442 -0.47785 -0.55507  0.29007
  1.29482  1.92247  2.15714  2.33333  2.30165  2.12531  1.71418  1.22141
  0.88641  0.92848  0.87156  1.02232  1.60200  2.35960  2.73873  2.52997
  2.31464  1.83933  1.20802  0.38755 -0.48391 -0.66327 -0.09884  1.02970
  1.82779  2.10988  1.85429  1.45392  1.11870  0.94338  0.81067  0.83826
  1.03200  1.18195  1.13906  1.22457  1.74650  2.32383  2.57689  2.44037
  2.14035  1.63689  0.64869 -0.39809 -0.85334 -0.62553  0.21513  1.19266
  1.87478  1.82009  1.32977  0.86426  0.49278  0.29173  0.37297  0.62169
  0.52072  0.42764  1.03985  0.38917  1.00495  1.79427  2.38328  2.46870
  2.01211  1.24009  0.13122 -0.74933 -1.26874 -1.14283 -0.29027  0.79514
  1.43503  1.40711  1.02307  0.60674  0.27365  0.21750  0.33391  0.40527
 -0.61008 -0.80145 -0.73895 -0.59840  0.12484  0.99044  2.20612  2.15075
  1.57796  0.69818 -0.35451 -1.10407 -1.70906 -1.58366 -0.60563  0.61874
  1.00973  1.01639  0.82233  0.24046 -0.04711 -0.20865 -0.15878 -0.37664
 -1.55972 -1.60220 -1.32780 -0.16944 -0.34409  0.64340  1.65164  2.17103
  1.67259  1.53155 -0.28784 -1.03589 -1.53627 -1.39906 -0.05579  0.43801
  0.55558  0.71337  0.78982  0.45863  0.04903 -0.49554 -0.74942 -1.18854
 -1.84464 -1.86838 -1.48444 -0.60621 -0.44386  0.66811  1.82650  2.39558
  2.02004  1.10338  0.04996 -0.57627 -0.82171 -0.50060 -0.94257 -0.36603
  0.27577  0.82555  0.88844  0.61807 -0.02107 -0.65910 -0.98900 -1.48129
%FLAG CMAP_PARAMETER_08                                                         
%COMMENT  Arg CMAP                                                              
%FORMAT(8F9.5)                                                                  
 -0.82019 -0.32734  0.03808  0.23228  0.76963  1.60165  2.36816  2.61664
  2.38271  2.02874  1.62850  0.62939 -1.20602 -1.83289 -1.46232 -0.53771
  0.32243  0.59859  0.35225 -0.12119 -0.69002 -1.04545 -1.05428 -0.93403
 -0.41932 -0.15004  0.12826  0.27661  0.72913  1.42432  2.81129  2.67254
  2.49050  2.27083  1.72637 -0.18382 -1.46783 -1.77855 -1.39836 -0.44895
  0.41819  0.77443  0.57485  0.18351 -0.24581 -0.49794 -0.49109 -0.43134
 -0.03181  0.09212  0.26463  0.30730  0.67123  1.37932  2.23082  2.63856
  2.62596  2.24643  1.07404 -0.34650 -1.22123 -1.37293 -0.94649 -0.06868
  0.66814  1.02349  0.90096  0.51091  0.83242 -0.12064 -0.13937 -0.06630
  0.30911  0.38230  0.41571  0.35150  0.71886  1.40113  2.24835  2.61976
  2.60263  2.19910  1.02051 -0.13725 -0.80984 -0.51727 -0.60832  0.14925
  0.95520  2.31597  1.28238  0.95905  0.58435  1.06596  0.36760  0.32559
  0.97700  0.87938  0.70298  0.56028  0.90637  1.63130  2.48708  2.91633
  2.84540  2.37176  1.28724  0.25600 -0.35258 -0.57629 -0.17251  1.24378
  1.33817  1.69485  1.73420  2.41743  1.23425  1.05948  1.01644  1.03179
  1.47846  1.26136  0.92101  0.72122  1.88398  1.95481  3.43952  3.26274
  3.17158  2.54918  1.49397  0.45059 -0.22429 -0.29407  0.28140  0.97521
  1.35309  1.59629  1.79401  1.76556  1.67262  2.50523  2.84585  1.85480
  1.12701  0.88950  0.68010  0.70824  1.23056  2.08392  2.94066  3.33371
  3.08117  2.31234  1.22116  0.15414  0.31991 -0.02302  0.71736  0.99887
  1.27471  1.45474  1.70706  1.63244  1.46896  1.34033  1.41944  1.38113
  0.40271  0.40149  0.56144  1.00706  1.81004  2.53536  3.12806  3.21290
  2.72394  1.84719  0.67139 -0.10650 -0.16555  1.22354  1.25868  1.63725
  1.94073  2.02029  1.96543  1.75902  1.20561  0.79429  1.12809  0.54953
 -0.02017  0.24010  0.82234  1.78670  2.71108  3.57624  3.89674  3.41370
  2.50308  1.42332  0.49400  0.27081  0.71342  1.50828  1.84817  2.30340
  2.73753  2.88432  2.72089  2.33911  1.26274  0.32927  0.00000 -0.02509
  0.22019  0.81524  1.99565  3.20174  4.27697  4.99287  4.68537  3.60993
  2.33489  1.49104  1.20599  1.49948  2.05487  2.09847  2.37240  2.91429
  3.57365  4.03015  4.09469  3.12549  1.52656  0.13471 -0.13981  0.05364
  1.56488  2.47517  3.89322  5.01126  6.12448  6.24176  5.27335  3.81489
  2.73700  2.63495  2.81724  3.07612  2.69272  2.36363  2.58824  3.57488
  4.75866  5.70992  5.22088  3.35499  1.49211  0.43632  0.68075  0.99862
  3.71466  4.97633  5.03644  4.63092  4.88438  4.95132  4.74947  4.22219
  3.96003  4.36300  4.49487  3.50231  2.33286  2.82232  2.84070  4.64427
  5.80231  4.93210  4.03654  3.69286  1.82345  1.53744  2.11349  3.00377
  5.69846  4.31879  3.48555  3.08843  3.12750  3.84986  4.74837  5.15704
  5.69924  5.70772  3.79753  2.20228  2.02020  1.66881  3.16529  4.71910
  3.98793  3.46162  3.23644  3.01487  2.85594  3.17651  3.88235  5.08322
  4.33361  3.05845  2.15191  1.76674  2.26019  4.62310  5.27599  6.41105
  6.57469  4.72069  2.90873  2.58442  1.84659  2.59955  3.75670  3.29872
  2.50633  2.64921  3.13213  3.69368  4.11672  4.56694  5.22661  5.41481
  2.47932  1.47708  0.92934  0.82583  1.97560  4.09763  6.02009  6.63700
  5.63097  4.28706  3.44779  2.55291  2.63996  2.96895  2.52734  1.57697
  1.52061  2.36918  3.49937  4.35064  4.63186  4.93333  4.58764  3.87984
  1.14030  0.54805  0.15255  0.42318  1.94772  4.16250  5.55489  5.40328
  4.90248  3.93201  3.16772  2.77740  2.39321  1.78501  0.79513  0.47158
  1.16020  2.17993  3.37552  4.72366  3.82546  3.46230  2.81778  1.93161
  0.52749  0.13567 -0.16778  0.12719  1.66181  3.37787  4.18059  4.18535
  3.93313  3.28620  3.40583  1.93871  1.19386  0.14108 -0.35986  0.36760
  1.06184  1.94671  2.60114  2.72622  2.44593  2.05922  1.56750  1.02523
  0.01900 -0.06224 -0.20394  0.11955  1.23281  2.36006  2.79433  2.78651
  2.70084  2.19348  1.35765  0.56943 -0.54495 -1.21964 -0.99636  0.01972
  1.13276  1.52104  1.46857  1.29408  0.96868  0.64095  0.41292  0.19068
 -0.07976  0.08211 -0.00959  0.19096  0.86141  1.55762  1.91521  1.67178
  1.42661  0.97985  0.22429 -0.82647 -1.22594 -1.79632 -0.99661  0.16885
  1.06280  1.09088  0.71015  0.35652 -0.05923 -0.25897 -0.27967  0.15156
  0.31643  0.34879  0.03351  0.07730  0.59951  1.35053  1.84798  2.38209
  1.48242  0.87376 -0.33412 -1.31902 -1.88732 -1.66595 -0.85111  0.29401
  1.01849  1.07281  0.71179  0.25448 -0.16867 -0.19324 -0.07485  0.14014
  0.30578  0.18396  0.41854  0.12605  1.31596  1.40698  2.13744  2.31775
  1.90841  1.01589 -0.13190 -1.04639 -1.40035 -1.53108 -0.70658  0.55931
  1.00526  0.97097  1.46250  0.60875  0.25602  0.27253  1.23801  0.50623
 -0.21577 -0.32939 -0.28555 -0.12925  0.37096  1.31081  2.17516  2.51541
  2.07043  1.07046  0.00522 -0.78938 -1.37985 -1.38712 -0.37447  0.94060
  1.21850  1.07708  0.94808  0.67328  0.65820  0.28861  0.37647  0.19858
 -0.94918 -1.09353 -0.88094 -0.51772  0.10892  1.12433  2.25381  3.33302
  2.38527  1.24435  0.47731 -0.27468 -0.92392 -0.73854  0.62725  0.76038
  0.86756  0.93678  0.99157  1.26267  0.40698 -0.06675 -0.28978 -0.57344
 -1.55826 -1.71934 -0.87065 -0.80793  0.11462  1.20435  2.36674  2.85621
  2.50426  1.35577  0.89560 -0.29658 -0.31092 -0.83895 -1.29321 -0.66979
  0.16650  0.68020  1.64189  0.50936 -0.05755 -0.64713 -0.91307 -1.12834
%FLAG CMAP_PARAMETER_09                                                         
%COMMENT  Lys CMAP                                                              
%FORMAT(8F9.5)                                                                  
 -1.13164 -0.62346 -0.24209 -0.02973  0.48480  1.23694  2.04575  2.29166
  2.02876  1.62703  1.27127  0.35950 -1.42623 -2.05405 -1.64702 -0.75066
  0.09360  0.45285  0.21807 -0.18586 -0.73583 -1.13344 -1.19694 -1.19062
 -0.64060 -0.32893  0.02012  0.02118  0.47137  1.14861  1.91913  2.36069
  2.22229  1.95149  1.20614 -0.57017 -1.75076 -2.03501 -1.58763 -0.64877
  0.30096  0.62023  0.45342  0.04313 -0.46090 -0.79564 -0.82334 -0.74223
 -0.24137 -0.11209  0.08544  0.05425  0.40854  1.14888  2.02651  2.38762
  2.30421  2.65775  0.84980 -0.58949 -1.42718 -1.56969 -1.12474 -0.27600
  0.57048  0.92694  0.75506  0.36313  0.41248 -0.25267 -0.29508 -0.30702
  0.15784  0.16124  0.21528  0.19125  0.52652  1.17640  2.01822  2.39523
  2.25697  1.97743  0.85670 -0.29822 -0.64315 -0.71138 -0.30686  0.45873
  0.81134  1.29671  1.19500  0.84969  0.46708  0.29043  0.21746  0.16500
  0.89392  0.71753  0.57115  0.43890  0.76485  1.44400  2.31824  2.67943
  2.58376  2.16804  1.23014  0.82763 -0.51969 -0.73656 -0.32147  0.44935
  1.20995  1.60156  1.65872  1.41868  1.06413  0.88918  1.40765  0.89807
  1.39127  1.14527  0.83908  0.62088  1.03137  2.44461  3.61122  3.03639
  2.93037  2.34216  1.25412  0.23792 -0.42524 -0.47841  0.12423  0.77695
  1.18318  1.45904  1.64051  1.57482  1.43824  1.35338  1.42422  1.50599
  1.03940  0.78129  0.55141  0.59044  1.11541  1.93195  3.28135  3.10600
  2.87709  2.08673  0.97761 -0.07189 -0.55989 -0.15343  0.59138  0.86483
  1.13795  1.36979  1.55187  1.49198  1.31001  1.19377  1.27168  1.26717
  0.31570  0.32645  0.43538  0.89961  1.65773  2.35060  2.92667  3.00795
  2.52682  1.60328  0.45969  0.23113 -0.28882  1.23655  1.15894  1.54835
  1.88547  1.93525  1.86074  1.72151  1.65432  0.72519  0.57772  0.96376
  0.01270  0.24227  0.76959  1.64854  2.60813  3.46061  3.69061  3.18918
  2.22863  1.15788  0.39483  0.21073  0.68040  2.18832  1.80572  2.24818
  2.70988  2.86880  2.79105  2.41410  2.01156  0.35940  0.00000  0.00646
  0.35073  0.90201  2.00003  3.08122  4.18056  4.93815  4.63514  3.60238
  2.75114  1.43898  1.23584  1.46770  2.07827  2.18651  2.36403  2.96159
  3.67909  4.13912  4.10653  3.18582  1.51669  0.18861 -0.06191  0.04962
  1.53826  2.58483  4.03310  5.05092  6.11295  6.14815  5.20647  3.81976
  2.76531  2.50097  2.69420  2.97134  2.67683  2.45579  2.69794  3.72189
  4.88760  5.73443  5.25225  3.32794  1.50262  0.37839  0.90315  0.93349
  3.53826  4.97003  5.16584  4.77571  4.97699  4.94501  4.73810  4.10406
  3.72549  4.11352  4.26970  3.27545  2.15952  2.71722  2.87070  4.71124
  5.93638  5.07391  4.12244  2.88828  2.59390  1.43687  1.95877  2.78313
  5.77443  4.46997  3.56825  3.21013  3.29175  3.88737  4.64985  4.86020
  5.40449  5.58649  3.52430  1.95498  2.12058  1.64132  3.18061  4.76232
  4.12981  3.48929  3.28524  2.96613  2.82022  3.09461  3.81784  4.80706
  4.81125  3.11064  2.19879  1.79413  2.26340  3.62230  5.03506  6.19526
  6.42134  4.54813  2.74872  2.01212  1.67501  2.46391  3.72853  3.32011
  2.54393  2.64930  4.53517  3.65435  4.11000  4.43677  5.16380  5.36330
  2.40638  1.42733  0.83483  0.72279  1.83113  3.87438  5.88103  6.54537
  5.44021  4.07584  2.89687  2.46565  2.57255  2.85706  2.48850  1.54075
  1.55152  2.30832  3.47039  4.36402  4.62076  5.24285  4.48773  3.44960
  1.10697  0.48844  0.05413  0.22301  1.84021  4.72185  5.44366  5.35532
  4.78976  3.85091  3.07756  2.70321  2.41981  1.79438  0.82855  0.52195
  1.15697  2.28904  3.44297  4.00628  3.92284  3.44623  2.77364  1.79239
  0.57707  0.21457  0.12757  0.11426  1.68939  3.35709  3.67419  3.88209
  3.86371  3.22634  2.49647  1.84377  1.15687  0.09138 -0.36996 -0.04023
  1.02408  2.05775  2.68926  2.74955  2.42499  2.04678  1.55711  1.00697
  0.05163  0.00299 -0.17038  0.08753  1.18689  2.24636  2.73093  2.76323
  2.65887  2.14045  1.40562  0.50704 -0.61236 -1.29634 -1.05969 -0.13291
  0.96124  1.48528  1.46883  1.23917  0.87082  0.57255  0.35700  0.19011
 -0.10233  0.05477 -0.00840  0.09387  0.67551  1.37869  1.72925  1.53428
  1.31553  0.82680  0.14475 -0.97642 -1.85541 -1.92868 -1.09786  0.07237
  0.91454  0.97238  0.58573  0.26675 -0.11967 -0.34550 -0.35246 -0.32802
  0.52160  0.15688 -0.09909 -0.06538  0.41444  1.10954  1.57762  1.58789
  1.28279  0.65634 -0.44715 -1.51329 -2.08018 -1.90600 -1.01779  0.15231
  0.91178  1.43560  0.45842  0.08514 -0.30926 -0.44935 -0.25988 -0.05601
  0.17976  0.55827 -0.34578 -0.27097  0.25407  1.08656  1.80718  1.95109
  1.58890  0.72912 -0.40442 -1.34979 -1.91684 -1.87165 -0.98156  0.28439
  0.89099  0.90274  0.79523  0.40138  0.02081  0.00907  0.23280  0.31097
 -0.44608 -0.50159 -0.63851 -0.46568  0.06284  0.89854  2.27207  2.66185
  2.06789  0.75765 -0.37406 -1.13229 -1.70425 -1.63652 -0.60650  0.74288
  0.97450  0.83959  0.77625  0.54584  0.23025  0.14501  0.19838  0.06330
 -1.11297 -1.28309 -1.07056 -0.72163 -0.11182  1.28275  1.90578  2.41469
  1.97238  0.84092  0.11079 -0.94101 -1.15465 -0.94939  0.64316  0.56647
  0.70355  0.74958  1.63039  0.63838  0.25608  0.41040 -0.50836 -0.80252
 -1.72473 -1.92912 -1.10012 -1.05519 -0.10274  0.90677  2.05671  2.58075
  2.16667  1.05344  0.03573 -0.05773 -0.58287 -1.40318 -1.58072 -0.87231
  0.01980  0.51998  0.63491  0.37020 -0.25344 -0.90749 -1.16574 -1.34771
%FLAG CMAP_PARAMETER_10                                                         
%COMMENT  Leu CMAP                                                              
%FORMAT(8F9.5)                                                                  
 -0.86694 -0.26821  0.11903  0.36257  0.95573  1.67477  2.43156  2.60365
  2.27204  1.80613  1.46886  1.61233 -0.96663 -1.49770 -1.08239 -0.09973
  0.68400  0.98069  0.74771  0.20585 -0.44627 -0.94569 -1.07455 -1.03710
 -0.32646  0.18654  0.61372  0.67096  1.01304  1.68958  2.59064  2.69380
  2.62711  2.28315  1.55874 -0.12149 -1.21885 -1.44423 -0.97001 -0.05369
  0.80796  1.12834  0.84158  0.41540 -0.05618 -0.48333 -0.57243 -0.49018
 -0.00270  0.44349  0.67720  0.69907  0.96098  1.51827  2.31922  2.59766
  2.46815  2.10040  1.01494 -0.35138 -1.06078 -0.51379 -0.69064  0.13405
  0.94764  1.25044  1.05896  0.70807  1.27955  0.00478 -0.14861 -0.13199
  0.46773  1.06122  0.84151  0.87321  1.53577  2.26717  2.28379  2.61533
  2.48323  2.10062  0.99888 -0.16216 -0.70927 -0.70653 -0.29305  0.40855
  1.21244  1.57878  1.45953  1.15294  0.73992  0.44830  0.51887  0.42642
  1.08264  1.22032  1.01432  0.92883  1.19777  1.89909  2.63517  2.91989
  2.71483  2.15712  1.13870  0.10970 -0.35319 -0.45575 -0.07314  0.71696
  1.39933  1.70190  1.76612  1.54603  1.28907  0.96167  1.05593  0.99887
  1.28886  1.08719  1.25509  0.61945  1.07490  1.93759  3.19207  3.05501
  2.85024  2.25228  1.28855  0.30319 -0.32580 -0.33934  0.94330  1.01391
  1.36742  1.55398  1.68291  1.69903  1.58878  1.35670  1.38167  1.38984
  0.98482  0.77092  0.58293  0.75254  1.33157  2.19094  2.97361  3.31530
  2.98261  2.34181  1.68188  0.20860 -0.18920  0.15129  0.97347  1.18438
  1.41087  2.18263  1.74084  1.83977  2.49337  1.40782  1.29872  1.23230
  0.48495  0.51375  0.72118  1.16071  2.03516  2.76085  3.33781  3.33714
  3.21881  1.91348  0.71654 -0.06047  0.05722  0.95499  1.57463  1.97846
  2.20669  2.25753  2.16240  2.05082  1.46338  0.92763  0.63950  0.52464
  0.07954  0.44680  1.02424  2.02016  2.99245  3.73027  3.90871  3.36270
  2.34980  1.21384  0.31676  0.22259  0.86998  1.74017  2.65575  2.56314
  2.94846  3.04800  2.92362  2.53858  1.53008  0.44000  0.00000 -0.00769
  0.24993  1.09492  2.17567  3.43132  4.50566  5.05694  4.64546  3.50848
  2.15393  1.27464  0.97041  1.34987  2.11323  2.30548  2.56683  3.12183
  3.71616  4.15639  4.02019  3.11381  1.50702  0.51912 -0.20195 -0.08615
  1.52978  2.82371  4.12062  5.09490  6.15608  6.08176  5.03421  3.52597
  2.34959  2.18514  2.44731  2.85399  2.64346  2.42082  2.71715  3.68263
  4.79352  5.66725  5.08137  3.19151  1.34349  0.25042  0.36715  0.82954
  3.49877  5.10429  4.80281  4.54651  4.68704  4.66098  4.37663  3.68363
  3.39535  3.95518  3.96235  2.85930  2.21248  2.20453  2.53736  4.31396
  5.52110  4.69616  3.78755  2.61424  1.52261  1.35018  1.75048  2.53707
  5.65682  4.15269  3.35229  3.00261  3.08500  3.54523  4.16460  4.62833
  5.13779  5.01177  3.02054  1.47096  1.36914  1.36431  2.92161  6.08683
  3.79124  3.26901  3.87628  3.15138  2.56586  2.96443  3.52026  4.83005
  4.54702  3.10593  2.16146  1.79107  2.10872  3.47796  4.87594  5.92625
  6.01846  4.12483  2.27314  1.85210  1.40705  2.31574  3.63083  3.28348
  2.48395  2.41514  2.93210  3.56664  3.83230  4.13078  4.61915  5.21000
  2.54403  1.68952  0.97521  0.88413  2.02670  4.01998  5.83129  6.49399
  5.45501  4.03342  2.72981  3.04219  2.43764  2.97586  2.73313  1.73379
  1.55615  2.30112  3.86657  4.36600  4.57747  4.78312  4.62251  3.65331
  1.39094  0.80730  0.29380  0.53655  2.14327  4.35364  5.64162  5.52871
  4.81227  3.89474  3.02138  2.56961  2.36903  1.91970  1.04584  0.61644
  1.26738  2.48009  3.51320  4.14947  3.98350  3.59513  2.95805  2.05137
  0.59467  0.26702 -0.00118  0.34338  1.95569  3.71282  4.31538  4.26902
  3.93382  3.80334  2.45012  1.80769  1.23485  0.28708 -0.16539  0.11408
  1.10892  2.16939  3.27563  2.90643  2.66635  2.32593  1.63311  1.04332
 -0.00101 -0.07278 -0.15248  0.39936  1.35477  2.58696  2.88424  2.91922
  2.69118  2.08752  1.30318  0.53921 -0.47040 -1.05688 -0.84349  0.07495
  1.13508  1.90971  1.60384  1.52061  1.19284  0.82628  0.49692  0.18749
  0.52653 -0.01117  0.01170  0.35019  0.99208  1.68051  1.85145  1.71415
  1.38754  0.91039  0.24804 -0.73699 -1.51069 -1.53963 -0.72203  0.43100
  1.18026  1.23810  0.97321  0.69525  0.29409 -0.04217 -0.12688 -0.18077
  0.41738  0.42830  0.25395  0.41670  0.84705  1.54378  1.90242  1.75429
  1.39459  0.87970 -0.19758 -1.19662 -1.65765 -1.41581 -0.57110  0.57555
  1.30161  1.37911  1.15311  0.73096  0.18428  0.11942  0.12025  0.23185
  0.51056  0.47767  0.30339  0.39748  0.84570  1.55327  2.29045  2.38960
  1.92281  1.05703  0.33844 -0.94589 -1.40734 -1.22267 -0.28396  0.91594
  1.42889  1.47580  1.35177  1.37396  0.53214  0.53898  0.61490  0.64450
 -0.24761 -0.32226 -0.19849 -0.08985  1.01997  1.40580  2.20658  2.50290
  1.91878  0.83859 -0.21275 -0.98048 -1.44651 -1.19821  0.00869  1.25483
  1.43243  1.66446  1.63593  0.87150  0.53192  0.38847  0.31803  0.05867
 -0.50737 -1.45363 -0.79190  0.11592  0.23743  1.27007  2.22830  3.43018
  2.03991  0.82982 -0.28204 -0.30716 -1.28098 -0.47386  0.89069  1.08272
  1.18900  1.30124  1.20693  0.90441  0.47681 -0.17330 -0.62574 -1.08723
 -1.62255 -1.96136 -0.83933 -0.65406  0.11828  1.42624  2.54120  2.90447
  2.24826  1.86505 -0.18930 -0.85728 -0.87693 -1.06001 -1.16287  0.46816
  0.39155  1.80618  1.14253  0.79781  0.04909 -0.40498 -1.27362 -1.36635
%FLAG CMAP_PARAMETER_11                                                         
%COMMENT  PRO CMAP                                                              
%FORMAT(8F9.5)                                                                  
 -8.75751 -8.70567 -8.71923 -8.06498 -8.34855 -8.65942 -8.61255 -8.96343
 -8.72425 -8.73027 -8.00206 -8.69021 -8.28693 -8.65324 -8.82302 -8.18448
 -8.41685 -8.80151 -8.70094 -8.53053 -8.75377 -8.86638 -8.50509 -8.01082
 -8.77187 -8.73940 -8.66261 -8.90677 -9.06924 -8.63887 -7.81451 -7.16341
 -6.60542 -6.52662 -7.17952 -8.03381 -8.63601 -8.94480 -8.81277 -8.63859
 -7.86472 -6.93540 -7.11378 -7.02275 -7.31467 -7.34586 -7.17799 -7.85620
 -5.22647 -5.15037 -4.98780 -5.13754 -5.33451 -4.82744 -4.20622 -3.41249
 -2.98580 -3.06940 -3.72285 -4.71405 -5.39928 -5.45522 -5.23830 -4.83426
 -4.84841 -4.83945 -5.01358 -5.08121 -5.29478 -5.39394 -5.42201 -5.34520
 -2.63528 -2.61531 -2.23133 -2.09728 -2.35032 -1.81055 -1.14610 -0.43015
 -0.11029 -0.43642 -1.29900 -2.37678 -3.06813 -3.08683 -2.85132 -2.46945
 -2.09194 -2.00829 -2.13200 -2.22585 -2.45757 -2.72426 -2.91306 -2.79826
 -1.30630 -0.97037 -0.67553 -0.48439 -0.47298  0.09744  0.90710  1.67856
  1.78869  1.18509  0.10465 -0.95429 -1.77557 -2.02642 -1.80129 -1.30282
 -0.60900 -0.54189 -0.52494 -0.62734 -0.87227 -1.16429 -1.40325 -1.32862
 -0.28838 -0.29286 -0.05545  0.01374  0.18833  0.88685  1.88110  2.72301
  2.64392  1.80976  0.76838 -0.23772 -1.30866 -1.56111 -1.05594 -0.63462
 -0.27956 -0.12432  0.08300  0.08848  0.02441 -0.23536 -0.52571 -0.43355
 -0.10107 -0.10925  0.17861  0.46874  0.78386  1.52792  2.37292  3.19523
  2.94448  2.13146  1.04356 -0.13873 -0.96321 -0.82059 -0.33322 -0.30669
 -0.07750  0.24509  0.61203  0.77546  0.60883  0.16196  0.03025 -0.05960
  0.54240  0.73424  1.21584  1.97663  2.86196  3.36571  3.09521  2.89786
  2.65306  1.94911  0.87427  0.10091  0.29512  0.69644  0.77609  0.93694
  1.20253  1.21190  1.23792  1.16370  0.89360  0.32899  0.02924  0.15816
  0.93117  1.89831  2.92739  3.90919  4.66028  4.79265  4.30774  3.45574
  2.67462  1.77740  1.02956  0.85500  1.12685  1.40005  1.65428  2.00981
  2.49411  2.77553  2.72653  2.29924  1.30209  0.28787  0.00000  0.23904
  1.71372  3.17069  4.47459  5.34819  5.66978  5.61442  4.66872  3.50429
  2.46608  1.90184  1.95424  1.90806  1.75946  1.84931  2.08092  2.58532
  3.47075  4.05526  4.07457  2.94449  1.37584  0.18263  0.14274  0.72321
  2.93154  4.65664  5.81638  5.77271  5.70953  5.47038  4.31047  3.14909
  2.37257  2.54260  2.89806  2.29096  1.86624  1.70493  2.04297  2.91863
  4.12444  5.04419  4.44552  2.74661  1.09914  0.24758  0.62132  1.60919
  4.28791  5.74420  5.79671  5.16803  5.05413  4.48695  3.37932  2.59405
  2.54381  3.52801  3.10085  2.02404  1.30444  1.50932  1.70696  3.20804
  4.77364  5.01717  3.51828  1.80915  0.72960  0.85032  1.61355  2.81248
  5.10022  5.11605  4.30598  3.92413  3.37917  2.64150  2.42733  2.53172
  3.38712  3.74798  2.16043  0.80717  1.21776  0.25145  1.73628  3.39163
  4.52876  3.45959  2.15509  1.19505  1.15898  1.90043  2.79231  3.88367
  4.45196  3.70029  2.61706  1.82299  1.19526  1.47132  2.04669  2.98560
  3.87614  2.64572  0.79215  1.29417  0.57185  0.44864  1.83164  3.09417
  2.59096  1.51855  0.91401  1.05809  1.68925  2.43878  3.18205  4.00826
  2.72163  1.41184  0.04207 -0.81206 -0.92504  0.08798  1.44907  2.62605
  2.40258  0.87505 -0.68969 -1.36527 -0.96444 -0.10768  0.99527  0.71308
 -0.24748 -0.63365 -0.44523  0.32710  0.80503  1.32881  2.15503  3.28238
 -0.80511 -2.39777 -3.83456 -4.33430 -3.48052 -1.75445 -0.19983  0.60207
  0.06551 -1.07531 -2.16209 -2.48329 -2.40715 -2.05247 -2.16609 -3.19586
 -3.38809 -3.09350 -2.19949 -1.30642 -0.63336  0.28617  1.31525  0.58937
 -5.49419 -6.90233 -7.85445 -7.71328 -6.35345 -4.49678 -3.09411 -2.51174
 -2.73237 -3.57215 -4.35013 -5.04409 -5.50375 -5.86022 -6.64301 -6.80004
 -6.39815 -5.56010 -4.50638 -3.48952 -2.65640 -2.09936 -2.59104 -3.94783
 -4.95323 -5.81966 -5.21125 -5.74444 -5.56540 -5.11652 -5.21104 -6.68459
 -6.75332 -7.34507 -8.14475 -9.01762 -9.61284 -8.18605 -8.21980 -9.51019
 -8.69486 -8.13634 -7.49936 -6.76770 -5.79355 -6.63124 -7.48945 -8.89257
 -8.90818 -8.48907 -8.42313 -8.89309 -8.14630 -8.36733 -8.05899 -8.97334
 -8.08182 -8.40152 -8.88712 -8.44094 -8.96945 -8.84838 -8.06274 -8.04221
 -8.38659 -8.26564 -8.16867 -8.07604 -8.18975 -8.58300 -8.97423 -8.27557
 -8.58467 -8.84753 -8.42340 -8.80513 -8.29742 -8.94947 -8.12015 -8.36778
 -7.35387 -7.32522 -7.79483 -7.29000 -7.55762 -7.16439 -7.06554 -7.93809
 -7.42050 -7.29676 -7.26130 -7.35832 -7.63448 -7.16499 -7.15108 -7.79839
 -7.17886 -7.19451 -7.53222 -7.90130 -7.37702 -7.15717 -7.90496 -7.29665
 -7.60628 -7.95815 -7.07987 -7.00555 -7.24586 -7.75344 -7.50631 -7.32424
 -6.60700 -6.05537 -6.57198 -6.36398 -6.84789 -6.00007 -6.26382 -6.37899
 -6.97565 -6.79895 -6.81045 -6.38845 -6.75665 -6.50745 -6.34555 -6.97905
 -6.70335 -6.63155 -6.02445 -6.00075 -6.42685 -6.08775 -6.30235 -6.08385
 -4.99155 -4.10475 -4.44005 -4.52855 -4.24195 -4.38705 -4.89415 -4.12825
  0.72785  0.44055  0.25525  0.57015  0.50715  0.31935  0.02685  0.77055
  2.06855  1.95315  2.33365  3.28115  3.15315  4.20805  4.71215  4.07005
  8.99895  8.18825  9.28555  8.47075  7.81095  7.54885  7.86895  8.54445
  8.57285  8.51105  8.06095  8.24775  8.25665  8.34635  8.39995  8.38805
  8.69225  8.43795  8.69725  8.90195  8.97545  8.99285  8.67585  8.52795
  8.32625  8.65405  8.95355  8.25755  8.60965  8.25845  8.46825  8.12375
%FLAG CMAP_INDEX                                                                
%FORMAT(6I8)                                                                    
       5       7       9      29      31      10
      29      31      33      45      47       5
      45      47      49      59      61       4
      59      61      63      76      78      10
      76      78      80     100     112       8
     102     127     129     135     137       2
     135     137     139     142     144       1
     142     144     146     161     169      10
     163     178     180     187     189       3
     187     189     191     211     213       8
     211     213     215     222     224       3
     222     224     226     229     231       1
     229     231     233     236     238       1
     236     238     240     252     254       5
     252     254     256     268     270       5
     268     270     272     290     292       9
     290     292     294     304     306       6
     304     306     308     318     320       6
     318     320     322     338     340      10
     338     340     342     354     356       5
     354     356     366     368     370      11
     368     370     372     382     384       4
     382     384     386     394     396       7
     394     396     398     410     412       5
     410     412     414     417     419       1
     417     419     429     431     433      11
     431     433     435     451     453      10
     451     453     455     461     463       2
     461     463     465     481     483      10
