default_name
 48491
  42.3647548  23.9063025  66.7564546  41.7820820  24.1189429  65.8601419
  41.4114674  23.1852576  65.4370877  42.4120243  24.6241784  65.1280156
  40.6040820  25.0059429  66.1761419  40.3700820  25.4109429  67.3041419
  39.8740820  25.3109429  65.0911419  39.9991812  24.8279380  64.2129871
  38.8830820  26.4029429  65.1541419  38.1341126  26.2070786  65.9214627
  39.6270820  27.7019429  65.5131419  38.8868162  28.5014965  65.4845124
  40.0841127  27.6658830  66.5020416  40.7220820  28.0909429  64.5441419
  41.0880820  27.4559429  63.4271419  40.4616480  26.5953953  63.1923270
  42.1630820  28.0119429  62.8151419  42.6717526  27.7331814  61.9883131
  42.4880820  29.0599429  63.6321419  43.5860820  29.8869429  63.4791419
  44.2342509  29.7664329  62.6111251  43.7820820  30.8159429  64.4501419
  44.6755129  31.4385827  64.4032293  42.8810820  31.0009429  65.5041419
  43.0239393  31.7917085  66.2406071  41.7920820  30.1899429  65.6381419
  41.1243791  30.3213955  66.4896075  41.6260820  29.1829429  64.6941419
  38.1150820  26.6039429  63.8661419  38.5870820  26.3989429  62.7581419
  36.8770820  27.0679429  64.0781419  36.4468650  27.0616201  64.9919103
  36.1230820  27.6459429  62.9571419  36.5301764  27.3178450  62.0007293
  34.6780820  27.1289429  63.0801419  34.6740704  26.1102223  63.4678164
  33.9250820  28.0499429  64.0531419  33.9282708  29.0688269  63.6658873
  32.8964663  27.7049976  64.1583219  34.4156989  28.0301382  65.0262835
  33.9420820  27.1439429  61.7291419  34.4710382  26.5077125  61.0195516
  32.9267008  26.7711602  61.8638034  33.9063400  28.1635994  61.3455746
  36.0780820  29.1619429  62.9991419  35.5340820  29.8249429  62.1331419
  36.6430820  29.6889429  64.0971419  37.0712670  29.1108086  64.8060267
  36.4910820  31.1279429  64.3681419  35.4279780  31.3496930  64.2746758
  36.9840820  31.6449429  65.7351419  36.6702472  30.9335655  66.4990465
  38.5150820  31.8049429  65.7811419  38.8296425  32.5165732  65.0177720
  38.8132863  32.1711904  66.7635044  38.9874715  30.8404703  65.5947513
  36.3810820  32.9239429  65.9871419  36.6803263  33.2570496  66.8363139
  37.0780820  31.9959429  63.2791419  36.6210820  33.0939429  63.0041419
  38.1270820  31.4219429  62.6691419  38.5968659  30.6212693  63.0670417
  38.7670820  32.1169429  61.5441419  38.3080596  33.0931775  61.3880536
  40.2580820  32.3199429  61.8601419  40.6904632  31.4217727  62.3010910
  40.8366890  32.6078754  60.9824125  40.4320820  33.4269429  62.8751419
  39.4000820  34.1549429  63.4071419  38.4246046  34.0403509  63.1717440
  39.8930820  35.0229429  64.2711419  39.2107838  35.6910985  64.7966285
  41.2120820  34.9019429  64.3331419  41.5330820  33.8949429  63.4481419
  42.5736410  33.6004310  63.3117566  38.4320820  31.4969429  60.2031419
  39.0850820  31.6629429  59.1831419  37.3120820  30.7629429  60.2781419
  36.9950309  30.4174704  61.1726958  36.5770820  30.3519429  59.0711419
  37.2308701  30.5776870  58.2287050  36.1290820  28.8759429  58.9671419
  35.5409680  28.6401762  59.8540664  35.5035577  28.7765292  58.0800476
  37.3210820  27.9019429  58.8671419  38.0667414  28.3656801  58.2213550
  37.7315104  27.7861254  59.8702555  36.9430820  26.5159429  58.3031419
  36.4923451  26.6743306  57.3234233  37.8659258  25.9469851  58.1902440
  36.0160820  25.7449429  59.1251419  35.0451767  25.7146123  58.8485153
  36.3910820  25.0789429  60.2471419  37.6470820  25.1239429  60.7451419
  38.3537002  25.6723155  60.2760169  37.8731572  24.6089856  61.5840749
  35.4770820  24.3239429  60.8951419  34.5332546  24.2640291  60.5405996
  35.7417645  23.8228588  61.7311781  35.3720820  31.2549429  58.9161419
  35.1260820  31.8139429  57.8661419  34.7230820  33.8359429  59.6221419
  34.4100820  34.4379429  58.6031419  33.9220820  32.6959429  60.2551419
  33.7720820  32.8629429  61.7981419  32.5000820  32.6139429  59.6361419
  31.8260820  33.9789429  59.3181419  32.0200820  35.0919429  60.3761419
  32.0680820  36.5339429  59.9071419  31.7760820  37.1469429  58.7741419
  31.1380820  36.6379429  57.5071419  34.6750820  31.4439429  60.0491419
  33.7427538  33.8976600  62.0998315  34.5948996  32.3817004  62.3116237
  32.8477318  32.3948943  62.1172383  31.8777837  32.0721170  60.3461204
  32.5557011  32.0242585  58.7305051  30.7670111  33.8294800  59.1515026
  32.2526094  34.3330296  58.3852957  32.9210783  34.8770187  60.9500124
  31.1853122  34.9477678  61.0536017  32.4314992  37.1471534  60.7176750
  32.0139284  38.1968944  58.7239510  30.8295459  37.4819460  56.8944220
  30.2293254  36.1130955  57.7633875  34.5963219  30.7760150  60.7808129
  35.8420820  34.1199429  60.3001419  36.1660425  33.5653176  61.0795903
  36.5350820  35.3799429  60.0071419  35.7555905  36.1410742  59.9729191
  37.5180820  35.7319429  61.1421419  38.3096090  34.9836716  61.1830719
  37.9551995  36.7125400  60.9538392  36.9851884  35.7487556  62.0928474
  37.1840820  35.3799429  58.6361419  37.1440820  36.3309429  57.8701419
  37.7770820  34.2119429  58.3461419  37.7653903  33.4269822  58.9815940
  38.4730820  34.0569429  57.0581419  39.1165774  34.9270801  56.9282416
  39.0867612  33.1585924  57.1249519  37.5550820  33.9389429  55.8581419
  37.8950820  34.2539429  54.7281419  36.3410820  33.4689429  56.1761419
  36.1121247  33.1735315  57.1144436  35.3150820  33.3259429  55.1291419
  35.7611977  32.8051311  54.2818904  34.0700820  32.5399429  55.5911419
  34.4012882  31.5059189  55.6870378  33.7790265  32.9199877  56.5704032
  32.8600820  32.6059429  54.6331419  32.5887886  33.6529424  54.4978914
  33.1750820  31.9759429  53.2621419  33.4460306  30.9287456  53.3965423
  32.2969036  32.0439648  52.6200543  34.0053890  32.5089665  52.7989179
  31.6780820  31.8729429  55.2941419  31.4324683  32.3570012  56.2393725
  30.8123713  31.9081527  54.6327748  31.9515594  30.8340961  55.4788214
  34.8510820  34.6659429  54.6141419  35.2765052  35.7064609  55.1109091
  35.5790820  37.8739429  55.1311419  35.5280820  39.0949429  55.0911419
  34.3610820  36.9799429  55.2851419  33.6450820  37.2579429  53.9511419
  33.3630820  37.3479429  56.4031419  32.1280820  36.4189429  56.3531419
  34.7790820  35.5949429  55.5791419  33.5384483  38.3123028  53.7524695
  32.6593444  36.8100500  53.9513535  34.2201156  36.8213949  53.1423912
  33.0410401  38.3704824  56.2144567  33.7930216  37.3163055  57.3956891
  31.2265895  37.0170383  56.3166442  32.0808332  35.8189787  57.2560902
  35.0989718  35.4359554  56.5065399  36.6850820  37.1509429  54.8901419
  36.7808807  36.2083324  55.2400096  37.7750820  37.7059429  54.0761419
  37.6721891  38.7887770  54.0055551  39.1320820  37.3829429  54.7161419
  39.1767147  37.8059759  55.7197106  39.2660820  36.3026286  54.7715045
  40.1750820  37.9539429  53.9091419  41.0282968  37.7565988  54.3024353
  37.8260820  37.1259429  52.6711419  38.7590820  37.3429429  51.9091419
  36.7760820  36.3399429  52.3801419  36.0392925  36.1885731  53.0541803
  36.7060820  35.6219429  51.0961419  37.5110518  35.9192489  50.4240317
  36.8630820  34.1209429  51.4201419  37.7451813  34.0034731  52.0495869
  35.9787083  33.8018867  51.9716727  37.0180820  33.2539429  50.1491419
  36.6620959  33.8317683  49.2962102  38.0760626  33.0270901  50.0175477
  36.2180820  31.9369429  50.2481419  35.1753438  32.1723517  50.4611647
  36.2840580  31.4112538  49.2955677  36.7240820  31.0629429  51.3001419
  36.2633920  31.0786201  52.1988177  37.7790820  30.2279429  51.1281419
  38.4840820  30.1629429  49.9751419  38.2291183  30.7540725  49.1969008
  39.2621273  29.5235847  49.8979000  38.1470820  29.4289429  52.1521419
  37.6375527  29.4629741  53.0235326  38.9302719  28.8007436  52.0422413
  35.4660820  35.8219429  50.2361419  35.5340820  35.9319429  49.0221419
  34.3000820  35.7829429  50.9021419  34.2446456  35.6934485  51.9066402
  33.0460820  35.7819429  50.1311419  33.1253037  36.3645328  49.2133118
  32.7960820  34.3139429  49.7601419  32.5345937  33.7508158  50.6560275
  31.9783267  34.2534503  49.0420076  33.9850820  33.7609429  49.1781419
  33.8301590  32.8425274  48.9455229  31.8020820  36.3769429  50.7541419
  30.6820820  35.9109429  50.6101419  32.0600820  37.5019429  51.4291419
  33.0002978  37.8222960  51.6120834  30.9370820  38.3119429  51.9291419
  30.1177627  37.6419014  52.1896403  31.2668278  38.8455195  52.8205807
  30.4480820  39.3129429  50.9101419  29.3380820  39.8189429  50.9591419
  31.3480820  39.5549429  49.9441419  32.2573598  39.1156735  49.9252806
  31.0060820  40.4939429  48.8681419  30.5802411  41.3860424  49.3273990
  31.9283391  40.7574423  48.3503491  30.0210820  39.9389429  47.8661419
  29.6180820  40.5909429  46.9161419  29.6480820  38.6809429  48.1481419
  30.1491085  38.1213454  48.8233622  28.5790820  38.0389429  47.3651419
  28.8184086  38.0461100  46.3017649  28.3880820  36.5719429  47.8191419
  28.3129052  36.5531727  48.9063840  27.1170820  35.9539429  47.2061419
  27.1917292  35.9719403  46.1188494  27.0134121  34.9233788  47.5456867
  26.2455097  36.5286151  47.5195350  29.6020820  35.7059429  47.4161419
  30.5031290  36.1021734  47.8843489  29.4426887  34.6796091  47.7467962
  29.7182839  35.7241041  46.3325054  27.2840820  38.8329429  47.3991419
  26.4330820  38.7639429  46.5231419  27.1850820  39.6189429  48.4821419
  27.8681765  39.5973766  49.2257925  26.0110820  40.4899429  48.6391419
  25.4458494  40.5350753  47.7082422  25.0830820  39.9589429  49.7551419
  25.6390186  39.9231402  50.6920260  23.8570820  40.8799429  49.9201419
  23.3003497  40.9158853  48.9837348  23.2139753  40.4916566  50.7099191
  24.1892023  41.8841405  50.1835519  24.5940820  38.5339429  49.4341419
  25.4512407  37.8664820  49.3453897  23.9428905  38.1836882  50.2349983
  24.0416003  38.5418710  48.4945665  26.4190820  41.9239429  48.9251419
  26.6690820  42.3439429  50.0471419  26.4300820  42.6869429  47.8231419
  26.1888699  42.3169277  46.9148441  26.7390820  44.1189429  47.9321419
  26.7397560  44.4404151  48.9736573  28.1460820  44.3499429  47.3441419
  28.1423436  44.0110814  46.3081601  28.3572687  45.4188290  47.3754878
  29.2290820  43.5909429  48.1271419  29.1631571  43.8816643  49.1755863
  29.0357228  42.5222702  48.0341203  30.6430820  43.9059429  47.5941419
  30.7793583  44.9865635  47.6364127  31.3614619  43.4234603  48.2568940
  30.8680820  43.4149429  46.1461419  31.8171305  42.8812743  46.0950983
  30.0574622  42.7408983  45.8692692  30.8970820  44.5829429  45.1941419
  31.6484240  45.2074318  45.4502640  31.0446518  44.2467619  44.2532351
  30.0176042  45.0773362  45.2409723  25.7380820  44.8789429  47.0931419
  24.8680820  44.3149429  46.4471419  25.9340820  46.2069429  47.0981419
  26.3868193  46.6817002  47.8660831  25.4360820  47.0179429  45.9701419
  24.4218138  47.3580334  46.1791817  26.3370820  48.2549429  45.7541419
  26.3622543  48.4848872  44.6889700  25.9471295  49.1131278  46.3014586
  27.7510820  47.9829429  46.2241419  28.5020820  47.1959429  45.6721419
  28.0880820  48.6719429  47.3211419  29.0104376  48.5637641  47.7182028
  27.4184717  49.2968631  47.7468148  25.3620820  46.2319429  44.6751419
  24.3670820  46.2079429  43.9661419  26.4930820  45.5589429  44.4181419
  27.3133444  45.6526278  44.9999427  26.5560820  44.6519429  43.2701419
  25.6149177  44.1241043  43.1162093  26.8310820  45.5389429  42.0381419
  27.1964735  44.9020806  41.2325397  25.9022944  46.0182946  41.7288274
  27.8620820  46.6129429  42.3111419  27.5770820  47.7959429  42.4111419
  29.1080820  46.1339429  42.4191419  29.8747011  46.7657733  42.6013106
  29.2754443  45.1430611  42.3179294  27.6650820  43.6309429  43.4281419
  28.7020820  43.8669429  44.0241419  27.4150820  42.4709429  42.8081419
  26.5216388  42.2583857  42.3878112  28.4420820  41.4219429  42.8281419
  29.4214463  41.8486365  43.0446535  28.0930820  40.3999429  43.9341419
  28.1309252  40.8965230  44.9037167  27.1011979  39.9739512  43.7831554
  29.0620820  39.2309429  44.0061419  30.3440820  39.4039429  44.4811419
  30.6574270  40.3848572  44.8385239  31.2260820  38.3489429  44.5061419
  32.2396077  38.4921765  44.8807759  30.8270820  37.1109429  44.0571419
  31.5240064  36.2729811  44.0718524  29.5460820  36.9319429  43.5891419
  29.2281289  35.9506062  43.2370278  28.6670820  37.9889429  43.5651419
  27.6518035  37.8451799  43.1954913  28.5280820  40.8329429  41.4341419
  27.6570820  41.0229429  40.5981419  29.6580820  40.1449429  41.2151419
  30.3718589  40.0577165  41.9243763  29.8940820  39.5169429  39.9091419
  29.0017059  39.5476812  39.2839865  31.0330820  40.2659429  39.1811419
  31.9454640  40.1896482  39.7726124  31.2710820  39.6509429  37.7891419
  30.3592124  39.7272899  37.1968870  32.0758907  40.1877750  37.2869519
  31.5468032  38.6019349  37.8971315  30.7020820  41.7639429  39.0271419
  30.5659563  42.2096617  40.0124878  31.5206004  42.2663068  38.5116249
  29.7853537  41.8763728  38.4482900  30.2600820  38.0559429  40.1031419
  31.4130820  37.7059429  40.3131419  29.2270820  37.1939429  40.0031419
  27.8120820  37.5979429  39.9571419  27.5074506  37.8589761  38.9436521
  27.6188778  38.4396444  40.6222056  27.1610820  36.2999429  40.4521419
  26.1395367  36.2219056  40.0800474  27.1535335  36.2711039  41.5417348
  28.0500820  35.1909429  39.8821419  27.7958206  34.9963002  38.8402377
  27.9714343  34.2661332  40.4536672  29.4820820  35.7459429  39.9761419
  29.9611083  35.4861782  40.9201517  30.3580820  35.2929429  38.8241419
  30.9130820  36.0639429  38.0551419  30.4400820  33.9569429  38.7381419
  29.8410129  33.3509204  39.2803155  31.4350820  33.3399429  37.8501419
  31.9820046  34.0698905  37.2533577  32.4320820  32.6209429  38.7861419
  31.8827228  31.9211613  39.4159120  33.4830820  31.8599429  37.9751419
  34.0331991  32.5591775  37.3454263  34.1750520  31.3609663  38.6535953
  32.9907239  31.1168269  37.3478759  33.1010820  33.5599429  39.6411419
  33.7142125  33.0918847  40.2126249  30.7630820  32.3709429  36.8941419
  29.7290820  31.7849429  37.1761419  31.4060820  32.2349429  35.7221419
  32.2456333  32.7500512  35.4987219  30.8430820  31.3379429  34.6971419
  29.7566877  31.3215151  34.7841862  31.2160820  31.8139429  33.2811419
  31.0578880  32.8907725  33.2218806  32.2706589  31.5925789  33.1169298
  30.3870820  31.1249429  32.2241419  29.7370820  30.0799429  32.5781419
  30.3940820  31.6459429  31.0571419  31.2960820  29.8999429  34.8591419
  32.4740820  29.5789429  34.9271419  30.2740820  29.0309429  34.8961419
  29.3196968  29.3299985  34.7553801  30.5210820  27.6179429  35.2271419
  31.5364652  27.3054439  34.9833374  30.2850820  27.3959429  36.7421419
  30.4015541  26.3339723  36.9583642  31.2850820  28.2069429  37.5941419
  31.1688810  29.2691215  37.3787934  31.0910917  28.0278071  38.6516761
  32.3022853  27.8972854  37.3543267  28.8460820  27.7679429  37.1541419
  28.1382126  27.1496136  36.6021529  28.7185573  27.5989859  38.2233896
  28.6630672  28.8185018  36.9284599  29.6500820  26.7009429  34.3851419
  29.0450820  25.7329429  34.8201419  29.6000820  27.0899429  33.1021419
  30.1985498  27.8207584  32.7445886  28.6550820  26.4469429  32.1761419
  28.3417485  25.4939122  32.6023506  27.7863565  27.0945411  32.0576858
  29.2740820  26.1989429  30.8161419  30.4180820  26.5469429  30.5781419
  28.4780820  25.5749429  29.9231419  27.0800820  25.1789429  30.1541419
  26.6138928  25.7563474  30.9524976  26.9830692  24.1152406  30.3714548
  26.5350820  25.5449429  28.7661419  26.2732705  26.6028530  28.7466483
  25.6478905  24.9476819  28.5557332  27.6590820  25.2269429  27.7691419
  27.7741835  25.9562259  26.9672710  27.4284416  24.2511220  27.3417332
  28.9570820  25.1459429  28.5931419  29.3105259  24.1297081  28.7676197
  30.0200820  25.9289429  27.8541419  30.8090820  25.4019429  27.0851419
  29.9790820  27.2429429  28.1141419  29.2782425  27.6513278  28.7159268
  30.9010820  28.1429429  27.4081419  31.5017125  27.5795585  26.6940408
  30.1010820  29.2159429  26.6411419  29.5373106  29.8240761  27.3485562
  30.7612591  29.8571142  26.0570481  29.0880820  28.6299429  25.6661419
  27.7410820  28.6799429  25.9531419  27.4025281  29.1597718  26.8714258
  26.8250820  28.1279429  25.0871419  25.7608222  28.1679810  25.3191948
  27.2540820  27.5249429  23.9271419  26.5304403  27.0854805  23.2406178
  28.5970820  27.4769429  23.6341419  28.9362682  27.0025928  22.7132483
  29.5120820  28.0269429  24.5021419  30.5762800  27.9864593  24.2698842
  31.9070820  28.7219429  28.3791419  32.2480820  29.8959429  28.4081419
  32.3760820  27.7729429  29.1991419  32.0306083  26.8258236  29.1382127
  33.4080820  28.0729429  30.1941419  34.0709291  28.9116113  29.9811438
  32.6430820  28.3689429  31.4981419  31.9817601  27.5339586  31.7295606
  33.3533188  28.5060379  32.3135368  32.0521246  29.2765625  31.3752795
  34.2850820  26.8459429  30.3221419  34.1130820  25.8319429  29.6641419
  35.2600820  26.9759429  31.2301419  35.4275343  27.8366702  31.7313479
  36.2100820  25.8639429  31.4141419  36.5055480  25.4596290  30.4459842
  37.4740820  26.3679429  32.1451419  37.1878109  26.6980465  33.1437307
  38.1942643  25.5536343  32.2247602  38.2070820  27.5369429  31.4921419
  38.2370820  27.7339429  30.1261419  37.7152262  27.0330616  29.4745809
  38.9160820  28.8009429  29.5851419  38.9284537  28.9471862  28.5050676
  39.5790820  29.6829429  30.4061419  40.1195967  30.5289314  29.9815866
  39.5580820  29.4939429  31.7681419  40.0813117  30.1892485  32.4245572
  38.8750820  28.4249429  32.3021419  38.8585086  28.2729308  33.3813627
  35.6520820  24.6359429  32.1051419  36.3200820  23.6349429  32.3121419
  34.3620820  24.7589429  32.4451419  33.8996203  25.6273939  32.2170541
  33.9249146  23.9762709  32.9103397  30.9460113  36.3413833  29.0524083
  34.5648553  20.2552753  26.1954083  23.5520113  32.2342753  34.0854083
  21.6410113  50.4643833  40.2776493  50.8998553  36.7113833  72.0678903
  22.9330113  24.7892753  13.7711673  49.9438553  33.2072753  27.6164083
  42.5938553  18.0412753  74.4231313  15.7920113  41.6853833  56.9408903
  47.5498553  43.4543833  53.3736493  39.9578553  16.4401673  35.6496493
  32.0010113  35.2452753  74.3161313  21.3680113  16.6671673  33.0254083
  27.8260113  59.6894913  51.7406493  34.4828553  29.6452753  17.7354083
  49.8108553  17.8632753  67.0648903  24.5240113  22.9812753  64.7358903
  34.0360113  53.1143833  38.1416493  16.0490113  29.4152753  22.4214083
  41.3248553  46.3103833  67.2988903  38.1568553  38.1053833  70.5638903
  20.8280113  35.8632753  27.2944083  29.8700113  57.4654913  46.3786493
  30.2230113  17.2922753  32.1754083  30.9460113  17.8632753  67.0648903
  43.9828553  44.6193833  59.3388903  37.6188553  35.9393833  22.6714083
  47.5498553  24.9762753  72.3798903  18.9860113  21.7582753  20.4494083
  37.8908553  47.1763833  42.8806493  26.7130113  26.1502753  57.0098903
  32.8210113  22.2272753  15.7621673  45.5778553  26.1502753  57.0098903
  27.6450113  50.3393833  32.7924083  27.6450113  31.8612753  70.8048903
  20.3020113  48.1723833  51.3736493  42.2218553  18.6162753  27.1894083
  43.8628553  11.1781673  69.9898903  18.7720113  24.8652753  33.8844083
  47.5498553  43.4543833  72.3798903  51.8388553  29.9472753  28.8194083
  16.2440113  39.6003833  59.1778903  64.1006993  55.3154913  79.3131313
  63.8556993  55.8034913  78.6331313  64.9636993  55.2424913  79.2131313
  64.1916993  55.3764913  79.1981313  63.9096993  62.2314913  83.9841313
  63.3856993  62.8274913  84.3471313  64.3066993  61.8634913  84.6681313
  63.8906993  62.2654913  84.1391313  53.7786993  66.3714913  79.4401313
  53.3376993  66.4894913  80.1831313  53.4956993  65.5964913  79.1551313
  53.6716993  66.2744913  79.5081313  53.5216993  60.1634913  75.9471313
  52.7436993  60.3254913  75.5871313  53.5606993  59.2924913  75.9691313
  53.4126993  60.0584913  75.8971313  56.6606993  65.4264913  74.6191313
  56.2686993  65.0554913  73.9331313  56.5806993  64.8284913  75.2481313
  56.5906993  65.2834913  74.6101313  56.2876993  67.0674913  78.5191313
  56.8956993  66.8974913  79.1221313  55.5366993  66.9274913  78.9401313
  56.2666993  67.0214913  78.6701313  60.5696993  56.4024913  78.4681313
  60.4996993  57.0794913  77.9221313  61.3106993  56.0144913  78.2191313
  60.6686993  56.4454913  78.3501313  55.1786993  70.1584913  74.5961313
  55.6456993  70.2424913  73.8641313  55.6336993  69.5804913  75.0651313
  55.3146993  70.0854913  74.5571313  53.7186993  69.1064913  85.6951313
  53.8476993  68.8264913  86.5111313  53.1086993  68.5654913  85.3861313
  53.6476993  68.9854913  85.7701313  55.1646993  63.6274913  79.8971313
  54.7026993  63.2354913  79.2701313  55.8646993  63.1144913  79.9891313
  55.1996993  63.4944913  79.8181313  59.6726993  59.2374913  85.2441313
  60.3506993  59.2554913  84.6951313  59.6276993  58.4014913  85.4891313
  59.7656993  59.1164913  85.1991313  57.1656993  61.7274913  79.9201313
  57.9826993  61.5404913  80.1631313  56.6886993  61.1134913  80.3161313
  57.2156993  61.6094913  80.0151313  61.3696993  67.7084913  82.5301313
  61.7176993  66.9094913  82.5601313  62.0346993  68.2124913  82.2751313
  61.5196993  67.6644913  82.4971313  61.4266993  67.1574913  78.7411313
  61.7576993  66.5134913  79.2271313  61.6666993  66.9464913  77.9301313
  61.5106993  67.0314913  78.6931313  57.7626993  56.8214913  79.1861313
  57.4666993  57.3224913  78.5361313  58.6296993  56.8994913  79.1291313
  57.8466993  56.9074913  79.0821313  60.7416993  55.9634913  81.4091313
  60.8146993  56.8234913  81.5381313  60.7036993  55.8884913  80.5411313
  60.7466993  56.0794913  81.3001313  65.4146993  58.8894913  73.7081313
  64.9646993  59.5704913  74.0151313  65.5286993  58.3854913  74.4111313
  65.3656993  58.9154913  73.8571313  53.6206993  61.3884913  82.9101313
  53.3646993  62.2194913  82.8351313  52.9566993  61.0054913  83.3271313
  53.4846993  61.4544913  82.9611313  59.3706993  68.9424913  78.2901313
  58.7916993  68.6674913  78.8821313  59.9946993  68.3334913  78.3151313
  59.3776993  68.8124913  78.3811313  56.6496993  56.2054913  83.4011313
  56.1286993  55.5774913  83.0931313  57.2406993  55.7684913  83.8721313
  56.6606993  56.0474913  83.4251313  55.0756993  69.7684913  78.7411313
  55.7316993  69.1934913  78.7561313  55.4646993  70.5174913  78.5201313
  55.2306993  69.7934913  78.7111313  55.8936993  68.2554913  82.2411313
  56.3166993  67.8994913  81.5671313  56.2176993  67.8334913  82.9331313
  56.0036993  68.1404913  82.2441313  62.9316993  60.5044913  79.6241313
  63.2186993  60.2724913  78.8341313  63.6636993  60.5834913  80.0931313
  63.0816993  60.4814913  79.5771313  63.6536993  60.8434913  74.7451313
  63.9346993  61.6314913  74.9941313  62.8776993  61.0084913  74.3821313
  63.5806993  60.9844913  74.7281313  62.5126993  69.0144913  74.5611313
  62.3316993  69.5594913  75.2181313  63.2786993  69.3044913  74.2601313
  62.5986993  69.1384913  74.6141313  53.9736993  58.0784913  78.1841313
  53.8596993  57.2144913  78.2151313  53.4986993  58.3724913  78.8541313
  53.8866993  57.9944913  78.2871313  56.1156993  70.4884913  86.3991313
  55.4176993  69.9804913  86.5251313  56.3756993  70.2834913  85.5911313
  56.0506993  70.3834913  86.2981313  63.2776993  59.2864913  76.9291313
  62.7696993  58.6244913  76.6751313  63.3296993  59.7904913  76.2191313
  63.2106993  59.2634913  76.7871313  63.2776993  56.2274913  76.8201313
  62.8226993  55.8254913  76.1941313  64.0506993  56.3824913  76.4451313
  63.3246993  56.1914913  76.6721313  61.8756993  58.5944913  81.3421313
  61.9496993  59.1624913  80.6841313  61.9966993  59.0864913  82.0521313
  61.9036993  58.7514913  81.3501313  56.4836993  54.4174913  79.6901313
  57.0196993  55.1054913  79.6801313  56.4866993  54.1434913  78.8621313
  56.5626993  54.4784913  79.5661313  59.4396993  64.8504913  83.7151313
  59.6116993  64.6404913  84.5441313  58.7846993  64.3164913  83.4991313
  59.3686993  64.7404913  83.8061313  65.6676993  58.7644913  87.2301313
  65.5726993  59.0834913  88.0361313  65.0746993  58.1254913  87.1921313
  65.5656993  58.7164913  87.3441313  60.1896993  64.7884913  86.3051313
  60.2426993  65.6354913  86.5071313  59.9046993  64.4184913  87.0421313
  60.1556993  64.8584913  86.4431313  56.9316993  58.2274913  81.3441313
  57.2036993  57.7974913  80.6361313  56.7556993  57.5914913  81.9151313
  56.9456993  58.0704913  81.3241313  56.7556993  65.6544913  80.8931313
  57.6066993  65.5744913  80.7201313  56.3986993  64.9724913  80.4811313
  56.8286993  65.5414913  80.8061313  55.0726993  59.3294913  84.4261313
  55.9156993  59.5494913  84.3831313  54.6836993  59.9024913  83.8951313
  55.1396993  59.4464913  84.3411313  59.1236993  65.6614913  79.1281313
  59.8366993  66.1564913  79.2181313  59.3456993  65.0944913  78.5021313
  59.2616993  65.6504913  79.0491313  53.2796993  67.3044913  82.4481313
  52.6126993  67.7924913  82.7241313  53.9596993  67.8494913  82.4771313
  53.2816993  67.4564913  82.4931313  53.3456993  63.9884913  77.5511313
  53.1606993  63.1494913  77.7031313  54.0046993  63.9524913  76.9811313
  53.4156993  63.8594913  77.4891313  63.6466993  69.3644913  81.4551313
  63.1236993  69.9984913  81.1621313  63.9566993  69.0004913  80.7261313
  63.6146993  69.4044913  81.3041313  53.5176993  68.1524913  77.1261313
  54.0696993  68.7214913  77.4901313  53.2856993  67.6374913  77.7911313
  53.5646993  68.1604913  77.2781313  57.7216993  67.1524913  84.2151313
  58.1886993  67.4414913  84.8931313  58.2936993  66.6744913  83.7611313
  57.8756993  67.1244913  84.2481313  53.3476993  66.6014913  74.7541313
  54.1036993  66.1694913  74.8121313  53.3626993  67.1334913  75.4451313
  53.4616993  66.6164913  74.8651313  54.2876993  64.8224913  82.7591313
  54.7186993  64.6934913  82.0121313  54.0826993  65.6704913  82.7331313
  54.3206993  64.9284913  82.6451313  60.6336993  58.3864913  76.4091313
  60.6316993  58.2694913  75.5441313  60.4526993  59.2344913  76.5011313
  60.6066993  58.4944913  76.2951313  58.3716993  68.3384913  81.0411313
  58.4976993  69.1814913  81.2281313  59.0396993  67.9394913  81.4371313
  58.4896993  68.4044913  81.1271313  56.9866993  61.2184913  76.0431313
  56.8586993  60.7704913  76.7811313  56.4046993  60.8764913  75.4911313
  56.8816993  61.1014913  76.0711313  57.1536993  63.0484913  82.6421313
  56.3726993  62.9894913  82.2591313  57.2256993  62.2964913  83.0791313
  57.0486993  62.9294913  82.6501313  57.5836993  62.7854913  86.1101313
  57.6086993  62.1104913  85.5591313  56.9376993  63.2814913  85.7981313
  57.4926993  62.7584913  85.9831313  64.1236993  56.4044913  87.9351313
  64.2726993  55.5794913  87.6921313  64.5026993  56.4594913  88.7191313
  64.2016993  56.2904913  88.0151313  62.2536993  59.9374913  83.7421313
  62.7336993  60.6364913  83.9501313  62.6266993  59.2904913  84.1931313
  62.3796993  59.9454913  83.8391313  64.4426993  63.1064913  76.0161313
  64.4346993  63.8284913  75.5261313  63.8036993  63.2414913  76.5931313
  64.3476993  63.2334913  76.0291313  65.4596993  70.0424913  83.8411313
  64.8566993  69.7464913  83.2841313  66.0046993  70.4944913  83.3321313
  65.4506993  70.0654913  83.6831313  65.4726993  66.8934913  83.2411313
  64.6756993  67.1174913  83.5151313  65.7306993  66.2994913  83.8261313
  65.3926993  66.8384913  83.3681313  59.0356993  55.4484913  75.6771313
  59.1326993  55.3414913  76.5381313  58.3276993  55.9544913  75.6121313
  58.9456993  55.5074913  75.7951313  56.1576993  63.7554913  76.9201313
  56.4816993  62.9764913  76.6981313  56.8036993  64.1234913  77.3751313
  56.3006993  63.6944913  76.9541313  64.4636993  64.6974913  87.6871313
  64.3086993  65.3074913  88.2911313  64.9976993  64.1394913  88.0931313
  64.5196993  64.7054913  87.8361313  53.1546993  55.4164913  77.8881313
  53.2836993  54.7084913  77.3961313  52.7876993  55.0984913  78.6131313
  53.1196993  55.2644913  77.9231313  62.8476993  63.0974913  78.3451313
  62.9066993  63.7474913  78.9241313  62.6586993  62.4014913  78.8361313
  62.8286993  63.0904913  78.5031313  57.3436993  57.6144913  74.8571313
  56.8326993  57.6674913  74.1511313  58.1276993  57.8544913  74.5611313
  57.3836993  57.6574913  74.7091313  62.0706993  65.1444913  82.7761313
  61.2236993  64.9504913  82.8571313  62.3946993  64.9794913  83.5691313
  61.9926993  65.0914913  82.9051313  55.9186993  64.8374913  85.0921313
  56.6406993  65.3254913  85.0551313  55.6486993  64.8074913  84.2631313
  55.9856993  64.9054913  84.9641313  59.1486993  60.0084913  81.8271313
  59.9946993  59.8184913  81.9251313  58.7786993  59.2314913  81.6891313
  59.2186993  59.8654913  81.8211313  53.9696993  61.3464913  78.4821313
  54.4586993  61.0544913  79.1431313  54.0986993  60.7534913  77.8551313
  54.0606993  61.2154913  78.4871313  58.4946993  62.7804913  73.9681313
  57.8846993  62.3754913  74.4421313  58.1086993  62.8984913  73.1951313
  58.3476993  62.7374913  73.9241313  59.9496993  61.2414913  76.6781313
  60.2216993  62.0674913  76.7451313  59.0866993  61.3164913  76.5821313
  59.8626993  61.3744913  76.6731313  53.4296993  57.2114913  83.2141313
  53.4736993  57.5554913  82.4131313  54.1846993  57.4484913  83.5811313
  53.5476993  57.2974913  83.1501313  65.3706993  66.5504913  74.6841313
  66.0546993  66.0364913  74.5151313  64.9536993  66.5964913  73.9191313
  65.4096993  66.4814913  74.5461313  60.0526993  67.7004913  85.9881313
  59.7546993  68.2924913  86.5551313  60.1076993  68.1424913  85.2391313
  60.0166993  67.8534913  85.9611313  62.5686993  64.1234913  85.4791313
  63.0446993  64.4974913  86.1071313  61.7456993  64.2574913  85.7381313
  62.5176993  64.1984913  85.6101313  59.2786993  59.7264913  88.2201313
  59.4396993  58.9824913  88.6471313  59.2336993  59.4774913  87.3851313
  59.2956993  59.5794913  88.1601313  61.0306993  55.5344913  88.1001313
  61.7356993  55.8544913  87.6981313  61.2716993  54.7274913  88.3271313
  61.1696993  55.4624913  88.0741313  60.0156993  69.7444913  84.0961313
  59.3916993  70.3264913  83.9141313  60.2636993  69.4584913  83.3101313
  59.9596993  69.7884913  83.9531313  61.6096993  64.5204913  74.0111313
  60.8046993  64.3434913  73.7261313  61.5766993  65.3714913  74.2031313
  61.4856993  64.6194913  73.9981313  57.5396993  60.5874913  84.1611313
  57.9796993  60.4844913  83.4151313  58.0846993  60.2744913  84.7661313
  57.6846993  60.5264913  84.1401313  65.2436993  61.2264913  86.0511313
  65.5456993  61.6464913  86.7541313  65.2796993  60.3864913  86.2831313
  65.2936993  61.1644913  86.1891313  61.0866993  55.5724913  84.2081313
  60.2606993  55.4234913  84.4451313  61.0466993  55.6074913  83.3371313
  60.9586993  55.5554913  84.1141313  56.7156993  58.7144913  77.4681313
  56.8416993  58.3854913  76.6701313  55.9036993  58.4654913  77.6671313
  56.6146993  58.6294913  77.3801313  65.4726993  65.8674913  80.5121313
  65.5486993  66.2084913  81.3111313  65.6416993  65.0204913  80.6331313
  65.5086993  65.7924913  80.6481313  62.9946993  65.1414913  80.0771313
  62.6966993  64.8264913  80.8341313  63.6896993  65.6144913  80.3121313
  63.0536993  65.1644913  80.2241313  63.2166993  69.2594913  88.1041313
  63.9036993  69.1454913  88.6291313  63.3506993  70.0504913  87.7601313
  63.3376993  69.3594913  88.1311313  63.6246993  67.1874913  85.5371313
  62.9306993  67.5894913  85.8801313  64.3016993  67.6204913  85.8761313
  63.6216993  67.3104913  85.6381313  56.6926993  60.7254913  87.8841313
  57.0676993  61.3444913  87.3971313  57.3666993  60.2514913  88.1691313
  56.8476993  60.7474913  87.8541313  54.4676993  59.1734913  87.1591313
  54.5446993  59.0044913  86.3061313  55.2136993  59.5794913  87.3561313
  54.5886993  59.2084913  87.0621313  63.9466993  68.7784913  78.7061313
  63.7416993  69.6114913  78.5471313  63.1716993  68.3964913  78.8281313
  63.8016993  68.8454913  78.7011313  53.8646993  64.3994913  87.3831313
  54.1846993  64.6184913  86.6021313  53.7646993  63.5344913  87.3281313
  53.8966993  64.3044913  87.2601313  55.3206993  60.3354913  74.0011313
  54.6486993  60.3494913  74.5571313  55.4156993  59.4874913  73.8171313
  55.2356993  60.2124913  74.0561313  64.0016993  56.9494913  81.5911313
  63.3016993  57.4674913  81.5351313  64.0396993  56.5694913  80.8071313
  63.9036993  56.9704913  81.4671313  59.3086993  69.0404913  75.1151313
  59.7496993  69.1204913  75.8631313  58.5036993  68.8244913  75.3731313
  59.2546993  69.0204913  75.2641313  58.6276993  63.6914913  88.7681313
  58.2316993  64.4654913  88.8431313  58.2216993  63.3184913  88.0921313
  58.5096993  63.7504913  88.6791313  56.6376993  68.1104913  75.7161313
  56.3936993  67.8034913  76.4961313  56.6046993  67.4074913  75.2001313
  56.5966993  67.9614913  75.7551313  59.4566993  66.3554913  74.4591313
  58.6386993  66.0874913  74.5991313  59.4286993  67.2074913  74.6441313
  59.3316993  66.4424913  74.5071313  59.0566993  56.6684913  86.2181313
  58.1926993  56.7524913  86.2981313  59.2766993  56.1544913  86.8871313
  58.9616993  56.6054913  86.3291313  63.1596993  57.4164913  84.5921313
  62.4226993  56.9624913  84.7051313  63.7306993  57.0144913  85.1151313
  63.1346993  57.2894913  84.6861313  65.8916993  68.2644913  86.3801313
  66.0976993  68.5654913  87.1721313  65.8306993  68.9864913  85.8951313
  65.9126993  68.4154913  86.4251313  61.4586993  54.9974913  74.4231313
  61.5366993  55.2444913  73.5901313  60.7156993  55.3744913  74.6811313
  61.3606993  55.0894913  74.3381313  56.2766993  56.7514913  86.8661313
  55.9336993  55.9844913  86.6321313  55.5816993  57.2754913  86.9301313
  56.1236993  56.7154913  86.8411313  65.3226993  55.6074913  83.8431313
  65.9926993  56.1514913  83.9701313  64.8196993  56.0314913  83.2701313
  65.3476993  55.7504913  83.7771313  64.6816993  61.4154913  81.3361313
  65.2326993  60.8084913  81.6361313  64.2566993  61.6784913  82.0511313
  64.7006993  61.3644913  81.4851313  54.9296993  60.0654913  80.8221313
  54.5616993  60.3674913  81.5531313  55.4636993  59.4364913  81.1061313
  54.9536993  60.0174913  80.9721313  54.6176993  68.4734913  88.3331313
  54.0436993  68.8894913  88.8421313  55.3506993  68.9384913  88.4281313
  54.6416993  68.6034913  88.4221313  60.5706993  64.1374913  76.8361313
  60.6706993  64.2764913  75.9811313  61.3886993  64.0774913  77.1321313
  60.7056993  64.1484913  76.7531313  65.8056993  68.4664913  76.6381313
  65.5546993  68.3384913  77.4641313  65.4886993  67.7714913  76.2171313
  65.7216993  68.3454913  76.6981313  62.6916993  66.6744913  76.0681313
  63.4086993  66.3274913  75.7121313  62.6576993  67.4744913  75.7201313
  62.7926993  66.7414913  75.9641313  64.1006993  55.3154913  60.3068903
  63.8556993  55.8034913  59.6268903  64.9636993  55.2424913  60.2068903
  64.1916993  55.3764913  60.1918903  63.9096993  62.2314913  64.9778903
  63.3856993  62.8274913  65.3408903  64.3066993  61.8634913  65.6618903
  63.8906993  62.2654913  65.1328903  53.7786993  66.3714913  60.4338903
  53.3376993  66.4894913  61.1768903  53.4956993  65.5964913  60.1488903
  53.6716993  66.2744913  60.5018903  53.5216993  60.1634913  56.9408903
  52.7436993  60.3254913  56.5808903  53.5606993  59.2924913  56.9628903
  53.4126993  60.0584913  56.8908903  56.6606993  65.4264913  55.6128903
  56.2686993  65.0554913  54.9268903  56.5806993  64.8284913  56.2418903
  56.5906993  65.2834913  55.6038903  56.2876993  67.0674913  59.5128903
  56.8956993  66.8974913  60.1158903  55.5366993  66.9274913  59.9338903
  56.2666993  67.0214913  59.6638903  60.5696993  56.4024913  59.4618903
  60.4996993  57.0794913  58.9158903  61.3106993  56.0144913  59.2128903
  60.6686993  56.4454913  59.3438903  55.1786993  70.1584913  55.5898903
  55.6456993  70.2424913  54.8578903  55.6336993  69.5804913  56.0588903
  55.3146993  70.0854913  55.5508903  53.7186993  69.1064913  66.6888903
  53.8476993  68.8264913  67.5048903  53.1086993  68.5654913  66.3798903
  53.6476993  68.9854913  66.7638903  60.2926993  66.6314913  71.7558903
  60.0566993  66.6284913  72.5958903  59.5446993  66.4834913  71.3318903
  60.1466993  66.6084913  71.8168903  55.1646993  63.6274913  60.8908903
  54.7026993  63.2354913  60.2638903  55.8646993  63.1144913  60.9828903
  55.1996993  63.4944913  60.8118903  59.6726993  59.2374913  66.2378903
  60.3506993  59.2554913  65.6888903  59.6276993  58.4014913  66.4828903
  59.7656993  59.1164913  66.1928903  57.1656993  61.7274913  60.9138903
  57.9826993  61.5404913  61.1568903  56.6886993  61.1134913  61.3098903
  57.2156993  61.6094913  61.0088903  61.3696993  67.7084913  63.5238903
  61.7176993  66.9094913  63.5538903  62.0346993  68.2124913  63.2688903
  61.5196993  67.6644913  63.4908903  61.4266993  67.1574913  59.7348903
  61.7576993  66.5134913  60.2208903  61.6666993  66.9464913  58.9238903
  61.5106993  67.0314913  59.6868903  63.3946993  61.2884913  71.0738903
  62.5466993  61.1894913  70.8958903  63.4236993  62.0334913  71.5278903
  63.2736993  61.3844913  71.1148903  57.7626993  56.8214913  60.1798903
  57.4666993  57.3224913  59.5298903  58.6296993  56.8994913  60.1228903
  57.8466993  56.9074913  60.0758903  60.7416993  55.9634913  62.4028903
  60.8146993  56.8234913  62.5318903  60.7036993  55.8884913  61.5348903
  60.7466993  56.0794913  62.2938903  65.4146993  58.8894913  54.7018903
  64.9646993  59.5704913  55.0088903  65.5286993  58.3854913  55.4048903
  65.3656993  58.9154913  54.8508903  53.6206993  61.3884913  63.9038903
  53.3646993  62.2194913  63.8288903  52.9566993  61.0054913  64.3208903
  53.4846993  61.4544913  63.9548903  59.3706993  68.9424913  59.2838903
  58.7916993  68.6674913  59.8758903  59.9946993  68.3334913  59.3088903
  59.3776993  68.8124913  59.3748903  56.6496993  56.2054913  64.3948903
  56.1286993  55.5774913  64.0868903  57.2406993  55.7684913  64.8658903
  56.6606993  56.0474913  64.4188903  59.9556993  58.3384913  73.6928903
  60.0726993  57.8844913  72.9568903  60.2436993  59.1364913  73.4898903
  60.0156993  58.3894913  73.5538903  55.0756993  69.7684913  59.7348903
  55.7316993  69.1934913  59.7498903  55.4646993  70.5174913  59.5138903
  55.2306993  69.7934913  59.7048903  55.6886993  57.9354913  72.6768903
  54.9106993  57.5454913  72.6048903  56.1796993  57.5234913  72.0858903
  55.6456993  57.8164913  72.5788903  55.8936993  68.2554913  63.2348903
  56.3166993  67.8994913  62.5608903  56.2176993  67.8334913  63.9268903
  56.0036993  68.1404913  63.2378903  62.3376993  55.5784913  71.8448903
  62.5156993  54.7694913  71.5698903  62.1946993  56.0194913  71.1058903
  62.3426993  55.5244913  71.6948903  62.9316993  60.5044913  60.6178903
  63.2186993  60.2724913  59.8278903  63.6636993  60.5834913  61.0868903
  63.0816993  60.4814913  60.5708903  63.6536993  60.8434913  55.7388903
  63.9346993  61.6314913  55.9878903  62.8776993  61.0084913  55.3758903
  63.5806993  60.9844913  55.7218903  53.0366993  58.4834913  70.2628903
  53.0326993  59.0704913  70.9088903  53.6306993  58.7954913  69.7058903
  53.1236993  58.6164913  70.2758903  62.5126993  69.0144913  55.5548903
  62.3316993  69.5594913  56.2118903  63.2786993  69.3044913  55.2538903
  62.5986993  69.1384913  55.6078903  53.9736993  58.0784913  59.1778903
  53.8596993  57.2144913  59.2088903  53.4986993  58.3724913  59.8478903
  53.8866993  57.9944913  59.2808903  56.1156993  70.4884913  67.3928903
  55.4176993  69.9804913  67.5188903  56.3756993  70.2834913  66.5848903
  56.0506993  70.3834913  67.2918903  63.2776993  59.2864913  57.9228903
  62.7696993  58.6244913  57.6688903  63.3296993  59.7904913  57.2128903
  63.2106993  59.2634913  57.7808903  63.2776993  56.2274913  57.8138903
  62.8226993  55.8254913  57.1878903  64.0506993  56.3824913  57.4388903
  63.3246993  56.1914913  57.6658903  61.8756993  58.5944913  62.3358903
  61.9496993  59.1624913  61.6778903  61.9966993  59.0864913  63.0458903
  61.9036993  58.7514913  62.3438903  57.4766993  69.3394913  69.9598903
  58.3176993  69.4024913  69.7378903  57.4396993  69.7364913  70.7358903
  57.5956993  69.4074913  70.0418903  56.4836993  54.4174913  60.6838903
  57.0196993  55.1054913  60.6738903  56.4866993  54.1434913  59.8558903
  56.5626993  54.4784913  60.5598903  59.4396993  64.8504913  64.7088903
  59.6116993  64.6404913  65.5378903  58.7846993  64.3164913  64.4928903
  59.3686993  64.7404913  64.7998903  65.6676993  58.7644913  68.2238903
  65.5726993  59.0834913  69.0298903  65.0746993  58.1254913  68.1858903
  65.5656993  58.7164913  68.3378903  60.1896993  64.7884913  67.2988903
  60.2426993  65.6354913  67.5008903  59.9046993  64.4184913  68.0358903
  60.1556993  64.8584913  67.4368903  53.0106993  69.1594913  73.5098903
  53.7666993  69.5084913  73.7678903  53.1876993  68.3064913  73.4528903
  53.1486993  69.0844913  73.5398903  56.9316993  58.2274913  62.3378903
  57.2036993  57.7974913  61.6298903  56.7556993  57.5914913  62.9088903
  56.9456993  58.0704913  62.3178903  56.7556993  65.6544913  61.8868903
  57.6066993  65.5744913  61.7138903  56.3986993  64.9724913  61.4748903
  56.8286993  65.5414913  61.7998903  55.0726993  59.3294913  65.4198903
  55.9156993  59.5494913  65.3768903  54.6836993  59.9024913  64.8888903
  55.1396993  59.4464913  65.3348903  59.1236993  65.6614913  60.1218903
  59.8366993  66.1564913  60.2118903  59.3456993  65.0944913  59.4958903
  59.2616993  65.6504913  60.0428903  53.2796993  67.3044913  63.4418903
  52.6126993  67.7924913  63.7178903  53.9596993  67.8494913  63.4708903
  53.2816993  67.4564913  63.4868903  60.9266993  61.0144913  73.5378903
  60.4426993  61.5914913  73.9798903  60.8986993  61.3094913  72.7168903
  60.8506993  61.1434913  73.4818903  53.3456993  63.9884913  58.5448903
  53.1606993  63.1494913  58.6968903  54.0046993  63.9524913  57.9748903
  53.4156993  63.8594913  58.4828903  63.6466993  69.3644913  62.4488903
  63.1236993  69.9984913  62.1558903  63.9566993  69.0004913  61.7198903
  63.6146993  69.4044913  62.2978903  53.5176993  68.1524913  58.1198903
  54.0696993  68.7214913  58.4838903  53.2856993  67.6374913  58.7848903
  53.5646993  68.1604913  58.2718903  57.7216993  67.1524913  65.2088903
  58.1886993  67.4414913  65.8868903  58.2936993  66.6744913  64.7548903
  57.8756993  67.1244913  65.2418903  53.3476993  66.6014913  55.7478903
  54.1036993  66.1694913  55.8058903  53.3626993  67.1334913  56.4388903
  53.4616993  66.6164913  55.8588903  54.2876993  64.8224913  63.7528903
  54.7186993  64.6934913  63.0058903  54.0826993  65.6704913  63.7268903
  54.3206993  64.9284913  63.6388903  60.6336993  58.3864913  57.4028903
  60.6316993  58.2694913  56.5378903  60.4526993  59.2344913  57.4948903
  60.6066993  58.4944913  57.2888903  58.3716993  68.3384913  62.0348903
  58.4976993  69.1814913  62.2218903  59.0396993  67.9394913  62.4308903
  58.4896993  68.4044913  62.1208903  56.5016993  61.8214913  71.8968903
  55.9656993  61.3154913  72.3648903  56.5216993  61.4314913  71.1168903
  56.4246993  61.6884913  71.8508903  56.9866993  61.2184913  57.0368903
  56.8586993  60.7704913  57.7748903  56.4046993  60.8764913  56.4848903
  56.8816993  61.1014913  57.0648903  57.1536993  63.0484913  63.6358903
  56.3726993  62.9894913  63.2528903  57.2256993  62.2964913  64.0728903
  57.0486993  62.9294913  63.6438903  57.5836993  62.7854913  67.1038903
  57.6086993  62.1104913  66.5528903  56.9376993  63.2814913  66.7918903
  57.4926993  62.7584913  66.9768903  64.1236993  56.4044913  68.9288903
  64.2726993  55.5794913  68.6858903  64.5026993  56.4594913  69.7128903
  64.2016993  56.2904913  69.0088903  55.3826993  64.1404913  72.6628903
  55.3456993  64.6414913  71.9488903  55.7136993  63.3884913  72.3678903
  55.4256993  64.1024913  72.5138903  61.2816993  69.1904913  72.0978903
  61.6356993  69.0124913  72.8748903  60.8456993  68.4614913  71.8988903
  61.2696993  69.0564913  72.1838903  62.2536993  59.9374913  64.7358903
  62.7336993  60.6364913  64.9438903  62.6266993  59.2904913  65.1868903
  62.3796993  59.9454913  64.8328903  64.4426993  63.1064913  57.0098903
  64.4346993  63.8284913  56.5198903  63.8036993  63.2414913  57.5868903
  64.3476993  63.2334913  57.0228903  65.4596993  70.0424913  64.8348903
  64.8566993  69.7464913  64.2778903  66.0046993  70.4944913  64.3258903
  65.4506993  70.0654913  64.6768903  65.4726993  66.8934913  64.2348903
  64.6756993  67.1174913  64.5088903  65.7306993  66.2994913  64.8198903
  65.3926993  66.8384913  64.3618903  59.0356993  55.4484913  56.6708903
  59.1326993  55.3414913  57.5318903  58.3276993  55.9544913  56.6058903
  58.9456993  55.5074913  56.7888903  56.1576993  63.7554913  57.9138903
  56.4816993  62.9764913  57.6918903  56.8036993  64.1234913  58.3688903
  56.3006993  63.6944913  57.9478903  64.4636993  64.6974913  68.6808903
  64.3086993  65.3074913  69.2848903  64.9976993  64.1394913  69.0868903
  64.5196993  64.7054913  68.8298903  53.1546993  55.4164913  58.8818903
  53.2836993  54.7084913  58.3898903  52.7876993  55.0984913  59.6068903
  53.1196993  55.2644913  58.9168903  62.8476993  63.0974913  59.3388903
  62.9066993  63.7474913  59.9178903  62.6586993  62.4014913  59.8298903
  62.8286993  63.0904913  59.4968903  57.3436993  57.6144913  55.8508903
  56.8326993  57.6674913  55.1448903  58.1276993  57.8544913  55.5548903
  57.3836993  57.6574913  55.7028903  62.0706993  65.1444913  63.7698903
  61.2236993  64.9504913  63.8508903  62.3946993  64.9794913  64.5628903
  61.9926993  65.0914913  63.8988903  55.9186993  64.8374913  66.0858903
  56.6406993  65.3254913  66.0488903  55.6486993  64.8074913  65.2568903
  55.9856993  64.9054913  65.9578903  59.1486993  60.0084913  62.8208903
  59.9946993  59.8184913  62.9188903  58.7786993  59.2314913  62.6828903
  59.2186993  59.8654913  62.8148903  53.9696993  61.3464913  59.4758903
  54.4586993  61.0544913  60.1368903  54.0986993  60.7534913  58.8488903
  54.0606993  61.2154913  59.4808903  58.4946993  62.7804913  54.9618903
  57.8846993  62.3754913  55.4358903  58.1086993  62.8984913  54.1888903
  58.3476993  62.7374913  54.9178903  55.3136993  65.8894913  70.3638903
  54.8926993  65.3714913  69.8028903  54.9616993  66.6754913  70.2208903
  55.1996993  65.9294913  70.2598903  59.9496993  61.2414913  57.6718903
  60.2216993  62.0674913  57.7388903  59.0866993  61.3164913  57.5758903
  59.8626993  61.3744913  57.6668903  53.4296993  57.2114913  64.2078903
  53.4736993  57.5554913  63.4068903  54.1846993  57.4484913  64.5748903
  53.5476993  57.2974913  64.1438903  65.3706993  66.5504913  55.6778903
  66.0546993  66.0364913  55.5088903  64.9536993  66.5964913  54.9128903
  65.4096993  66.4814913  55.5398903  60.0526993  67.7004913  66.9818903
  59.7546993  68.2924913  67.5488903  60.1076993  68.1424913  66.2328903
  60.0166993  67.8534913  66.9548903  58.0316993  66.6504913  70.3798903
  57.2256993  66.3604913  70.5468903  57.9426993  67.5184913  70.3858903
  57.8996993  66.7354913  70.4048903  62.5686993  64.1234913  66.4728903
  63.0446993  64.4974913  67.1008903  61.7456993  64.2574913  66.7318903
  62.5176993  64.1984913  66.6038903  59.2786993  59.7264913  69.2138903
  59.4396993  58.9824913  69.6408903  59.2336993  59.4774913  68.3788903
  59.2956993  59.5794913  69.1538903  61.0306993  55.5344913  69.0938903
  61.7356993  55.8544913  68.6918903  61.2716993  54.7274913  69.3208903
  61.1696993  55.4624913  69.0678903  60.0156993  69.7444913  65.0898903
  59.3916993  70.3264913  64.9078903  60.2636993  69.4584913  64.3038903
  59.9596993  69.7884913  64.9468903  64.3246993  66.3784913  72.0788903
  65.0816993  66.6644913  71.7528903  63.7776993  66.4304913  71.4008903
  64.3556993  66.4284913  71.9298903  61.6096993  64.5204913  55.0048903
  60.8046993  64.3434913  54.7198903  61.5766993  65.3714913  55.1968903
  61.4856993  64.6194913  54.9918903  57.5396993  60.5874913  65.1548903
  57.9796993  60.4844913  64.4088903  58.0846993  60.2744913  65.7598903
  57.6846993  60.5264913  65.1338903  65.5556993  59.6894913  70.7468903
  64.9076993  60.1594913  71.0948903  66.1206993  59.6004913  71.4058903
  65.5436993  59.7454913  70.8958903  65.2436993  61.2264913  67.0448903
  65.5456993  61.6464913  67.7478903  65.2796993  60.3864913  67.2768903
  65.2936993  61.1644913  67.1828903  61.0866993  55.5724913  65.2018903
  60.2606993  55.4234913  65.4388903  61.0466993  55.6074913  64.3308903
  60.9586993  55.5554913  65.1078903  62.7276993  66.6124913  69.9898903
  61.9326993  66.5484913  70.3408903  62.7986993  67.4594913  69.7948903
  62.6206993  66.7274913  70.0128903  53.6516993  55.9704913  71.2368903
  53.5116993  56.7654913  70.9058903  52.8656993  55.7274913  71.5258903
  53.5146993  56.0524913  71.2308903  56.7156993  58.7144913  58.4618903
  56.8416993  58.3854913  57.6638903  55.9036993  58.4654913  58.6608903
  56.6146993  58.6294913  58.3738903  65.4726993  65.8674913  61.5058903
  65.5486993  66.2084913  62.3048903  65.6416993  65.0204913  61.6268903
  65.5086993  65.7924913  61.6418903  62.9946993  65.1414913  61.0708903
  62.6966993  64.8264913  61.8278903  63.6896993  65.6144913  61.3058903
  63.0536993  65.1644913  61.2178903  63.2166993  69.2594913  69.0978903
  63.9036993  69.1454913  69.6228903  63.3506993  70.0504913  68.7538903
  63.3376993  69.3594913  69.1248903  63.8396993  63.7234913  72.6718903
  64.1626993  64.4094913  72.2398903  63.1356993  64.0464913  73.0738903
  63.7826993  63.8724913  72.6668903  63.6246993  67.1874913  66.5308903
  62.9306993  67.5894913  66.8738903  64.3016993  67.6204913  66.8698903
  63.6216993  67.3104913  66.6318903  56.6926993  60.7254913  68.8778903
  57.0676993  61.3444913  68.3908903  57.3666993  60.2514913  69.1628903
  56.8476993  60.7474913  68.8478903  54.4676993  59.1734913  68.1528903
  54.5446993  59.0044913  67.2998903  55.2136993  59.5794913  68.3498903
  54.5886993  59.2084913  68.0558903  57.0216993  56.5834913  70.5638903
  56.9406993  55.7394913  70.7698903  56.7076993  56.6274913  69.7508903
  56.9636993  56.4654913  70.4738903  63.9466993  68.7784913  59.6998903
  63.7416993  69.6114913  59.5408903  63.1716993  68.3964913  59.8218903
  63.8016993  68.8454913  59.6948903  53.8646993  64.3994913  68.3768903
  54.1846993  64.6184913  67.5958903  53.7646993  63.5344913  68.3218903
  53.8966993  64.3044913  68.2538903  55.3206993  60.3354913  54.9948903
  54.6486993  60.3494913  55.5508903  55.4156993  59.4874913  54.8108903
  55.2356993  60.2124913  55.0498903  65.0076993  56.7594913  71.7308903
  65.0996993  57.4714913  72.2248903  64.3706993  56.3144913  72.1278903
  64.9266993  56.7984913  71.8628903  64.0016993  56.9494913  62.5848903
  63.3016993  57.4674913  62.5288903  64.0396993  56.5694913  61.8008903
  63.9036993  56.9704913  62.4608903  59.3086993  69.0404913  56.1088903
  59.7496993  69.1204913  56.8568903  58.5036993  68.8244913  56.3668903
  59.2546993  69.0204913  56.2578903  58.6276993  63.6914913  69.7618903
  58.2316993  64.4654913  69.8368903  58.2216993  63.3184913  69.0858903
  58.5096993  63.7504913  69.6728903  56.6376993  68.1104913  56.7098903
  56.3936993  67.8034913  57.4898903  56.6046993  67.4074913  56.1938903
  56.5966993  67.9614913  56.7488903  59.4566993  66.3554913  55.4528903
  58.6386993  66.0874913  55.5928903  59.4286993  67.2074913  55.6378903
  59.3316993  66.4424913  55.5008903  59.0566993  56.6684913  67.2118903
  58.1926993  56.7524913  67.2918903  59.2766993  56.1544913  67.8808903
  58.9616993  56.6054913  67.3228903  63.1596993  57.4164913  65.5858903
  62.4226993  56.9624913  65.6988903  63.7306993  57.0144913  66.1088903
  63.1346993  57.2894913  65.6798903  65.8916993  68.2644913  67.3738903
  66.0976993  68.5654913  68.1658903  65.8306993  68.9864913  66.8888903
  65.9126993  68.4154913  67.4188903  60.6626993  61.7454913  70.7898903
  60.3406993  61.1694913  70.2198903  60.3036993  62.5004913  70.5438903
  60.5626993  61.7714913  70.6698903  61.4586993  54.9974913  55.4168903
  61.5366993  55.2444913  54.5838903  60.7156993  55.3744913  55.6748903
  61.3606993  55.0894913  55.3318903  56.2766993  56.7514913  67.8598903
  55.9336993  55.9844913  67.6258903  55.5816993  57.2754913  67.9238903
  56.1236993  56.7154913  67.8348903  65.3226993  55.6074913  64.8368903
  65.9926993  56.1514913  64.9638903  64.8196993  56.0314913  64.2638903
  65.3476993  55.7504913  64.7708903  64.6816993  61.4154913  62.3298903
  65.2326993  60.8084913  62.6298903  64.2566993  61.6784913  63.0448903
  64.7006993  61.3644913  62.4788903  54.9296993  60.0654913  61.8158903
  54.5616993  60.3674913  62.5468903  55.4636993  59.4364913  62.0998903
  54.9536993  60.0174913  61.9658903  54.6176993  68.4734913  69.3268903
  54.0436993  68.8894913  69.8358903  55.3506993  68.9384913  69.4218903
  54.6416993  68.6034913  69.4158903  60.5706993  64.1374913  57.8298903
  60.6706993  64.2764913  56.9748903  61.3886993  64.0774913  58.1258903
  60.7056993  64.1484913  57.7468903  65.8056993  68.4664913  57.6318903
  65.5546993  68.3384913  58.4578903  65.4886993  67.7714913  57.2108903
  65.7216993  68.3454913  57.6918903  59.7096993  57.1124913  70.9458903
  59.9436993  56.5364913  70.3328903  58.8676993  56.9314913  71.0868903
  59.6196993  57.0004913  70.8758903  62.6916993  66.6744913  57.0618903
  63.4086993  66.3274913  56.7058903  62.6576993  67.4744913  56.7138903
  62.7926993  66.7414913  56.9578903  64.1006993  55.3154913  41.3006493
  63.8556993  55.8034913  40.6206493  64.9636993  55.2424913  41.2006493
  64.1916993  55.3764913  41.1856493  63.9096993  62.2314913  45.9716493
  63.3856993  62.8274913  46.3346493  64.3066993  61.8634913  46.6556493
  63.8906993  62.2654913  46.1266493  53.7786993  66.3714913  41.4276493
  53.3376993  66.4894913  42.1706493  53.4956993  65.5964913  41.1426493
  53.6716993  66.2744913  41.4956493  53.5216993  60.1634913  37.9346493
  52.7436993  60.3254913  37.5746493  53.5606993  59.2924913  37.9566493
  53.4126993  60.0584913  37.8846493  56.6606993  65.4264913  36.6066493
  56.2686993  65.0554913  35.9206493  56.5806993  64.8284913  37.2356493
  56.5906993  65.2834913  36.5976493  56.2876993  67.0674913  40.5066493
  56.8956993  66.8974913  41.1096493  55.5366993  66.9274913  40.9276493
  56.2666993  67.0214913  40.6576493  60.5696993  56.4024913  40.4556493
  60.4996993  57.0794913  39.9096493  61.3106993  56.0144913  40.2066493
  60.6686993  56.4454913  40.3376493  55.1786993  70.1584913  36.5836493
  55.6456993  70.2424913  35.8516493  55.6336993  69.5804913  37.0526493
  55.3146993  70.0854913  36.5446493  53.7186993  69.1064913  47.6826493
  53.8476993  68.8264913  48.4986493  53.1086993  68.5654913  47.3736493
  53.6476993  68.9854913  47.7576493  60.2926993  66.6314913  52.7496493
  60.0566993  66.6284913  53.5896493  59.5446993  66.4834913  52.3256493
  60.1466993  66.6084913  52.8106493  55.1646993  63.6274913  41.8846493
  54.7026993  63.2354913  41.2576493  55.8646993  63.1144913  41.9766493
  55.1996993  63.4944913  41.8056493  59.6726993  59.2374913  47.2316493
  60.3506993  59.2554913  46.6826493  59.6276993  58.4014913  47.4766493
  59.7656993  59.1164913  47.1866493  57.1656993  61.7274913  41.9076493
  57.9826993  61.5404913  42.1506493  56.6886993  61.1134913  42.3036493
  57.2156993  61.6094913  42.0026493  61.3696993  67.7084913  44.5176493
  61.7176993  66.9094913  44.5476493  62.0346993  68.2124913  44.2626493
  61.5196993  67.6644913  44.4846493  61.4266993  67.1574913  40.7286493
  61.7576993  66.5134913  41.2146493  61.6666993  66.9464913  39.9176493
  61.5106993  67.0314913  40.6806493  63.3946993  61.2884913  52.0676493
  62.5466993  61.1894913  51.8896493  63.4236993  62.0334913  52.5216493
  63.2736993  61.3844913  52.1086493  57.7626993  56.8214913  41.1736493
  57.4666993  57.3224913  40.5236493  58.6296993  56.8994913  41.1166493
  57.8466993  56.9074913  41.0696493  60.7416993  55.9634913  43.3966493
  60.8146993  56.8234913  43.5256493  60.7036993  55.8884913  42.5286493
  60.7466993  56.0794913  43.2876493  65.4146993  58.8894913  35.6956493
  64.9646993  59.5704913  36.0026493  65.5286993  58.3854913  36.3986493
  65.3656993  58.9154913  35.8446493  53.6206993  61.3884913  44.8976493
  53.3646993  62.2194913  44.8226493  52.9566993  61.0054913  45.3146493
  53.4846993  61.4544913  44.9486493  59.3706993  68.9424913  40.2776493
  58.7916993  68.6674913  40.8696493  59.9946993  68.3334913  40.3026493
  59.3776993  68.8124913  40.3686493  56.6496993  56.2054913  45.3886493
  56.1286993  55.5774913  45.0806493  57.2406993  55.7684913  45.8596493
  56.6606993  56.0474913  45.4126493  59.9556993  58.3384913  54.6866493
  60.0726993  57.8844913  53.9506493  60.2436993  59.1364913  54.4836493
  60.0156993  58.3894913  54.5476493  55.0756993  69.7684913  40.7286493
  55.7316993  69.1934913  40.7436493  55.4646993  70.5174913  40.5076493
  55.2306993  69.7934913  40.6986493  55.6886993  57.9354913  53.6706493
  54.9106993  57.5454913  53.5986493  56.1796993  57.5234913  53.0796493
  55.6456993  57.8164913  53.5726493  55.8936993  68.2554913  44.2286493
  56.3166993  67.8994913  43.5546493  56.2176993  67.8334913  44.9206493
  56.0036993  68.1404913  44.2316493  62.3376993  55.5784913  52.8386493
  62.5156993  54.7694913  52.5636493  62.1946993  56.0194913  52.0996493
  62.3426993  55.5244913  52.6886493  62.9316993  60.5044913  41.6116493
  63.2186993  60.2724913  40.8216493  63.6636993  60.5834913  42.0806493
  63.0816993  60.4814913  41.5646493  63.6536993  60.8434913  36.7326493
  63.9346993  61.6314913  36.9816493  62.8776993  61.0084913  36.3696493
  63.5806993  60.9844913  36.7156493  53.0366993  58.4834913  51.2566493
  53.0326993  59.0704913  51.9026493  53.6306993  58.7954913  50.6996493
  53.1236993  58.6164913  51.2696493  62.5126993  69.0144913  36.5486493
  62.3316993  69.5594913  37.2056493  63.2786993  69.3044913  36.2476493
  62.5986993  69.1384913  36.6016493  53.9736993  58.0784913  40.1716493
  53.8596993  57.2144913  40.2026493  53.4986993  58.3724913  40.8416493
  53.8866993  57.9944913  40.2746493  56.1156993  70.4884913  48.3866493
  55.4176993  69.9804913  48.5126493  56.3756993  70.2834913  47.5786493
  56.0506993  70.3834913  48.2856493  63.2776993  59.2864913  38.9166493
  62.7696993  58.6244913  38.6626493  63.3296993  59.7904913  38.2066493
  63.2106993  59.2634913  38.7746493  63.2776993  56.2274913  38.8076493
  62.8226993  55.8254913  38.1816493  64.0506993  56.3824913  38.4326493
  63.3246993  56.1914913  38.6596493  61.8756993  58.5944913  43.3296493
  61.9496993  59.1624913  42.6716493  61.9966993  59.0864913  44.0396493
  61.9036993  58.7514913  43.3376493  57.4766993  69.3394913  50.9536493
  58.3176993  69.4024913  50.7316493  57.4396993  69.7364913  51.7296493
  57.5956993  69.4074913  51.0356493  56.4836993  54.4174913  41.6776493
  57.0196993  55.1054913  41.6676493  56.4866993  54.1434913  40.8496493
  56.5626993  54.4784913  41.5536493  59.4396993  64.8504913  45.7026493
  59.6116993  64.6404913  46.5316493  58.7846993  64.3164913  45.4866493
  59.3686993  64.7404913  45.7936493  65.6676993  58.7644913  49.2176493
  65.5726993  59.0834913  50.0236493  65.0746993  58.1254913  49.1796493
  65.5656993  58.7164913  49.3316493  60.1896993  64.7884913  48.2926493
  60.2426993  65.6354913  48.4946493  59.9046993  64.4184913  49.0296493
  60.1556993  64.8584913  48.4306493  53.0106993  69.1594913  54.5036493
  53.7666993  69.5084913  54.7616493  53.1876993  68.3064913  54.4466493
  53.1486993  69.0844913  54.5336493  56.9316993  58.2274913  43.3316493
  57.2036993  57.7974913  42.6236493  56.7556993  57.5914913  43.9026493
  56.9456993  58.0704913  43.3116493  56.7556993  65.6544913  42.8806493
  57.6066993  65.5744913  42.7076493  56.3986993  64.9724913  42.4686493
  56.8286993  65.5414913  42.7936493  55.0726993  59.3294913  46.4136493
  55.9156993  59.5494913  46.3706493  54.6836993  59.9024913  45.8826493
  55.1396993  59.4464913  46.3286493  59.1236993  65.6614913  41.1156493
  59.8366993  66.1564913  41.2056493  59.3456993  65.0944913  40.4896493
  59.2616993  65.6504913  41.0366493  53.2796993  67.3044913  44.4356493
  52.6126993  67.7924913  44.7116493  53.9596993  67.8494913  44.4646493
  53.2816993  67.4564913  44.4806493  60.9266993  61.0144913  54.5316493
  60.4426993  61.5914913  54.9736493  60.8986993  61.3094913  53.7106493
  60.8506993  61.1434913  54.4756493  53.3456993  63.9884913  39.5386493
  53.1606993  63.1494913  39.6906493  54.0046993  63.9524913  38.9686493
  53.4156993  63.8594913  39.4766493  63.6466993  69.3644913  43.4426493
  63.1236993  69.9984913  43.1496493  63.9566993  69.0004913  42.7136493
  63.6146993  69.4044913  43.2916493  53.5176993  68.1524913  39.1136493
  54.0696993  68.7214913  39.4776493  53.2856993  67.6374913  39.7786493
  53.5646993  68.1604913  39.2656493  57.7216993  67.1524913  46.2026493
  58.1886993  67.4414913  46.8806493  58.2936993  66.6744913  45.7486493
  57.8756993  67.1244913  46.2356493  53.3476993  66.6014913  36.7416493
  54.1036993  66.1694913  36.7996493  53.3626993  67.1334913  37.4326493
  53.4616993  66.6164913  36.8526493  54.2876993  64.8224913  44.7466493
  54.7186993  64.6934913  43.9996493  54.0826993  65.6704913  44.7206493
  54.3206993  64.9284913  44.6326493  60.6336993  58.3864913  38.3966493
  60.6316993  58.2694913  37.5316493  60.4526993  59.2344913  38.4886493
  60.6066993  58.4944913  38.2826493  58.3716993  68.3384913  43.0286493
  58.4976993  69.1814913  43.2156493  59.0396993  67.9394913  43.4246493
  58.4896993  68.4044913  43.1146493  56.5016993  61.8214913  52.8906493
  55.9656993  61.3154913  53.3586493  56.5216993  61.4314913  52.1106493
  56.4246993  61.6884913  52.8446493  56.9866993  61.2184913  38.0306493
  56.8586993  60.7704913  38.7686493  56.4046993  60.8764913  37.4786493
  56.8816993  61.1014913  38.0586493  57.1536993  63.0484913  44.6296493
  56.3726993  62.9894913  44.2466493  57.2256993  62.2964913  45.0666493
  57.0486993  62.9294913  44.6376493  57.5836993  62.7854913  48.0976493
  57.6086993  62.1104913  47.5466493  56.9376993  63.2814913  47.7856493
  57.4926993  62.7584913  47.9706493  64.1236993  56.4044913  49.9226493
  64.2726993  55.5794913  49.6796493  64.5026993  56.4594913  50.7066493
  64.2016993  56.2904913  50.0026493  55.3826993  64.1404913  53.6566493
  55.3456993  64.6414913  52.9426493  55.7136993  63.3884913  53.3616493
  55.4256993  64.1024913  53.5076493  61.2816993  69.1904913  53.0916493
  61.6356993  69.0124913  53.8686493  60.8456993  68.4614913  52.8926493
  61.2696993  69.0564913  53.1776493  62.2536993  59.9374913  45.7296493
  62.7336993  60.6364913  45.9376493  62.6266993  59.2904913  46.1806493
  62.3796993  59.9454913  45.8266493  64.4426993  63.1064913  38.0036493
  64.4346993  63.8284913  37.5136493  63.8036993  63.2414913  38.5806493
  64.3476993  63.2334913  38.0166493  65.4596993  70.0424913  45.8286493
  64.8566993  69.7464913  45.2716493  66.0046993  70.4944913  45.3196493
  65.4506993  70.0654913  45.6706493  65.4726993  66.8934913  45.2286493
  64.6756993  67.1174913  45.5026493  65.7306993  66.2994913  45.8136493
  65.3926993  66.8384913  45.3556493  59.0356993  55.4484913  37.6646493
  59.1326993  55.3414913  38.5256493  58.3276993  55.9544913  37.5996493
  58.9456993  55.5074913  37.7826493  56.1576993  63.7554913  38.9076493
  56.4816993  62.9764913  38.6856493  56.8036993  64.1234913  39.3626493
  56.3006993  63.6944913  38.9416493  64.4636993  64.6974913  49.6746493
  64.3086993  65.3074913  50.2786493  64.9976993  64.1394913  50.0806493
  64.5196993  64.7054913  49.8236493  53.1546993  55.4164913  39.8756493
  53.2836993  54.7084913  39.3836493  52.7876993  55.0984913  40.6006493
  53.1196993  55.2644913  39.9106493  62.8476993  63.0974913  40.3326493
  62.9066993  63.7474913  40.9116493  62.6586993  62.4014913  40.8236493
  62.8286993  63.0904913  40.4906493  57.3436993  57.6144913  36.8446493
  56.8326993  57.6674913  36.1386493  58.1276993  57.8544913  36.5486493
  57.3836993  57.6574913  36.6966493  62.0706993  65.1444913  44.7636493
  61.2236993  64.9504913  44.8446493  62.3946993  64.9794913  45.5566493
  61.9926993  65.0914913  44.8926493  55.9186993  64.8374913  47.0796493
  56.6406993  65.3254913  47.0426493  55.6486993  64.8074913  46.2506493
  55.9856993  64.9054913  46.9516493  59.1486993  60.0084913  43.8146493
  59.9946993  59.8184913  43.9126493  58.7786993  59.2314913  43.6766493
  59.2186993  59.8654913  43.8086493  53.9696993  61.3464913  40.4696493
  54.4586993  61.0544913  41.1306493  54.0986993  60.7534913  39.8426493
  54.0606993  61.2154913  40.4746493  58.4946993  62.7804913  35.9556493
  57.8846993  62.3754913  36.4296493  58.1086993  62.8984913  35.1826493
  58.3476993  62.7374913  35.9116493  55.3136993  65.8894913  51.3576493
  54.8926993  65.3714913  50.7966493  54.9616993  66.6754913  51.2146493
  55.1996993  65.9294913  51.2536493  59.9496993  61.2414913  38.6656493
  60.2216993  62.0674913  38.7326493  59.0866993  61.3164913  38.5696493
  59.8626993  61.3744913  38.6606493  53.4296993  57.2114913  45.2016493
  53.4736993  57.5554913  44.4006493  54.1846993  57.4484913  45.5686493
  53.5476993  57.2974913  45.1376493  65.3706993  66.5504913  36.6716493
  66.0546993  66.0364913  36.5026493  64.9536993  66.5964913  35.9066493
  65.4096993  66.4814913  36.5336493  60.0526993  67.7004913  47.9756493
  59.7546993  68.2924913  48.5426493  60.1076993  68.1424913  47.2266493
  60.0166993  67.8534913  47.9486493  58.0316993  66.6504913  51.3736493
  57.2256993  66.3604913  51.5406493  57.9426993  67.5184913  51.3796493
  57.8996993  66.7354913  51.3986493  62.5686993  64.1234913  47.4666493
  63.0446993  64.4974913  48.0946493  61.7456993  64.2574913  47.7256493
  62.5176993  64.1984913  47.5976493  59.2786993  59.7264913  50.2076493
  59.4396993  58.9824913  50.6346493  59.2336993  59.4774913  49.3726493
  59.2956993  59.5794913  50.1476493  61.0306993  55.5344913  50.0876493
  61.7356993  55.8544913  49.6856493  61.2716993  54.7274913  50.3146493
  61.1696993  55.4624913  50.0616493  60.0156993  69.7444913  46.0836493
  59.3916993  70.3264913  45.9016493  60.2636993  69.4584913  45.2976493
  59.9596993  69.7884913  45.9406493  64.3246993  66.3784913  53.0726493
  65.0816993  66.6644913  52.7466493  63.7776993  66.4304913  52.3946493
  64.3556993  66.4284913  52.9236493  61.6096993  64.5204913  35.9986493
  60.8046993  64.3434913  35.7136493  61.5766993  65.3714913  36.1906493
  61.4856993  64.6194913  35.9856493  57.5396993  60.5874913  46.1486493
  57.9796993  60.4844913  45.4026493  58.0846993  60.2744913  46.7536493
  57.6846993  60.5264913  46.1276493  65.5556993  59.6894913  51.7406493
  64.9076993  60.1594913  52.0886493  66.1206993  59.6004913  52.3996493
  65.5436993  59.7454913  51.8896493  65.2436993  61.2264913  48.0386493
  65.5456993  61.6464913  48.7416493  65.2796993  60.3864913  48.2706493
  65.2936993  61.1644913  48.1766493  61.0866993  55.5724913  46.1956493
  60.2606993  55.4234913  46.4326493  61.0466993  55.6074913  45.3246493
  60.9586993  55.5554913  46.1016493  62.7276993  66.6124913  50.9836493
  61.9326993  66.5484913  51.3346493  62.7986993  67.4594913  50.7886493
  62.6206993  66.7274913  51.0066493  53.6516993  55.9704913  52.2306493
  53.5116993  56.7654913  51.8996493  52.8656993  55.7274913  52.5196493
  53.5146993  56.0524913  52.2246493  56.7156993  58.7144913  39.4556493
  56.8416993  58.3854913  38.6576493  55.9036993  58.4654913  39.6546493
  56.6146993  58.6294913  39.3676493  65.4726993  65.8674913  42.4996493
  65.5486993  66.2084913  43.2986493  65.6416993  65.0204913  42.6206493
  65.5086993  65.7924913  42.6356493  62.9946993  65.1414913  42.0646493
  62.6966993  64.8264913  42.8216493  63.6896993  65.6144913  42.2996493
  63.0536993  65.1644913  42.2116493  63.2166993  69.2594913  50.0916493
  63.9036993  69.1454913  50.6166493  63.3506993  70.0504913  49.7476493
  63.3376993  69.3594913  50.1186493  63.8396993  63.7234913  53.6656493
  64.1626993  64.4094913  53.2336493  63.1356993  64.0464913  54.0676493
  63.7826993  63.8724913  53.6606493  63.6246993  67.1874913  47.5246493
  62.9306993  67.5894913  47.8676493  64.3016993  67.6204913  47.8636493
  63.6216993  67.3104913  47.6256493  56.6926993  60.7254913  49.8716493
  57.0676993  61.3444913  49.3846493  57.3666993  60.2514913  50.1566493
  56.8476993  60.7474913  49.8416493  54.4676993  59.1734913  49.1466493
  54.5446993  59.0044913  48.2936493  55.2136993  59.5794913  49.3436493
  54.5886993  59.2084913  49.0496493  57.0216993  56.5834913  51.5576493
  56.9406993  55.7394913  51.7636493  56.7076993  56.6274913  50.7446493
  56.9636993  56.4654913  51.4676493  63.9466993  68.7784913  40.6936493
  63.7416993  69.6114913  40.5346493  63.1716993  68.3964913  40.8156493
  63.8016993  68.8454913  40.6886493  53.8646993  64.3994913  49.3706493
  54.1846993  64.6184913  48.5896493  53.7646993  63.5344913  49.3156493
  53.8966993  64.3044913  49.2476493  55.3206993  60.3354913  35.9886493
  54.6486993  60.3494913  36.5446493  55.4156993  59.4874913  35.8046493
  55.2356993  60.2124913  36.0436493  65.0076993  56.7594913  52.7246493
  65.0996993  57.4714913  53.2186493  64.3706993  56.3144913  53.1216493
  64.9266993  56.7984913  52.8566493  64.0016993  56.9494913  43.5786493
  63.3016993  57.4674913  43.5226493  64.0396993  56.5694913  42.7946493
  63.9036993  56.9704913  43.4546493  59.3086993  69.0404913  37.1026493
  59.7496993  69.1204913  37.8506493  58.5036993  68.8244913  37.3606493
  59.2546993  69.0204913  37.2516493  58.6276993  63.6914913  50.7556493
  58.2316993  64.4654913  50.8306493  58.2216993  63.3184913  50.0796493
  58.5096993  63.7504913  50.6666493  56.6376993  68.1104913  37.7036493
  56.3936993  67.8034913  38.4836493  56.6046993  67.4074913  37.1876493
  56.5966993  67.9614913  37.7426493  59.4566993  66.3554913  36.4466493
  58.6386993  66.0874913  36.5866493  59.4286993  67.2074913  36.6316493
  59.3316993  66.4424913  36.4946493  59.0566993  56.6684913  48.2056493
  58.1926993  56.7524913  48.2856493  59.2766993  56.1544913  48.8746493
  58.9616993  56.6054913  48.3166493  63.1596993  57.4164913  46.5796493
  62.4226993  56.9624913  46.6926493  63.7306993  57.0144913  47.1026493
  63.1346993  57.2894913  46.6736493  65.8916993  68.2644913  48.3676493
  66.0976993  68.5654913  49.1596493  65.8306993  68.9864913  47.8826493
  65.9126993  68.4154913  48.4126493  60.6626993  61.7454913  51.7836493
  60.3406993  61.1694913  51.2136493  60.3036993  62.5004913  51.5376493
  60.5626993  61.7714913  51.6636493  61.4586993  54.9974913  36.4106493
  61.5366993  55.2444913  35.5776493  60.7156993  55.3744913  36.6686493
  61.3606993  55.0894913  36.3256493  56.2766993  56.7514913  48.8536493
  55.9336993  55.9844913  48.6196493  55.5816993  57.2754913  48.9176493
  56.1236993  56.7154913  48.8286493  65.3226993  55.6074913  45.8306493
  65.9926993  56.1514913  45.9576493  64.8196993  56.0314913  45.2576493
  65.3476993  55.7504913  45.7646493  64.6816993  61.4154913  43.3236493
  65.2326993  60.8084913  43.6236493  64.2566993  61.6784913  44.0386493
  64.7006993  61.3644913  43.4726493  54.9296993  60.0654913  42.8096493
  54.5616993  60.3674913  43.5406493  55.4636993  59.4364913  43.0936493
  54.9536993  60.0174913  42.9596493  54.6176993  68.4734913  50.3206493
  54.0436993  68.8894913  50.8296493  55.3506993  68.9384913  50.4156493
  54.6416993  68.6034913  50.4096493  60.5706993  64.1374913  38.8236493
  60.6706993  64.2764913  37.9686493  61.3886993  64.0774913  39.1196493
  60.7056993  64.1484913  38.7406493  65.8056993  68.4664913  38.6256493
  65.5546993  68.3384913  39.4516493  65.4886993  67.7714913  38.2046493
  65.7216993  68.3454913  38.6856493  59.7096993  57.1124913  51.9396493
  59.9436993  56.5364913  51.3266493  58.8676993  56.9314913  52.0806493
  59.6196993  57.0004913  51.8696493  62.6916993  66.6744913  38.0556493
  63.4086993  66.3274913  37.6996493  62.6576993  67.4744913  37.7076493
  62.7926993  66.7414913  37.9516493  64.1006993  55.3154913  22.2944083
  63.8556993  55.8034913  21.6144083  64.9636993  55.2424913  22.1944083
  64.1916993  55.3764913  22.1794083  63.9096993  62.2314913  26.9654083
  63.3856993  62.8274913  27.3284083  64.3066993  61.8634913  27.6494083
  63.8906993  62.2654913  27.1204083  53.7786993  66.3714913  22.4214083
  53.3376993  66.4894913  23.1644083  53.4956993  65.5964913  22.1364083
  53.6716993  66.2744913  22.4894083  53.5216993  60.1634913  18.9284083
  52.7436993  60.3254913  18.5684083  53.5606993  59.2924913  18.9504083
  53.4126993  60.0584913  18.8784083  56.6606993  65.4264913  17.6004083
  56.2686993  65.0554913  16.9144083  56.5806993  64.8284913  18.2294083
  56.5906993  65.2834913  17.5914083  56.2876993  67.0674913  21.5004083
  56.8956993  66.8974913  22.1034083  55.5366993  66.9274913  21.9214083
  56.2666993  67.0214913  21.6514083  60.5696993  56.4024913  21.4494083
  60.4996993  57.0794913  20.9034083  61.3106993  56.0144913  21.2004083
  60.6686993  56.4454913  21.3314083  55.1786993  70.1584913  17.5774083
  55.6456993  70.2424913  16.8454083  55.6336993  69.5804913  18.0464083
  55.3146993  70.0854913  17.5384083  53.7186993  69.1064913  28.6764083
  53.8476993  68.8264913  29.4924083  53.1086993  68.5654913  28.3674083
  53.6476993  68.9854913  28.7514083  60.2926993  66.6314913  33.7434083
  60.0566993  66.6284913  34.5834083  59.5446993  66.4834913  33.3194083
  60.1466993  66.6084913  33.8044083  55.1646993  63.6274913  22.8784083
  54.7026993  63.2354913  22.2514083  55.8646993  63.1144913  22.9704083
  55.1996993  63.4944913  22.7994083  59.6726993  59.2374913  28.2254083
  60.3506993  59.2554913  27.6764083  59.6276993  58.4014913  28.4704083
  59.7656993  59.1164913  28.1804083  57.1656993  61.7274913  22.9014083
  57.9826993  61.5404913  23.1444083  56.6886993  61.1134913  23.2974083
  57.2156993  61.6094913  22.9964083  61.3696993  67.7084913  25.5114083
  61.7176993  66.9094913  25.5414083  62.0346993  68.2124913  25.2564083
  61.5196993  67.6644913  25.4784083  61.4266993  67.1574913  21.7224083
  61.7576993  66.5134913  22.2084083  61.6666993  66.9464913  20.9114083
  61.5106993  67.0314913  21.6744083  63.3946993  61.2884913  33.0614083
  62.5466993  61.1894913  32.8834083  63.4236993  62.0334913  33.5154083
  63.2736993  61.3844913  33.1024083  57.7626993  56.8214913  22.1674083
  57.4666993  57.3224913  21.5174083  58.6296993  56.8994913  22.1104083
  57.8466993  56.9074913  22.0634083  60.7416993  55.9634913  24.3904083
  60.8146993  56.8234913  24.5194083  60.7036993  55.8884913  23.5224083
  60.7466993  56.0794913  24.2814083  65.4146993  58.8894913  16.6894083
  64.9646993  59.5704913  16.9964083  65.5286993  58.3854913  17.3924083
  65.3656993  58.9154913  16.8384083  53.6206993  61.3884913  25.8914083
  53.3646993  62.2194913  25.8164083  52.9566993  61.0054913  26.3084083
  53.4846993  61.4544913  25.9424083  59.3706993  68.9424913  21.2714083
  58.7916993  68.6674913  21.8634083  59.9946993  68.3334913  21.2964083
  59.3776993  68.8124913  21.3624083  56.6496993  56.2054913  26.3824083
  56.1286993  55.5774913  26.0744083  57.2406993  55.7684913  26.8534083
  56.6606993  56.0474913  26.4064083  59.9556993  58.3384913  35.6804083
  60.0726993  57.8844913  34.9444083  60.2436993  59.1364913  35.4774083
  60.0156993  58.3894913  35.5414083  55.0756993  69.7684913  21.7224083
  55.7316993  69.1934913  21.7374083  55.4646993  70.5174913  21.5014083
  55.2306993  69.7934913  21.6924083  55.6886993  57.9354913  34.6644083
  54.9106993  57.5454913  34.5924083  56.1796993  57.5234913  34.0734083
  55.6456993  57.8164913  34.5664083  55.8936993  68.2554913  25.2224083
  56.3166993  67.8994913  24.5484083  56.2176993  67.8334913  25.9144083
  56.0036993  68.1404913  25.2254083  62.3376993  55.5784913  33.8324083
  62.5156993  54.7694913  33.5574083  62.1946993  56.0194913  33.0934083
  62.3426993  55.5244913  33.6824083  62.9316993  60.5044913  22.6054083
  63.2186993  60.2724913  21.8154083  63.6636993  60.5834913  23.0744083
  63.0816993  60.4814913  22.5584083  63.6536993  60.8434913  17.7264083
  63.9346993  61.6314913  17.9754083  62.8776993  61.0084913  17.3634083
  63.5806993  60.9844913  17.7094083  53.0366993  58.4834913  32.2504083
  53.0326993  59.0704913  32.8964083  53.6306993  58.7954913  31.6934083
  53.1236993  58.6164913  32.2634083  62.5126993  69.0144913  17.5424083
  62.3316993  69.5594913  18.1994083  63.2786993  69.3044913  17.2414083
  62.5986993  69.1384913  17.5954083  53.9736993  58.0784913  21.1654083
  53.8596993  57.2144913  21.1964083  53.4986993  58.3724913  21.8354083
  53.8866993  57.9944913  21.2684083  56.1156993  70.4884913  29.3804083
  55.4176993  69.9804913  29.5064083  56.3756993  70.2834913  28.5724083
  56.0506993  70.3834913  29.2794083  63.2776993  59.2864913  19.9104083
  62.7696993  58.6244913  19.6564083  63.3296993  59.7904913  19.2004083
  63.2106993  59.2634913  19.7684083  63.2776993  56.2274913  19.8014083
  62.8226993  55.8254913  19.1754083  64.0506993  56.3824913  19.4264083
  63.3246993  56.1914913  19.6534083  61.8756993  58.5944913  24.3234083
  61.9496993  59.1624913  23.6654083  61.9966993  59.0864913  25.0334083
  61.9036993  58.7514913  24.3314083  57.4766993  69.3394913  31.9474083
  58.3176993  69.4024913  31.7254083  57.4396993  69.7364913  32.7234083
  57.5956993  69.4074913  32.0294083  56.4836993  54.4174913  22.6714083
  57.0196993  55.1054913  22.6614083  56.4866993  54.1434913  21.8434083
  56.5626993  54.4784913  22.5474083  59.4396993  64.8504913  26.6964083
  59.6116993  64.6404913  27.5254083  58.7846993  64.3164913  26.4804083
  59.3686993  64.7404913  26.7874083  65.6676993  58.7644913  30.2114083
  65.5726993  59.0834913  31.0174083  65.0746993  58.1254913  30.1734083
  65.5656993  58.7164913  30.3254083  60.1896993  64.7884913  29.2864083
  60.2426993  65.6354913  29.4884083  59.9046993  64.4184913  30.0234083
  60.1556993  64.8584913  29.4244083  53.0106993  69.1594913  35.4974083
  53.7666993  69.5084913  35.7554083  53.1876993  68.3064913  35.4404083
  53.1486993  69.0844913  35.5274083  56.9316993  58.2274913  24.3254083
  57.2036993  57.7974913  23.6174083  56.7556993  57.5914913  24.8964083
  56.9456993  58.0704913  24.3054083  56.7556993  65.6544913  23.8744083
  57.6066993  65.5744913  23.7014083  56.3986993  64.9724913  23.4624083
  56.8286993  65.5414913  23.7874083  55.0726993  59.3294913  27.4074083
  55.9156993  59.5494913  27.3644083  54.6836993  59.9024913  26.8764083
  55.1396993  59.4464913  27.3224083  59.1236993  65.6614913  22.1094083
  59.8366993  66.1564913  22.1994083  59.3456993  65.0944913  21.4834083
  59.2616993  65.6504913  22.0304083  53.2796993  67.3044913  25.4294083
  52.6126993  67.7924913  25.7054083  53.9596993  67.8494913  25.4584083
  53.2816993  67.4564913  25.4744083  60.9266993  61.0144913  35.5254083
  60.4426993  61.5914913  35.9674083  60.8986993  61.3094913  34.7044083
  60.8506993  61.1434913  35.4694083  53.3456993  63.9884913  20.5324083
  53.1606993  63.1494913  20.6844083  54.0046993  63.9524913  19.9624083
  53.4156993  63.8594913  20.4704083  63.6466993  69.3644913  24.4364083
  63.1236993  69.9984913  24.1434083  63.9566993  69.0004913  23.7074083
  63.6146993  69.4044913  24.2854083  53.5176993  68.1524913  20.1074083
  54.0696993  68.7214913  20.4714083  53.2856993  67.6374913  20.7724083
  53.5646993  68.1604913  20.2594083  57.7216993  67.1524913  27.1964083
  58.1886993  67.4414913  27.8744083  58.2936993  66.6744913  26.7424083
  57.8756993  67.1244913  27.2294083  53.3476993  66.6014913  17.7354083
  54.1036993  66.1694913  17.7934083  53.3626993  67.1334913  18.4264083
  53.4616993  66.6164913  17.8464083  54.2876993  64.8224913  25.7404083
  54.7186993  64.6934913  24.9934083  54.0826993  65.6704913  25.7144083
  54.3206993  64.9284913  25.6264083  60.6336993  58.3864913  19.3904083
  60.6316993  58.2694913  18.5254083  60.4526993  59.2344913  19.4824083
  60.6066993  58.4944913  19.2764083  58.3716993  68.3384913  24.0224083
  58.4976993  69.1814913  24.2094083  59.0396993  67.9394913  24.4184083
  58.4896993  68.4044913  24.1084083  56.5016993  61.8214913  33.8844083
  55.9656993  61.3154913  34.3524083  56.5216993  61.4314913  33.1044083
  56.4246993  61.6884913  33.8384083  56.9866993  61.2184913  19.0244083
  56.8586993  60.7704913  19.7624083  56.4046993  60.8764913  18.4724083
  56.8816993  61.1014913  19.0524083  57.1536993  63.0484913  25.6234083
  56.3726993  62.9894913  25.2404083  57.2256993  62.2964913  26.0604083
  57.0486993  62.9294913  25.6314083  57.5836993  62.7854913  29.0914083
  57.6086993  62.1104913  28.5404083  56.9376993  63.2814913  28.7794083
  57.4926993  62.7584913  28.9644083  64.1236993  56.4044913  30.9164083
  64.2726993  55.5794913  30.6734083  64.5026993  56.4594913  31.7004083
  64.2016993  56.2904913  30.9964083  55.3826993  64.1404913  34.6504083
  55.3456993  64.6414913  33.9364083  55.7136993  63.3884913  34.3554083
  55.4256993  64.1024913  34.5014083  61.2816993  69.1904913  34.0854083
  61.6356993  69.0124913  34.8624083  60.8456993  68.4614913  33.8864083
  61.2696993  69.0564913  34.1714083  62.2536993  59.9374913  26.7234083
  62.7336993  60.6364913  26.9314083  62.6266993  59.2904913  27.1744083
  62.3796993  59.9454913  26.8204083  64.4426993  63.1064913  18.9974083
  64.4346993  63.8284913  18.5074083  63.8036993  63.2414913  19.5744083
  64.3476993  63.2334913  19.0104083  65.4596993  70.0424913  26.8224083
  64.8566993  69.7464913  26.2654083  66.0046993  70.4944913  26.3134083
  65.4506993  70.0654913  26.6644083  65.4726993  66.8934913  26.2224083
  64.6756993  67.1174913  26.4964083  65.7306993  66.2994913  26.8074083
  65.3926993  66.8384913  26.3494083  59.0356993  55.4484913  18.6584083
  59.1326993  55.3414913  19.5194083  58.3276993  55.9544913  18.5934083
  58.9456993  55.5074913  18.7764083  56.1576993  63.7554913  19.9014083
  56.4816993  62.9764913  19.6794083  56.8036993  64.1234913  20.3564083
  56.3006993  63.6944913  19.9354083  64.4636993  64.6974913  30.6684083
  64.3086993  65.3074913  31.2724083  64.9976993  64.1394913  31.0744083
  64.5196993  64.7054913  30.8174083  53.1546993  55.4164913  20.8694083
  53.2836993  54.7084913  20.3774083  52.7876993  55.0984913  21.5944083
  53.1196993  55.2644913  20.9044083  62.8476993  63.0974913  21.3264083
  62.9066993  63.7474913  21.9054083  62.6586993  62.4014913  21.8174083
  62.8286993  63.0904913  21.4844083  57.3436993  57.6144913  17.8384083
  56.8326993  57.6674913  17.1324083  58.1276993  57.8544913  17.5424083
  57.3836993  57.6574913  17.6904083  62.0706993  65.1444913  25.7574083
  61.2236993  64.9504913  25.8384083  62.3946993  64.9794913  26.5504083
  61.9926993  65.0914913  25.8864083  55.9186993  64.8374913  28.0734083
  56.6406993  65.3254913  28.0364083  55.6486993  64.8074913  27.2444083
  55.9856993  64.9054913  27.9454083  59.1486993  60.0084913  24.8084083
  59.9946993  59.8184913  24.9064083  58.7786993  59.2314913  24.6704083
  59.2186993  59.8654913  24.8024083  53.9696993  61.3464913  21.4634083
  54.4586993  61.0544913  22.1244083  54.0986993  60.7534913  20.8364083
  54.0606993  61.2154913  21.4684083  58.4946993  62.7804913  16.9494083
  57.8846993  62.3754913  17.4234083  58.1086993  62.8984913  16.1764083
  58.3476993  62.7374913  16.9054083  55.3136993  65.8894913  32.3514083
  54.8926993  65.3714913  31.7904083  54.9616993  66.6754913  32.2084083
  55.1996993  65.9294913  32.2474083  59.9496993  61.2414913  19.6594083
  60.2216993  62.0674913  19.7264083  59.0866993  61.3164913  19.5634083
  59.8626993  61.3744913  19.6544083  53.4296993  57.2114913  26.1954083
  53.4736993  57.5554913  25.3944083  54.1846993  57.4484913  26.5624083
  53.5476993  57.2974913  26.1314083  65.3706993  66.5504913  17.6654083
  66.0546993  66.0364913  17.4964083  64.9536993  66.5964913  16.9004083
  65.4096993  66.4814913  17.5274083  60.0526993  67.7004913  28.9694083
  59.7546993  68.2924913  29.5364083  60.1076993  68.1424913  28.2204083
  60.0166993  67.8534913  28.9424083  58.0316993  66.6504913  32.3674083
  57.2256993  66.3604913  32.5344083  57.9426993  67.5184913  32.3734083
  57.8996993  66.7354913  32.3924083  62.5686993  64.1234913  28.4604083
  63.0446993  64.4974913  29.0884083  61.7456993  64.2574913  28.7194083
  62.5176993  64.1984913  28.5914083  59.2786993  59.7264913  31.2014083
  59.4396993  58.9824913  31.6284083  59.2336993  59.4774913  30.3664083
  59.2956993  59.5794913  31.1414083  61.0306993  55.5344913  31.0814083
  61.7356993  55.8544913  30.6794083  61.2716993  54.7274913  31.3084083
  61.1696993  55.4624913  31.0554083  60.0156993  69.7444913  27.0774083
  59.3916993  70.3264913  26.8954083  60.2636993  69.4584913  26.2914083
  59.9596993  69.7884913  26.9344083  64.3246993  66.3784913  34.0664083
  65.0816993  66.6644913  33.7404083  63.7776993  66.4304913  33.3884083
  64.3556993  66.4284913  33.9174083  61.6096993  64.5204913  16.9924083
  60.8046993  64.3434913  16.7074083  61.5766993  65.3714913  17.1844083
  61.4856993  64.6194913  16.9794083  57.5396993  60.5874913  27.1424083
  57.9796993  60.4844913  26.3964083  58.0846993  60.2744913  27.7474083
  57.6846993  60.5264913  27.1214083  65.5556993  59.6894913  32.7344083
  64.9076993  60.1594913  33.0824083  66.1206993  59.6004913  33.3934083
  65.5436993  59.7454913  32.8834083  65.2436993  61.2264913  29.0324083
  65.5456993  61.6464913  29.7354083  65.2796993  60.3864913  29.2644083
  65.2936993  61.1644913  29.1704083  61.0866993  55.5724913  27.1894083
  60.2606993  55.4234913  27.4264083  61.0466993  55.6074913  26.3184083
  60.9586993  55.5554913  27.0954083  62.7276993  66.6124913  31.9774083
  61.9326993  66.5484913  32.3284083  62.7986993  67.4594913  31.7824083
  62.6206993  66.7274913  32.0004083  53.6516993  55.9704913  33.2244083
  53.5116993  56.7654913  32.8934083  52.8656993  55.7274913  33.5134083
  53.5146993  56.0524913  33.2184083  56.7156993  58.7144913  20.4494083
  56.8416993  58.3854913  19.6514083  55.9036993  58.4654913  20.6484083
  56.6146993  58.6294913  20.3614083  65.4726993  65.8674913  23.4934083
  65.5486993  66.2084913  24.2924083  65.6416993  65.0204913  23.6144083
  65.5086993  65.7924913  23.6294083  62.9946993  65.1414913  23.0584083
  62.6966993  64.8264913  23.8154083  63.6896993  65.6144913  23.2934083
  63.0536993  65.1644913  23.2054083  63.2166993  69.2594913  31.0854083
  63.9036993  69.1454913  31.6104083  63.3506993  70.0504913  30.7414083
  63.3376993  69.3594913  31.1124083  63.8396993  63.7234913  34.6594083
  64.1626993  64.4094913  34.2274083  63.1356993  64.0464913  35.0614083
  63.7826993  63.8724913  34.6544083  63.6246993  67.1874913  28.5184083
  62.9306993  67.5894913  28.8614083  64.3016993  67.6204913  28.8574083
  63.6216993  67.3104913  28.6194083  56.6926993  60.7254913  30.8654083
  57.0676993  61.3444913  30.3784083  57.3666993  60.2514913  31.1504083
  56.8476993  60.7474913  30.8354083  54.4676993  59.1734913  30.1404083
  54.5446993  59.0044913  29.2874083  55.2136993  59.5794913  30.3374083
  54.5886993  59.2084913  30.0434083  57.0216993  56.5834913  32.5514083
  56.9406993  55.7394913  32.7574083  56.7076993  56.6274913  31.7384083
  56.9636993  56.4654913  32.4614083  63.9466993  68.7784913  21.6874083
  63.7416993  69.6114913  21.5284083  63.1716993  68.3964913  21.8094083
  63.8016993  68.8454913  21.6824083  53.8646993  64.3994913  30.3644083
  54.1846993  64.6184913  29.5834083  53.7646993  63.5344913  30.3094083
  53.8966993  64.3044913  30.2414083  55.3206993  60.3354913  16.9824083
  54.6486993  60.3494913  17.5384083  55.4156993  59.4874913  16.7984083
  55.2356993  60.2124913  17.0374083  65.0076993  56.7594913  33.7184083
  65.0996993  57.4714913  34.2124083  64.3706993  56.3144913  34.1154083
  64.9266993  56.7984913  33.8504083  64.0016993  56.9494913  24.5724083
  63.3016993  57.4674913  24.5164083  64.0396993  56.5694913  23.7884083
  63.9036993  56.9704913  24.4484083  59.3086993  69.0404913  18.0964083
  59.7496993  69.1204913  18.8444083  58.5036993  68.8244913  18.3544083
  59.2546993  69.0204913  18.2454083  58.6276993  63.6914913  31.7494083
  58.2316993  64.4654913  31.8244083  58.2216993  63.3184913  31.0734083
  58.5096993  63.7504913  31.6604083  56.6376993  68.1104913  18.6974083
  56.3936993  67.8034913  19.4774083  56.6046993  67.4074913  18.1814083
  56.5966993  67.9614913  18.7364083  59.4566993  66.3554913  17.4404083
  58.6386993  66.0874913  17.5804083  59.4286993  67.2074913  17.6254083
  59.3316993  66.4424913  17.4884083  59.0566993  56.6684913  29.1994083
  58.1926993  56.7524913  29.2794083  59.2766993  56.1544913  29.8684083
  58.9616993  56.6054913  29.3104083  63.1596993  57.4164913  27.5734083
  62.4226993  56.9624913  27.6864083  63.7306993  57.0144913  28.0964083
  63.1346993  57.2894913  27.6674083  65.8916993  68.2644913  29.3614083
  66.0976993  68.5654913  30.1534083  65.8306993  68.9864913  28.8764083
  65.9126993  68.4154913  29.4064083  60.6626993  61.7454913  32.7774083
  60.3406993  61.1694913  32.2074083  60.3036993  62.5004913  32.5314083
  60.5626993  61.7714913  32.6574083  61.4586993  54.9974913  17.4044083
  61.5366993  55.2444913  16.5714083  60.7156993  55.3744913  17.6624083
  61.3606993  55.0894913  17.3194083  56.2766993  56.7514913  29.8474083
  55.9336993  55.9844913  29.6134083  55.5816993  57.2754913  29.9114083
  56.1236993  56.7154913  29.8224083  65.3226993  55.6074913  26.8244083
  65.9926993  56.1514913  26.9514083  64.8196993  56.0314913  26.2514083
  65.3476993  55.7504913  26.7584083  64.6816993  61.4154913  24.3174083
  65.2326993  60.8084913  24.6174083  64.2566993  61.6784913  25.0324083
  64.7006993  61.3644913  24.4664083  54.9296993  60.0654913  23.8034083
  54.5616993  60.3674913  24.5344083  55.4636993  59.4364913  24.0874083
  54.9536993  60.0174913  23.9534083  54.6176993  68.4734913  31.3144083
  54.0436993  68.8894913  31.8234083  55.3506993  68.9384913  31.4094083
  54.6416993  68.6034913  31.4034083  60.5706993  64.1374913  19.8174083
  60.6706993  64.2764913  18.9624083  61.3886993  64.0774913  20.1134083
  60.7056993  64.1484913  19.7344083  65.8056993  68.4664913  19.6194083
  65.5546993  68.3384913  20.4454083  65.4886993  67.7714913  19.1984083
  65.7216993  68.3454913  19.6794083  59.7096993  57.1124913  32.9334083
  59.9436993  56.5364913  32.3204083  58.8676993  56.9314913  33.0744083
  59.6196993  57.0004913  32.8634083  62.6916993  66.6744913  19.0494083
  63.4086993  66.3274913  18.6934083  62.6576993  67.4744913  18.7014083
  62.7926993  66.7414913  18.9454083  64.1006993  55.3154913   3.2881673
  63.8556993  55.8034913   2.6081673  64.9636993  55.2424913   3.1881673
  64.1916993  55.3764913   3.1731673  63.9096993  62.2314913   7.9591673
  63.3856993  62.8274913   8.3221673  64.3066993  61.8634913   8.6431673
  63.8906993  62.2654913   8.1141673  53.7786993  66.3714913   3.4151673
  53.3376993  66.4894913   4.1581673  53.4956993  65.5964913   3.1301673
  53.6716993  66.2744913   3.4831673  56.2876993  67.0674913   2.4941673
  56.8956993  66.8974913   3.0971673  55.5366993  66.9274913   2.9151673
  56.2666993  67.0214913   2.6451673  60.5696993  56.4024913   2.4431673
  60.4996993  57.0794913   1.8971673  61.3106993  56.0144913   2.1941673
  60.6686993  56.4454913   2.3251673  53.7186993  69.1064913   9.6701673
  53.8476993  68.8264913  10.4861673  53.1086993  68.5654913   9.3611673
  53.6476993  68.9854913   9.7451673  60.2926993  66.6314913  14.7371673
  60.0566993  66.6284913  15.5771673  59.5446993  66.4834913  14.3131673
  60.1466993  66.6084913  14.7981673  55.1646993  63.6274913   3.8721673
  54.7026993  63.2354913   3.2451673  55.8646993  63.1144913   3.9641673
  55.1996993  63.4944913   3.7931673  59.6726993  59.2374913   9.2191673
  60.3506993  59.2554913   8.6701673  59.6276993  58.4014913   9.4641673
  59.7656993  59.1164913   9.1741673  57.1656993  61.7274913   3.8951673
  57.9826993  61.5404913   4.1381673  56.6886993  61.1134913   4.2911673
  57.2156993  61.6094913   3.9901673  61.3696993  67.7084913   6.5051673
  61.7176993  66.9094913   6.5351673  62.0346993  68.2124913   6.2501673
  61.5196993  67.6644913   6.4721673  61.4266993  67.1574913   2.7161673
  61.7576993  66.5134913   3.2021673  61.6666993  66.9464913   1.9051673
  61.5106993  67.0314913   2.6681673  63.3946993  61.2884913  14.0551673
  62.5466993  61.1894913  13.8771673  63.4236993  62.0334913  14.5091673
  63.2736993  61.3844913  14.0961673  57.7626993  56.8214913   3.1611673
  57.4666993  57.3224913   2.5111673  58.6296993  56.8994913   3.1041673
  57.8466993  56.9074913   3.0571673  60.7416993  55.9634913   5.3841673
  60.8146993  56.8234913   5.5131673  60.7036993  55.8884913   4.5161673
  60.7466993  56.0794913   5.2751673  53.6206993  61.3884913   6.8851673
  53.3646993  62.2194913   6.8101673  52.9566993  61.0054913   7.3021673
  53.4846993  61.4544913   6.9361673  59.3706993  68.9424913   2.2651673
  58.7916993  68.6674913   2.8571673  59.9946993  68.3334913   2.2901673
  59.3776993  68.8124913   2.3561673  56.6496993  56.2054913   7.3761673
  56.1286993  55.5774913   7.0681673  57.2406993  55.7684913   7.8471673
  56.6606993  56.0474913   7.4001673  59.9556993  58.3384913  16.6741673
  60.0726993  57.8844913  15.9381673  60.2436993  59.1364913  16.4711673
  60.0156993  58.3894913  16.5351673  55.0756993  69.7684913   2.7161673
  55.7316993  69.1934913   2.7311673  55.4646993  70.5174913   2.4951673
  55.2306993  69.7934913   2.6861673  55.6886993  57.9354913  15.6581673
  54.9106993  57.5454913  15.5861673  56.1796993  57.5234913  15.0671673
  55.6456993  57.8164913  15.5601673  55.8936993  68.2554913   6.2161673
  56.3166993  67.8994913   5.5421673  56.2176993  67.8334913   6.9081673
  56.0036993  68.1404913   6.2191673  62.3376993  55.5784913  14.8261673
  62.5156993  54.7694913  14.5511673  62.1946993  56.0194913  14.0871673
  62.3426993  55.5244913  14.6761673  62.9316993  60.5044913   3.5991673
  63.2186993  60.2724913   2.8091673  63.6636993  60.5834913   4.0681673
  63.0816993  60.4814913   3.5521673  53.0366993  58.4834913  13.2441673
  53.0326993  59.0704913  13.8901673  53.6306993  58.7954913  12.6871673
  53.1236993  58.6164913  13.2571673  53.9736993  58.0784913   2.1591673
  53.8596993  57.2144913   2.1901673  53.4986993  58.3724913   2.8291673
  53.8866993  57.9944913   2.2621673  56.1156993  70.4884913  10.3741673
  55.4176993  69.9804913  10.5001673  56.3756993  70.2834913   9.5661673
  56.0506993  70.3834913  10.2731673  61.8756993  58.5944913   5.3171673
  61.9496993  59.1624913   4.6591673  61.9966993  59.0864913   6.0271673
  61.9036993  58.7514913   5.3251673  57.4766993  69.3394913  12.9411673
  58.3176993  69.4024913  12.7191673  57.4396993  69.7364913  13.7171673
  57.5956993  69.4074913  13.0231673  56.4836993  54.4174913   3.6651673
  57.0196993  55.1054913   3.6551673  56.4866993  54.1434913   2.8371673
  56.5626993  54.4784913   3.5411673  59.4396993  64.8504913   7.6901673
  59.6116993  64.6404913   8.5191673  58.7846993  64.3164913   7.4741673
  59.3686993  64.7404913   7.7811673  65.6676993  58.7644913  11.2051673
  65.5726993  59.0834913  12.0111673  65.0746993  58.1254913  11.1671673
  65.5656993  58.7164913  11.3191673  60.1896993  64.7884913  10.2801673
  60.2426993  65.6354913  10.4821673  59.9046993  64.4184913  11.0171673
  60.1556993  64.8584913  10.4181673  53.0106993  69.1594913  16.4911673
  53.7666993  69.5084913  16.7491673  53.1876993  68.3064913  16.4341673
  53.1486993  69.0844913  16.5211673  56.9316993  58.2274913   5.3191673
  57.2036993  57.7974913   4.6111673  56.7556993  57.5914913   5.8901673
  56.9456993  58.0704913   5.2991673  56.7556993  65.6544913   4.8681673
  57.6066993  65.5744913   4.6951673  56.3986993  64.9724913   4.4561673
  56.8286993  65.5414913   4.7811673  55.0726993  59.3294913   8.4011673
  55.9156993  59.5494913   8.3581673  54.6836993  59.9024913   7.8701673
  55.1396993  59.4464913   8.3161673  59.1236993  65.6614913   3.1031673
  59.8366993  66.1564913   3.1931673  59.3456993  65.0944913   2.4771673
  59.2616993  65.6504913   3.0241673  53.2796993  67.3044913   6.4231673
  52.6126993  67.7924913   6.6991673  53.9596993  67.8494913   6.4521673
  53.2816993  67.4564913   6.4681673  60.9266993  61.0144913  16.5191673
  60.4426993  61.5914913  16.9611673  60.8986993  61.3094913  15.6981673
  60.8506993  61.1434913  16.4631673  63.6466993  69.3644913   5.4301673
  63.1236993  69.9984913   5.1371673  63.9566993  69.0004913   4.7011673
  63.6146993  69.4044913   5.2791673  57.7216993  67.1524913   8.1901673
  58.1886993  67.4414913   8.8681673  58.2936993  66.6744913   7.7361673
  57.8756993  67.1244913   8.2231673  54.2876993  64.8224913   6.7341673
  54.7186993  64.6934913   5.9871673  54.0826993  65.6704913   6.7081673
  54.3206993  64.9284913   6.6201673  58.3716993  68.3384913   5.0161673
  58.4976993  69.1814913   5.2031673  59.0396993  67.9394913   5.4121673
  58.4896993  68.4044913   5.1021673  56.5016993  61.8214913  14.8781673
  55.9656993  61.3154913  15.3461673  56.5216993  61.4314913  14.0981673
  56.4246993  61.6884913  14.8321673  57.1536993  63.0484913   6.6171673
  56.3726993  62.9894913   6.2341673  57.2256993  62.2964913   7.0541673
  57.0486993  62.9294913   6.6251673  57.5836993  62.7854913  10.0851673
  57.6086993  62.1104913   9.5341673  56.9376993  63.2814913   9.7731673
  57.4926993  62.7584913   9.9581673  64.1236993  56.4044913  11.9101673
  64.2726993  55.5794913  11.6671673  64.5026993  56.4594913  12.6941673
  64.2016993  56.2904913  11.9901673  55.3826993  64.1404913  15.6441673
  55.3456993  64.6414913  14.9301673  55.7136993  63.3884913  15.3491673
  55.4256993  64.1024913  15.4951673  61.2816993  69.1904913  15.0791673
  61.6356993  69.0124913  15.8561673  60.8456993  68.4614913  14.8801673
  61.2696993  69.0564913  15.1651673  62.2536993  59.9374913   7.7171673
  62.7336993  60.6364913   7.9251673  62.6266993  59.2904913   8.1681673
  62.3796993  59.9454913   7.8141673  65.4596993  70.0424913   7.8161673
  64.8566993  69.7464913   7.2591673  66.0046993  70.4944913   7.3071673
  65.4506993  70.0654913   7.6581673  65.4726993  66.8934913   7.2161673
  64.6756993  67.1174913   7.4901673  65.7306993  66.2994913   7.8011673
  65.3926993  66.8384913   7.3431673  64.4636993  64.6974913  11.6621673
  64.3086993  65.3074913  12.2661673  64.9976993  64.1394913  12.0681673
  64.5196993  64.7054913  11.8111673  53.1546993  55.4164913   1.8631673
  53.2836993  54.7084913   1.3711673  52.7876993  55.0984913   2.5881673
  53.1196993  55.2644913   1.8981673  62.8476993  63.0974913   2.3201673
  62.9066993  63.7474913   2.8991673  62.6586993  62.4014913   2.8111673
  62.8286993  63.0904913   2.4781673  62.0706993  65.1444913   6.7511673
  61.2236993  64.9504913   6.8321673  62.3946993  64.9794913   7.5441673
  61.9926993  65.0914913   6.8801673  55.9186993  64.8374913   9.0671673
  56.6406993  65.3254913   9.0301673  55.6486993  64.8074913   8.2381673
  55.9856993  64.9054913   8.9391673  59.1486993  60.0084913   5.8021673
  59.9946993  59.8184913   5.9001673  58.7786993  59.2314913   5.6641673
  59.2186993  59.8654913   5.7961673  53.9696993  61.3464913   2.4571673
  54.4586993  61.0544913   3.1181673  54.0986993  60.7534913   1.8301673
  54.0606993  61.2154913   2.4621673  55.3136993  65.8894913  13.3451673
  54.8926993  65.3714913  12.7841673  54.9616993  66.6754913  13.2021673
  55.1996993  65.9294913  13.2411673  53.4296993  57.2114913   7.1891673
  53.4736993  57.5554913   6.3881673  54.1846993  57.4484913   7.5561673
  53.5476993  57.2974913   7.1251673  60.0526993  67.7004913   9.9631673
  59.7546993  68.2924913  10.5301673  60.1076993  68.1424913   9.2141673
  60.0166993  67.8534913   9.9361673  58.0316993  66.6504913  13.3611673
  57.2256993  66.3604913  13.5281673  57.9426993  67.5184913  13.3671673
  57.8996993  66.7354913  13.3861673  62.5686993  64.1234913   9.4541673
  63.0446993  64.4974913  10.0821673  61.7456993  64.2574913   9.7131673
  62.5176993  64.1984913   9.5851673  59.2786993  59.7264913  12.1951673
  59.4396993  58.9824913  12.6221673  59.2336993  59.4774913  11.3601673
  59.2956993  59.5794913  12.1351673  61.0306993  55.5344913  12.0751673
  61.7356993  55.8544913  11.6731673  61.2716993  54.7274913  12.3021673
  61.1696993  55.4624913  12.0491673  60.0156993  69.7444913   8.0711673
  59.3916993  70.3264913   7.8891673  60.2636993  69.4584913   7.2851673
  59.9596993  69.7884913   7.9281673  64.3246993  66.3784913  15.0601673
  65.0816993  66.6644913  14.7341673  63.7776993  66.4304913  14.3821673
  64.3556993  66.4284913  14.9111673  57.5396993  60.5874913   8.1361673
  57.9796993  60.4844913   7.3901673  58.0846993  60.2744913   8.7411673
  57.6846993  60.5264913   8.1151673  65.5556993  59.6894913  13.7281673
  64.9076993  60.1594913  14.0761673  66.1206993  59.6004913  14.3871673
  65.5436993  59.7454913  13.8771673  65.2436993  61.2264913  10.0261673
  65.5456993  61.6464913  10.7291673  65.2796993  60.3864913  10.2581673
  65.2936993  61.1644913  10.1641673  61.0866993  55.5724913   8.1831673
  60.2606993  55.4234913   8.4201673  61.0466993  55.6074913   7.3121673
  60.9586993  55.5554913   8.0891673  62.7276993  66.6124913  12.9711673
  61.9326993  66.5484913  13.3221673  62.7986993  67.4594913  12.7761673
  62.6206993  66.7274913  12.9941673  53.6516993  55.9704913  14.2181673
  53.5116993  56.7654913  13.8871673  52.8656993  55.7274913  14.5071673
  53.5146993  56.0524913  14.2121673  65.4726993  65.8674913   4.4871673
  65.5486993  66.2084913   5.2861673  65.6416993  65.0204913   4.6081673
  65.5086993  65.7924913   4.6231673  62.9946993  65.1414913   4.0521673
  62.6966993  64.8264913   4.8091673  63.6896993  65.6144913   4.2871673
  63.0536993  65.1644913   4.1991673  63.2166993  69.2594913  12.0791673
  63.9036993  69.1454913  12.6041673  63.3506993  70.0504913  11.7351673
  63.3376993  69.3594913  12.1061673  63.8396993  63.7234913  15.6531673
  64.1626993  64.4094913  15.2211673  63.1356993  64.0464913  16.0551673
  63.7826993  63.8724913  15.6481673  63.6246993  67.1874913   9.5121673
  62.9306993  67.5894913   9.8551673  64.3016993  67.6204913   9.8511673
  63.6216993  67.3104913   9.6131673  56.6926993  60.7254913  11.8591673
  57.0676993  61.3444913  11.3721673  57.3666993  60.2514913  12.1441673
  56.8476993  60.7474913  11.8291673  54.4676993  59.1734913  11.1341673
  54.5446993  59.0044913  10.2811673  55.2136993  59.5794913  11.3311673
  54.5886993  59.2084913  11.0371673  57.0216993  56.5834913  13.5451673
  56.9406993  55.7394913  13.7511673  56.7076993  56.6274913  12.7321673
  56.9636993  56.4654913  13.4551673  63.9466993  68.7784913   2.6811673
  63.7416993  69.6114913   2.5221673  63.1716993  68.3964913   2.8031673
  63.8016993  68.8454913   2.6761673  53.8646993  64.3994913  11.3581673
  54.1846993  64.6184913  10.5771673  53.7646993  63.5344913  11.3031673
  53.8966993  64.3044913  11.2351673  65.0076993  56.7594913  14.7121673
  65.0996993  57.4714913  15.2061673  64.3706993  56.3144913  15.1091673
  64.9266993  56.7984913  14.8441673  64.0016993  56.9494913   5.5661673
  63.3016993  57.4674913   5.5101673  64.0396993  56.5694913   4.7821673
  63.9036993  56.9704913   5.4421673  58.6276993  63.6914913  12.7431673
  58.2316993  64.4654913  12.8181673  58.2216993  63.3184913  12.0671673
  58.5096993  63.7504913  12.6541673  59.0566993  56.6684913  10.1931673
  58.1926993  56.7524913  10.2731673  59.2766993  56.1544913  10.8621673
  58.9616993  56.6054913  10.3041673  63.1596993  57.4164913   8.5671673
  62.4226993  56.9624913   8.6801673  63.7306993  57.0144913   9.0901673
  63.1346993  57.2894913   8.6611673  65.8916993  68.2644913  10.3551673
  66.0976993  68.5654913  11.1471673  65.8306993  68.9864913   9.8701673
  65.9126993  68.4154913  10.4001673  60.6626993  61.7454913  13.7711673
  60.3406993  61.1694913  13.2011673  60.3036993  62.5004913  13.5251673
  60.5626993  61.7714913  13.6511673  56.2766993  56.7514913  10.8411673
  55.9336993  55.9844913  10.6071673  55.5816993  57.2754913  10.9051673
  56.1236993  56.7154913  10.8161673  65.3226993  55.6074913   7.8181673
  65.9926993  56.1514913   7.9451673  64.8196993  56.0314913   7.2451673
  65.3476993  55.7504913   7.7521673  64.6816993  61.4154913   5.3111673
  65.2326993  60.8084913   5.6111673  64.2566993  61.6784913   6.0261673
  64.7006993  61.3644913   5.4601673  54.9296993  60.0654913   4.7971673
  54.5616993  60.3674913   5.5281673  55.4636993  59.4364913   5.0811673
  54.9536993  60.0174913   4.9471673  54.6176993  68.4734913  12.3081673
  54.0436993  68.8894913  12.8171673  55.3506993  68.9384913  12.4031673
  54.6416993  68.6034913  12.3971673  59.7096993  57.1124913  13.9271673
  59.9436993  56.5364913  13.3141673  58.8676993  56.9314913  14.0681673
  59.6196993  57.0004913  13.8571673  64.1006993  36.8373833  79.3131313
  63.8556993  37.3253833  78.6331313  64.9636993  36.7643833  79.2131313
  64.1916993  36.8983833  79.1981313  63.9096993  43.7533833  83.9841313
  63.3856993  44.3493833  84.3471313  64.3066993  43.3853833  84.6681313
  63.8906993  43.7873833  84.1391313  53.7786993  47.8933833  79.4401313
  53.3376993  48.0113833  80.1831313  53.4956993  47.1183833  79.1551313
  53.6716993  47.7963833  79.5081313  53.5216993  41.6853833  75.9471313
  52.7436993  41.8473833  75.5871313  53.5606993  40.8143833  75.9691313
  53.4126993  41.5803833  75.8971313  56.6606993  46.9483833  74.6191313
  56.2686993  46.5773833  73.9331313  56.5806993  46.3503833  75.2481313
  56.5906993  46.8053833  74.6101313  56.2876993  48.5893833  78.5191313
  56.8956993  48.4193833  79.1221313  55.5366993  48.4493833  78.9401313
  56.2666993  48.5433833  78.6701313  60.5696993  37.9243833  78.4681313
  60.4996993  38.6013833  77.9221313  61.3106993  37.5363833  78.2191313
  60.6686993  37.9673833  78.3501313  55.1786993  51.6803833  74.5961313
  55.6456993  51.7643833  73.8641313  55.6336993  51.1023833  75.0651313
  55.3146993  51.6073833  74.5571313  53.7186993  50.6283833  85.6951313
  53.8476993  50.3483833  86.5111313  53.1086993  50.0873833  85.3861313
  53.6476993  50.5073833  85.7701313  55.1646993  45.1493833  79.8971313
  54.7026993  44.7573833  79.2701313  55.8646993  44.6363833  79.9891313
  55.1996993  45.0163833  79.8181313  59.6726993  40.7593833  85.2441313
  60.3506993  40.7773833  84.6951313  59.6276993  39.9233833  85.4891313
  59.7656993  40.6383833  85.1991313  60.2746993  51.3453833  88.0251313
  60.4126993  52.1053833  87.6181313  61.0656993  50.9803833  88.0521313
  60.4116993  51.4043833  87.9691313  57.1656993  43.2493833  79.9201313
  57.9826993  43.0623833  80.1631313  56.6886993  42.6353833  80.3161313
  57.2156993  43.1313833  80.0151313  61.3696993  49.2303833  82.5301313
  61.7176993  48.4313833  82.5601313  62.0346993  49.7343833  82.2751313
  61.5196993  49.1863833  82.4971313  61.4266993  48.6793833  78.7411313
  61.7576993  48.0353833  79.2271313  61.6666993  48.4683833  77.9301313
  61.5106993  48.5533833  78.6931313  57.7626993  38.3433833  79.1861313
  57.4666993  38.8443833  78.5361313  58.6296993  38.4213833  79.1291313
  57.8466993  38.4293833  79.0821313  60.7416993  37.4853833  81.4091313
  60.8146993  38.3453833  81.5381313  60.7036993  37.4103833  80.5411313
  60.7466993  37.6013833  81.3001313  65.4146993  40.4113833  73.7081313
  64.9646993  41.0923833  74.0151313  65.5286993  39.9073833  74.4111313
  65.3656993  40.4373833  73.8571313  53.6206993  42.9103833  82.9101313
  53.3646993  43.7413833  82.8351313  52.9566993  42.5273833  83.3271313
  53.4846993  42.9763833  82.9611313  53.5306993  52.6203833  80.8101313
  52.9386993  53.1783833  80.4971313  53.9566993  52.3513833  80.0981313
  53.5066993  52.6623833  80.6591313  59.3706993  50.4643833  78.2901313
  58.7916993  50.1893833  78.8821313  59.9946993  49.8553833  78.3151313
  59.3776993  50.3343833  78.3811313  63.6816993  53.1443833  77.8021313
  63.8956993  53.6713833  78.4641313  64.4486993  52.9703833  77.4231313
  63.8266993  53.1963833  77.8441313  56.6496993  37.7273833  83.4011313
  56.1286993  37.0993833  83.0931313  57.2406993  37.2903833  83.8721313
  56.6606993  37.5693833  83.4251313  55.0756993  51.2903833  78.7411313
  55.7316993  50.7153833  78.7561313  55.4646993  52.0393833  78.5201313
  55.2306993  51.3153833  78.7111313  55.8936993  49.7773833  82.2411313
  56.3166993  49.4213833  81.5671313  56.2176993  49.3553833  82.9331313
  56.0036993  49.6623833  82.2441313  59.1246993  52.6293833  81.5371313
  59.9686993  52.7333833  81.3421313  58.8276993  53.4473833  81.6051313
  59.2056993  52.7653833  81.5181313  62.9316993  42.0263833  79.6241313
  63.2186993  41.7943833  78.8341313  63.6636993  42.1053833  80.0931313
  63.0816993  42.0033833  79.5771313  63.6536993  42.3653833  74.7451313
  63.9346993  43.1533833  74.9941313  62.8776993  42.5303833  74.3821313
  63.5806993  42.5063833  74.7281313  58.1226993  53.8483833  87.2771313
  58.4146993  53.7813833  88.0971313  57.4966993  53.2433833  87.2321313
  58.0736993  53.7493833  87.3921313  62.5126993  50.5363833  74.5611313
  62.3316993  51.0813833  75.2181313  63.2786993  50.8263833  74.2601313
  62.5986993  50.6603833  74.6141313  53.9736993  39.6003833  78.1841313
  53.8596993  38.7363833  78.2151313  53.4986993  39.8943833  78.8541313
  53.8866993  39.5163833  78.2871313  56.1156993  52.0103833  86.3991313
  55.4176993  51.5023833  86.5251313  56.3756993  51.8053833  85.5911313
  56.0506993  51.9053833  86.2981313  63.2776993  40.8083833  76.9291313
  62.7696993  40.1463833  76.6751313  63.3296993  41.3123833  76.2191313
  63.2106993  40.7853833  76.7871313  63.8266993  53.5033833  87.3091313
  64.5946993  53.4233833  86.9031313  63.2436993  53.3823833  86.6711313
  63.8536993  53.4733833  87.1551313  63.2776993  37.7493833  76.8201313
  62.8226993  37.3473833  76.1941313  64.0506993  37.9043833  76.4451313
  63.3246993  37.7133833  76.6721313  61.8756993  40.1163833  81.3421313
  61.9496993  40.6843833  80.6841313  61.9966993  40.6083833  82.0521313
  61.9036993  40.2733833  81.3501313  56.4836993  35.9393833  79.6901313
  57.0196993  36.6273833  79.6801313  56.4866993  35.6653833  78.8621313
  56.5626993  36.0003833  79.5661313  59.4396993  46.3723833  83.7151313
  59.6116993  46.1623833  84.5441313  58.7846993  45.8383833  83.4991313
  59.3686993  46.2623833  83.8061313  65.6676993  40.2863833  87.2301313
  65.5726993  40.6053833  88.0361313  65.0746993  39.6473833  87.1921313
  65.5656993  40.2383833  87.3441313  60.1896993  46.3103833  86.3051313
  60.2426993  47.1573833  86.5071313  59.9046993  45.9403833  87.0421313
  60.1556993  46.3803833  86.4431313  56.9316993  39.7493833  81.3441313
  57.2036993  39.3193833  80.6361313  56.7556993  39.1133833  81.9151313
  56.9456993  39.5923833  81.3241313  56.7556993  47.1763833  80.8931313
  57.6066993  47.0963833  80.7201313  56.3986993  46.4943833  80.4811313
  56.8286993  47.0633833  80.8061313  55.5226993  53.9013833  82.1301313
  54.8496993  53.4033833  81.8851313  55.9256993  54.0863833  81.3791313
  55.4826993  53.8553833  81.9831313  55.0726993  40.8513833  84.4261313
  55.9156993  41.0713833  84.3831313  54.6836993  41.4243833  83.8951313
  55.1396993  40.9683833  84.3411313  59.1236993  47.1833833  79.1281313
  59.8366993  47.6783833  79.2181313  59.3456993  46.6163833  78.5021313
  59.2616993  47.1723833  79.0491313  53.2796993  48.8263833  82.4481313
  52.6126993  49.3143833  82.7241313  53.9596993  49.3713833  82.4771313
  53.2816993  48.9783833  82.4931313  53.3456993  45.5103833  77.5511313
  53.1606993  44.6713833  77.7031313  54.0046993  45.4743833  76.9811313
  53.4156993  45.3813833  77.4891313  63.6466993  50.8863833  81.4551313
  63.1236993  51.5203833  81.1621313  63.9566993  50.5223833  80.7261313
  63.6146993  50.9263833  81.3041313  53.5176993  49.6743833  77.1261313
  54.0696993  50.2433833  77.4901313  53.2856993  49.1593833  77.7911313
  53.5646993  49.6823833  77.2781313  57.7216993  48.6743833  84.2151313
  58.1886993  48.9633833  84.8931313  58.2936993  48.1963833  83.7611313
  57.8756993  48.6463833  84.2481313  53.3476993  48.1233833  74.7541313
  54.1036993  47.6913833  74.8121313  53.3626993  48.6553833  75.4451313
  53.4616993  48.1383833  74.8651313  54.2876993  46.3443833  82.7591313
  54.7186993  46.2153833  82.0121313  54.0826993  47.1923833  82.7331313
  54.3206993  46.4503833  82.6451313  60.6336993  39.9083833  76.4091313
  60.6316993  39.7913833  75.5441313  60.4526993  40.7563833  76.5011313
  60.6066993  40.0163833  76.2951313  58.3716993  49.8603833  81.0411313
  58.4976993  50.7033833  81.2281313  59.0396993  49.4613833  81.4371313
  58.4896993  49.9263833  81.1271313  56.9866993  42.7403833  76.0431313
  56.8586993  42.2923833  76.7811313  56.4046993  42.3983833  75.4911313
  56.8816993  42.6233833  76.0711313  57.1536993  44.5703833  82.6421313
  56.3726993  44.5113833  82.2591313  57.2256993  43.8183833  83.0791313
  57.0486993  44.4513833  82.6501313  57.5836993  44.3073833  86.1101313
  57.6086993  43.6323833  85.5591313  56.9376993  44.8033833  85.7981313
  57.4926993  44.2803833  85.9831313  61.6836993  53.0843833  85.5021313
  61.4066993  52.4433833  84.9791313  61.4756993  53.8103833  85.0641313
  61.6126993  53.0973833  85.3601313  64.1236993  37.9263833  87.9351313
  64.2726993  37.1013833  87.6921313  64.5026993  37.9813833  88.7191313
  64.2016993  37.8123833  88.0151313  62.2536993  41.4593833  83.7421313
  62.7336993  42.1583833  83.9501313  62.6266993  40.8123833  84.1931313
  62.3796993  41.4673833  83.8391313  64.4426993  44.6283833  76.0161313
  64.4346993  45.3503833  75.5261313  63.8036993  44.7633833  76.5931313
  64.3476993  44.7553833  76.0291313  65.4596993  51.5643833  83.8411313
  64.8566993  51.2683833  83.2841313  66.0046993  52.0163833  83.3321313
  65.4506993  51.5873833  83.6831313  65.4726993  48.4153833  83.2411313
  64.6756993  48.6393833  83.5151313  65.7306993  47.8213833  83.8261313
  65.3926993  48.3603833  83.3681313  59.3646993  53.2273833  77.6891313
  59.2176993  52.4513833  78.0601313  60.0536993  53.0803833  77.1741313
  59.4446993  53.0903833  77.6681313  59.0356993  36.9703833  75.6771313
  59.1326993  36.8633833  76.5381313  58.3276993  37.4763833  75.6121313
  58.9456993  37.0293833  75.7951313  61.6566993  52.7433833  76.0911313
  62.2786993  52.9063833  76.6811313  61.6926993  53.4343833  75.5591313
  61.7536993  52.8693833  76.1001313  56.1576993  45.2773833  76.9201313
  56.4816993  44.4983833  76.6981313  56.8036993  45.6453833  77.3751313
  56.3006993  45.2163833  76.9541313  64.4636993  46.2193833  87.6871313
  64.3086993  46.8293833  88.2911313  64.9976993  45.6613833  88.0931313
  64.5196993  46.2273833  87.8361313  53.1546993  36.9383833  77.8881313
  53.2836993  36.2303833  77.3961313  52.7876993  36.6203833  78.6131313
  53.1196993  36.7863833  77.9231313  62.8476993  44.6193833  78.3451313
  62.9066993  45.2693833  78.9241313  62.6586993  43.9233833  78.8361313
  62.8286993  44.6123833  78.5031313  57.3436993  39.1363833  74.8571313
  56.8326993  39.1893833  74.1511313  58.1276993  39.3763833  74.5611313
  57.3836993  39.1793833  74.7091313  62.0706993  46.6663833  82.7761313
  61.2236993  46.4723833  82.8571313  62.3946993  46.5013833  83.5691313
  61.9926993  46.6133833  82.9051313  58.8226993  53.3963833  73.6621313
  59.2616993  52.6993833  73.9501313  59.0296993  54.0203833  74.2351313
  58.9186993  53.3853833  73.7891313  55.9186993  46.3593833  85.0921313
  56.6406993  46.8473833  85.0551313  55.6486993  46.3293833  84.2631313
  55.9856993  46.4273833  84.9641313  59.1486993  41.5303833  81.8271313
  59.9946993  41.3403833  81.9251313  58.7786993  40.7533833  81.6891313
  59.2186993  41.3873833  81.8211313  53.9696993  42.8683833  78.4821313
  54.4586993  42.5763833  79.1431313  54.0986993  42.2753833  77.8551313
  54.0606993  42.7373833  78.4871313  58.4946993  44.3023833  73.9681313
  57.8846993  43.8973833  74.4421313  58.1086993  44.4203833  73.1951313
  58.3476993  44.2593833  73.9241313  59.9496993  42.7633833  76.6781313
  60.2216993  43.5893833  76.7451313  59.0866993  42.8383833  76.5821313
  59.8626993  42.8963833  76.6731313  53.4296993  38.7333833  83.2141313
  53.4736993  39.0773833  82.4131313  54.1846993  38.9703833  83.5811313
  53.5476993  38.8193833  83.1501313  65.3706993  48.0723833  74.6841313
  66.0546993  47.5583833  74.5151313  64.9536993  48.1183833  73.9191313
  65.4096993  48.0033833  74.5461313  60.0526993  49.2223833  85.9881313
  59.7546993  49.8143833  86.5551313  60.1076993  49.6643833  85.2391313
  60.0166993  49.3753833  85.9611313  62.5686993  45.6453833  85.4791313
  63.0446993  46.0193833  86.1071313  61.7456993  45.7793833  85.7381313
  62.5176993  45.7203833  85.6101313  59.2786993  41.2483833  88.2201313
  59.4396993  40.5043833  88.6471313  59.2336993  40.9993833  87.3851313
  59.2956993  41.1013833  88.1601313  61.8326993  53.0383833  80.7071313
  62.3786993  53.7173833  80.7611313  61.4826993  53.1203833  79.9121313
  61.8616993  53.1513833  80.5971313  61.0306993  37.0563833  88.1001313
  61.7356993  37.3763833  87.6981313  61.2716993  36.2493833  88.3271313
  61.1696993  36.9843833  88.0741313  60.0156993  51.2663833  84.0961313
  59.3916993  51.8483833  83.9141313  60.2636993  50.9803833  83.3101313
  59.9596993  51.3103833  83.9531313  61.6096993  46.0423833  74.0111313
  60.8046993  45.8653833  73.7261313  61.5766993  46.8933833  74.2031313
  61.4856993  46.1413833  73.9981313  57.5396993  42.1093833  84.1611313
  57.9796993  42.0063833  83.4151313  58.0846993  41.7963833  84.7661313
  57.6846993  42.0483833  84.1401313  65.2436993  42.7483833  86.0511313
  65.5456993  43.1683833  86.7541313  65.2796993  41.9083833  86.2831313
  65.2936993  42.6863833  86.1891313  61.0866993  37.0943833  84.2081313
  60.2606993  36.9453833  84.4451313  61.0466993  37.1293833  83.3371313
  60.9586993  37.0773833  84.1141313  58.5576993  54.3413833  84.3131313
  58.5686993  54.4003833  85.1831313  58.1326993  53.5943833  84.1631313
  58.4966993  54.2393833  84.4191313  56.7156993  40.2363833  77.4681313
  56.8416993  39.9073833  76.6701313  55.9036993  39.9873833  77.6671313
  56.6146993  40.1513833  77.3801313  65.4726993  47.3893833  80.5121313
  65.5486993  47.7303833  81.3111313  65.6416993  46.5423833  80.6331313
  65.5086993  47.3143833  80.6481313  62.9946993  46.6633833  80.0771313
  62.6966993  46.3483833  80.8341313  63.6896993  47.1363833  80.3121313
  63.0536993  46.6863833  80.2241313  63.2166993  50.7813833  88.1041313
  63.9036993  50.6673833  88.6291313  63.3506993  51.5723833  87.7601313
  63.3376993  50.8813833  88.1311313  63.6246993  48.7093833  85.5371313
  62.9306993  49.1113833  85.8801313  64.3016993  49.1423833  85.8761313
  63.6216993  48.8323833  85.6381313  56.6926993  42.2473833  87.8841313
  57.0676993  42.8663833  87.3971313  57.3666993  41.7733833  88.1691313
  56.8476993  42.2693833  87.8541313  54.4676993  40.6953833  87.1591313
  54.5446993  40.5263833  86.3061313  55.2136993  41.1013833  87.3561313
  54.5886993  40.7303833  87.0621313  63.9466993  50.3003833  78.7061313
  63.7416993  51.1333833  78.5471313  63.1716993  49.9183833  78.8281313
  63.8016993  50.3673833  78.7011313  53.8646993  45.9213833  87.3831313
  54.1846993  46.1403833  86.6021313  53.7646993  45.0563833  87.3281313
  53.8966993  45.8263833  87.2601313  55.3206993  41.8573833  74.0011313
  54.6486993  41.8713833  74.5571313  55.4156993  41.0093833  73.8171313
  55.2356993  41.7343833  74.0561313  64.0016993  38.4713833  81.5911313
  63.3016993  38.9893833  81.5351313  64.0396993  38.0913833  80.8071313
  63.9036993  38.4923833  81.4671313  59.3086993  50.5623833  75.1151313
  59.7496993  50.6423833  75.8631313  58.5036993  50.3463833  75.3731313
  59.2546993  50.5423833  75.2641313  58.6276993  45.2133833  88.7681313
  58.2316993  45.9873833  88.8431313  58.2216993  44.8403833  88.0921313
  58.5096993  45.2723833  88.6791313  56.6376993  49.6323833  75.7161313
  56.3936993  49.3253833  76.4961313  56.6046993  48.9293833  75.2001313
  56.5966993  49.4833833  75.7551313  59.4566993  47.8773833  74.4591313
  58.6386993  47.6093833  74.5991313  59.4286993  48.7293833  74.6441313
  59.3316993  47.9643833  74.5071313  59.0566993  38.1903833  86.2181313
  58.1926993  38.2743833  86.2981313  59.2766993  37.6763833  86.8871313
  58.9616993  38.1273833  86.3291313  63.1596993  38.9383833  84.5921313
  62.4226993  38.4843833  84.7051313  63.7306993  38.5363833  85.1151313
  63.1346993  38.8113833  84.6861313  65.8916993  49.7863833  86.3801313
  66.0976993  50.0873833  87.1721313  65.8306993  50.5083833  85.8951313
  65.9126993  49.9373833  86.4251313  61.4586993  36.5193833  74.4231313
  61.5366993  36.7663833  73.5901313  60.7156993  36.8963833  74.6811313
  61.3606993  36.6113833  74.3381313  56.2766993  38.2733833  86.8661313
  55.9336993  37.5063833  86.6321313  55.5816993  38.7973833  86.9301313
  56.1236993  38.2373833  86.8411313  65.3226993  37.1293833  83.8431313
  65.9926993  37.6733833  83.9701313  64.8196993  37.5533833  83.2701313
  65.3476993  37.2723833  83.7771313  64.6816993  42.9373833  81.3361313
  65.2326993  42.3303833  81.6361313  64.2566993  43.2003833  82.0511313
  64.7006993  42.8863833  81.4851313  54.9296993  41.5873833  80.8221313
  54.5616993  41.8893833  81.5531313  55.4636993  40.9583833  81.1061313
  54.9536993  41.5393833  80.9721313  54.6176993  49.9953833  88.3331313
  54.0436993  50.4113833  88.8421313  55.3506993  50.4603833  88.4281313
  54.6416993  50.1253833  88.4221313  56.4036993  53.2623833  77.1081313
  56.2586993  53.4183833  76.2621313  57.2696993  53.3413833  77.1861313
  56.5106993  53.2973833  76.9951313  60.5706993  45.6593833  76.8361313
  60.6706993  45.7983833  75.9811313  61.3886993  45.5993833  77.1321313
  60.7056993  45.6703833  76.7531313  65.8056993  49.9883833  76.6381313
  65.5546993  49.8603833  77.4641313  65.4886993  49.2933833  76.2171313
  65.7216993  49.8673833  76.6981313  57.0906993  52.0773833  83.5851313
  57.0116993  51.2673833  83.2691313  56.6466993  52.5643833  83.0131313
  57.0136993  52.0293833  83.4541313  62.6916993  48.1963833  76.0681313
  63.4086993  47.8493833  75.7121313  62.6576993  48.9963833  75.7201313
  62.7926993  48.2633833  75.9641313  54.6626993  54.3213833  87.1661313
  55.1556993  54.2653833  87.8841313  54.8506993  53.5883833  86.7311313
  54.7636993  54.2043833  87.2081313  64.1006993  36.8373833  60.3068903
  63.8556993  37.3253833  59.6268903  64.9636993  36.7643833  60.2068903
  64.1916993  36.8983833  60.1918903  63.9096993  43.7533833  64.9778903
  63.3856993  44.3493833  65.3408903  64.3066993  43.3853833  65.6618903
  63.8906993  43.7873833  65.1328903  53.7786993  47.8933833  60.4338903
  53.3376993  48.0113833  61.1768903  53.4956993  47.1183833  60.1488903
  53.6716993  47.7963833  60.5018903  53.5216993  41.6853833  56.9408903
  52.7436993  41.8473833  56.5808903  53.5606993  40.8143833  56.9628903
  53.4126993  41.5803833  56.8908903  56.6606993  46.9483833  55.6128903
  56.2686993  46.5773833  54.9268903  56.5806993  46.3503833  56.2418903
  56.5906993  46.8053833  55.6038903  56.2876993  48.5893833  59.5128903
  56.8956993  48.4193833  60.1158903  55.5366993  48.4493833  59.9338903
  56.2666993  48.5433833  59.6638903  60.5696993  37.9243833  59.4618903
  60.4996993  38.6013833  58.9158903  61.3106993  37.5363833  59.2128903
  60.6686993  37.9673833  59.3438903  55.1786993  51.6803833  55.5898903
  55.6456993  51.7643833  54.8578903  55.6336993  51.1023833  56.0588903
  55.3146993  51.6073833  55.5508903  53.7186993  50.6283833  66.6888903
  53.8476993  50.3483833  67.5048903  53.1086993  50.0873833  66.3798903
  53.6476993  50.5073833  66.7638903  60.2926993  48.1533833  71.7558903
  60.0566993  48.1503833  72.5958903  59.5446993  48.0053833  71.3318903
  60.1466993  48.1303833  71.8168903  55.1646993  45.1493833  60.8908903
  54.7026993  44.7573833  60.2638903  55.8646993  44.6363833  60.9828903
  55.1996993  45.0163833  60.8118903  59.6726993  40.7593833  66.2378903
  60.3506993  40.7773833  65.6888903  59.6276993  39.9233833  66.4828903
  59.7656993  40.6383833  66.1928903  60.2746993  51.3453833  69.0188903
  60.4126993  52.1053833  68.6118903  61.0656993  50.9803833  69.0458903
  60.4116993  51.4043833  68.9628903  57.1656993  43.2493833  60.9138903
  57.9826993  43.0623833  61.1568903  56.6886993  42.6353833  61.3098903
  57.2156993  43.1313833  61.0088903  61.3696993  49.2303833  63.5238903
  61.7176993  48.4313833  63.5538903  62.0346993  49.7343833  63.2688903
  61.5196993  49.1863833  63.4908903  61.4266993  48.6793833  59.7348903
  61.7576993  48.0353833  60.2208903  61.6666993  48.4683833  58.9238903
  61.5106993  48.5533833  59.6868903  63.3946993  42.8103833  71.0738903
  62.5466993  42.7113833  70.8958903  63.4236993  43.5553833  71.5278903
  63.2736993  42.9063833  71.1148903  57.7626993  38.3433833  60.1798903
  57.4666993  38.8443833  59.5298903  58.6296993  38.4213833  60.1228903
  57.8466993  38.4293833  60.0758903  60.7416993  37.4853833  62.4028903
  60.8146993  38.3453833  62.5318903  60.7036993  37.4103833  61.5348903
  60.7466993  37.6013833  62.2938903  65.4146993  40.4113833  54.7018903
  64.9646993  41.0923833  55.0088903  65.5286993  39.9073833  55.4048903
  65.3656993  40.4373833  54.8508903  53.6206993  42.9103833  63.9038903
  53.3646993  43.7413833  63.8288903  52.9566993  42.5273833  64.3208903
  53.4846993  42.9763833  63.9548903  53.5306993  52.6203833  61.8038903
  52.9386993  53.1783833  61.4908903  53.9566993  52.3513833  61.0918903
  53.5066993  52.6623833  61.6528903  59.3706993  50.4643833  59.2838903
  58.7916993  50.1893833  59.8758903  59.9946993  49.8553833  59.3088903
  59.3776993  50.3343833  59.3748903  63.6816993  53.1443833  58.7958903
  63.8956993  53.6713833  59.4578903  64.4486993  52.9703833  58.4168903
  63.8266993  53.1963833  58.8378903  56.6496993  37.7273833  64.3948903
  56.1286993  37.0993833  64.0868903  57.2406993  37.2903833  64.8658903
  56.6606993  37.5693833  64.4188903  59.9556993  39.8603833  73.6928903
  60.0726993  39.4063833  72.9568903  60.2436993  40.6583833  73.4898903
  60.0156993  39.9113833  73.5538903  55.0756993  51.2903833  59.7348903
  55.7316993  50.7153833  59.7498903  55.4646993  52.0393833  59.5138903
  55.2306993  51.3153833  59.7048903  55.6886993  39.4573833  72.6768903
  54.9106993  39.0673833  72.6048903  56.1796993  39.0453833  72.0858903
  55.6456993  39.3383833  72.5788903  55.8936993  49.7773833  63.2348903
  56.3166993  49.4213833  62.5608903  56.2176993  49.3553833  63.9268903
  56.0036993  49.6623833  63.2378903  59.1246993  52.6293833  62.5308903
  59.9686993  52.7333833  62.3358903  58.8276993  53.4473833  62.5988903
  59.2056993  52.7653833  62.5118903  62.3376993  37.1003833  71.8448903
  62.5156993  36.2913833  71.5698903  62.1946993  37.5413833  71.1058903
  62.3426993  37.0463833  71.6948903  62.9316993  42.0263833  60.6178903
  63.2186993  41.7943833  59.8278903  63.6636993  42.1053833  61.0868903
  63.0816993  42.0033833  60.5708903  63.6536993  42.3653833  55.7388903
  63.9346993  43.1533833  55.9878903  62.8776993  42.5303833  55.3758903
  63.5806993  42.5063833  55.7218903  58.1226993  53.8483833  68.2708903
  58.4146993  53.7813833  69.0908903  57.4966993  53.2433833  68.2258903
  58.0736993  53.7493833  68.3858903  53.0366993  40.0053833  70.2628903
  53.0326993  40.5923833  70.9088903  53.6306993  40.3173833  69.7058903
  53.1236993  40.1383833  70.2758903  62.5126993  50.5363833  55.5548903
  62.3316993  51.0813833  56.2118903  63.2786993  50.8263833  55.2538903
  62.5986993  50.6603833  55.6078903  53.9736993  39.6003833  59.1778903
  53.8596993  38.7363833  59.2088903  53.4986993  39.8943833  59.8478903
  53.8866993  39.5163833  59.2808903  56.1156993  52.0103833  67.3928903
  55.4176993  51.5023833  67.5188903  56.3756993  51.8053833  66.5848903
  56.0506993  51.9053833  67.2918903  63.2776993  40.8083833  57.9228903
  62.7696993  40.1463833  57.6688903  63.3296993  41.3123833  57.2128903
  63.2106993  40.7853833  57.7808903  63.8266993  53.5033833  68.3028903
  64.5946993  53.4233833  67.8968903  63.2436993  53.3823833  67.6648903
  63.8536993  53.4733833  68.1488903  63.2776993  37.7493833  57.8138903
  62.8226993  37.3473833  57.1878903  64.0506993  37.9043833  57.4388903
  63.3246993  37.7133833  57.6658903  61.8756993  40.1163833  62.3358903
  61.9496993  40.6843833  61.6778903  61.9966993  40.6083833  63.0458903
  61.9036993  40.2733833  62.3438903  57.4766993  50.8613833  69.9598903
  58.3176993  50.9243833  69.7378903  57.4396993  51.2583833  70.7358903
  57.5956993  50.9293833  70.0418903  56.4836993  35.9393833  60.6838903
  57.0196993  36.6273833  60.6738903  56.4866993  35.6653833  59.8558903
  56.5626993  36.0003833  60.5598903  59.4396993  46.3723833  64.7088903
  59.6116993  46.1623833  65.5378903  58.7846993  45.8383833  64.4928903
  59.3686993  46.2623833  64.7998903  65.6676993  40.2863833  68.2238903
  65.5726993  40.6053833  69.0298903  65.0746993  39.6473833  68.1858903
  65.5656993  40.2383833  68.3378903  60.1896993  46.3103833  67.2988903
  60.2426993  47.1573833  67.5008903  59.9046993  45.9403833  68.0358903
  60.1556993  46.3803833  67.4368903  53.0106993  50.6813833  73.5098903
  53.7666993  51.0303833  73.7678903  53.1876993  49.8283833  73.4528903
  53.1486993  50.6063833  73.5398903  56.9316993  39.7493833  62.3378903
  57.2036993  39.3193833  61.6298903  56.7556993  39.1133833  62.9088903
  56.9456993  39.5923833  62.3178903  56.7556993  47.1763833  61.8868903
  57.6066993  47.0963833  61.7138903  56.3986993  46.4943833  61.4748903
  56.8286993  47.0633833  61.7998903  55.5226993  53.9013833  63.1238903
  54.8496993  53.4033833  62.8788903  55.9256993  54.0863833  62.3728903
  55.4826993  53.8553833  62.9768903  55.0726993  40.8513833  65.4198903
  55.9156993  41.0713833  65.3768903  54.6836993  41.4243833  64.8888903
  55.1396993  40.9683833  65.3348903  59.1236993  47.1833833  60.1218903
  59.8366993  47.6783833  60.2118903  59.3456993  46.6163833  59.4958903
  59.2616993  47.1723833  60.0428903  53.2796993  48.8263833  63.4418903
  52.6126993  49.3143833  63.7178903  53.9596993  49.3713833  63.4708903
  53.2816993  48.9783833  63.4868903  60.9266993  42.5363833  73.5378903
  60.4426993  43.1133833  73.9798903  60.8986993  42.8313833  72.7168903
  60.8506993  42.6653833  73.4818903  53.3456993  45.5103833  58.5448903
  53.1606993  44.6713833  58.6968903  54.0046993  45.4743833  57.9748903
  53.4156993  45.3813833  58.4828903  63.6466993  50.8863833  62.4488903
  63.1236993  51.5203833  62.1558903  63.9566993  50.5223833  61.7198903
  63.6146993  50.9263833  62.2978903  53.5176993  49.6743833  58.1198903
  54.0696993  50.2433833  58.4838903  53.2856993  49.1593833  58.7848903
  53.5646993  49.6823833  58.2718903  57.7216993  48.6743833  65.2088903
  58.1886993  48.9633833  65.8868903  58.2936993  48.1963833  64.7548903
  57.8756993  48.6463833  65.2418903  53.3476993  48.1233833  55.7478903
  54.1036993  47.6913833  55.8058903  53.3626993  48.6553833  56.4388903
  53.4616993  48.1383833  55.8588903  54.2876993  46.3443833  63.7528903
  54.7186993  46.2153833  63.0058903  54.0826993  47.1923833  63.7268903
  54.3206993  46.4503833  63.6388903  60.6336993  39.9083833  57.4028903
  60.6316993  39.7913833  56.5378903  60.4526993  40.7563833  57.4948903
  60.6066993  40.0163833  57.2888903  58.3716993  49.8603833  62.0348903
  58.4976993  50.7033833  62.2218903  59.0396993  49.4613833  62.4308903
  58.4896993  49.9263833  62.1208903  56.5016993  43.3433833  71.8968903
  55.9656993  42.8373833  72.3648903  56.5216993  42.9533833  71.1168903
  56.4246993  43.2103833  71.8508903  56.9866993  42.7403833  57.0368903
  56.8586993  42.2923833  57.7748903  56.4046993  42.3983833  56.4848903
  56.8816993  42.6233833  57.0648903  57.1536993  44.5703833  63.6358903
  56.3726993  44.5113833  63.2528903  57.2256993  43.8183833  64.0728903
  57.0486993  44.4513833  63.6438903  57.5836993  44.3073833  67.1038903
  57.6086993  43.6323833  66.5528903  56.9376993  44.8033833  66.7918903
  57.4926993  44.2803833  66.9768903  61.6836993  53.0843833  66.4958903
  61.4066993  52.4433833  65.9728903  61.4756993  53.8103833  66.0578903
  61.6126993  53.0973833  66.3538903  64.1236993  37.9263833  68.9288903
  64.2726993  37.1013833  68.6858903  64.5026993  37.9813833  69.7128903
  64.2016993  37.8123833  69.0088903  55.3826993  45.6623833  72.6628903
  55.3456993  46.1633833  71.9488903  55.7136993  44.9103833  72.3678903
  55.4256993  45.6243833  72.5138903  61.2816993  50.7123833  72.0978903
  61.6356993  50.5343833  72.8748903  60.8456993  49.9833833  71.8988903
  61.2696993  50.5783833  72.1838903  62.2536993  41.4593833  64.7358903
  62.7336993  42.1583833  64.9438903  62.6266993  40.8123833  65.1868903
  62.3796993  41.4673833  64.8328903  64.4426993  44.6283833  57.0098903
  64.4346993  45.3503833  56.5198903  63.8036993  44.7633833  57.5868903
  64.3476993  44.7553833  57.0228903  65.4596993  51.5643833  64.8348903
  64.8566993  51.2683833  64.2778903  66.0046993  52.0163833  64.3258903
  65.4506993  51.5873833  64.6768903  65.4726993  48.4153833  64.2348903
  64.6756993  48.6393833  64.5088903  65.7306993  47.8213833  64.8198903
  65.3926993  48.3603833  64.3618903  59.3646993  53.2273833  58.6828903
  59.2176993  52.4513833  59.0538903  60.0536993  53.0803833  58.1678903
  59.4446993  53.0903833  58.6618903  59.0356993  36.9703833  56.6708903
  59.1326993  36.8633833  57.5318903  58.3276993  37.4763833  56.6058903
  58.9456993  37.0293833  56.7888903  61.6566993  52.7433833  57.0848903
  62.2786993  52.9063833  57.6748903  61.6926993  53.4343833  56.5528903
  61.7536993  52.8693833  57.0938903  64.9236993  51.7623833  73.3578903
  65.0876993  52.0453833  74.1668903  65.1866993  52.4233833  72.8528903
  64.9866993  51.9023833  73.4028903  56.1576993  45.2773833  57.9138903
  56.4816993  44.4983833  57.6918903  56.8036993  45.6453833  58.3688903
  56.3006993  45.2163833  57.9478903  64.4636993  46.2193833  68.6808903
  64.3086993  46.8293833  69.2848903  64.9976993  45.6613833  69.0868903
  64.5196993  46.2273833  68.8298903  53.1546993  36.9383833  58.8818903
  53.2836993  36.2303833  58.3898903  52.7876993  36.6203833  59.6068903
  53.1196993  36.7863833  58.9168903  62.8476993  44.6193833  59.3388903
  62.9066993  45.2693833  59.9178903  62.6586993  43.9233833  59.8298903
  62.8286993  44.6123833  59.4968903  57.3436993  39.1363833  55.8508903
  56.8326993  39.1893833  55.1448903  58.1276993  39.3763833  55.5548903
  57.3836993  39.1793833  55.7028903  62.0706993  46.6663833  63.7698903
  61.2236993  46.4723833  63.8508903  62.3946993  46.5013833  64.5628903
  61.9926993  46.6133833  63.8988903  58.8226993  53.3963833  54.6558903
  59.2616993  52.6993833  54.9438903  59.0296993  54.0203833  55.2288903
  58.9186993  53.3853833  54.7828903  55.9186993  46.3593833  66.0858903
  56.6406993  46.8473833  66.0488903  55.6486993  46.3293833  65.2568903
  55.9856993  46.4273833  65.9578903  59.1486993  41.5303833  62.8208903
  59.9946993  41.3403833  62.9188903  58.7786993  40.7533833  62.6828903
  59.2186993  41.3873833  62.8148903  53.9696993  42.8683833  59.4758903
  54.4586993  42.5763833  60.1368903  54.0986993  42.2753833  58.8488903
  54.0606993  42.7373833  59.4808903  58.4946993  44.3023833  54.9618903
  57.8846993  43.8973833  55.4358903  58.1086993  44.4203833  54.1888903
  58.3476993  44.2593833  54.9178903  55.3136993  47.4113833  70.3638903
  54.8926993  46.8933833  69.8028903  54.9616993  48.1973833  70.2208903
  55.1996993  47.4513833  70.2598903  59.9496993  42.7633833  57.6718903
  60.2216993  43.5893833  57.7388903  59.0866993  42.8383833  57.5758903
  59.8626993  42.8963833  57.6668903  53.4296993  38.7333833  64.2078903
  53.4736993  39.0773833  63.4068903  54.1846993  38.9703833  64.5748903
  53.5476993  38.8193833  64.1438903  65.3706993  48.0723833  55.6778903
  66.0546993  47.5583833  55.5088903  64.9536993  48.1183833  54.9128903
  65.4096993  48.0033833  55.5398903  60.0526993  49.2223833  66.9818903
  59.7546993  49.8143833  67.5488903  60.1076993  49.6643833  66.2328903
  60.0166993  49.3753833  66.9548903  58.0316993  48.1723833  70.3798903
  57.2256993  47.8823833  70.5468903  57.9426993  49.0403833  70.3858903
  57.8996993  48.2573833  70.4048903  62.5686993  45.6453833  66.4728903
  63.0446993  46.0193833  67.1008903  61.7456993  45.7793833  66.7318903
  62.5176993  45.7203833  66.6038903  59.2786993  41.2483833  69.2138903
  59.4396993  40.5043833  69.6408903  59.2336993  40.9993833  68.3788903
  59.2956993  41.1013833  69.1538903  61.8326993  53.0383833  61.7008903
  62.3786993  53.7173833  61.7548903  61.4826993  53.1203833  60.9058903
  61.8616993  53.1513833  61.5908903  61.0306993  37.0563833  69.0938903
  61.7356993  37.3763833  68.6918903  61.2716993  36.2493833  69.3208903
  61.1696993  36.9843833  69.0678903  60.0156993  51.2663833  65.0898903
  59.3916993  51.8483833  64.9078903  60.2636993  50.9803833  64.3038903
  59.9596993  51.3103833  64.9468903  64.3246993  47.9003833  72.0788903
  65.0816993  48.1863833  71.7528903  63.7776993  47.9523833  71.4008903
  64.3556993  47.9503833  71.9298903  61.6096993  46.0423833  55.0048903
  60.8046993  45.8653833  54.7198903  61.5766993  46.8933833  55.1968903
  61.4856993  46.1413833  54.9918903  57.5396993  42.1093833  65.1548903
  57.9796993  42.0063833  64.4088903  58.0846993  41.7963833  65.7598903
  57.6846993  42.0483833  65.1338903  65.5556993  41.2113833  70.7468903
  64.9076993  41.6813833  71.0948903  66.1206993  41.1223833  71.4058903
  65.5436993  41.2673833  70.8958903  65.2436993  42.7483833  67.0448903
  65.5456993  43.1683833  67.7478903  65.2796993  41.9083833  67.2768903
  65.2936993  42.6863833  67.1828903  62.6686993  52.9153833  70.9698903
  63.1466993  52.3153833  70.5538903  62.3176993  52.4723833  71.6348903
  62.6876993  52.7613833  71.0068903  61.0866993  37.0943833  65.2018903
  60.2606993  36.9453833  65.4388903  61.0466993  37.1293833  64.3308903
  60.9586993  37.0773833  65.1078903  62.7276993  48.1343833  69.9898903
  61.9326993  48.0703833  70.3408903  62.7986993  48.9813833  69.7948903
  62.6206993  48.2493833  70.0128903  53.6516993  37.4923833  71.2368903
  53.5116993  38.2873833  70.9058903  52.8656993  37.2493833  71.5258903
  53.5146993  37.5743833  71.2308903  58.5576993  54.3413833  65.3068903
  58.5686993  54.4003833  66.1768903  58.1326993  53.5943833  65.1568903
  58.4966993  54.2393833  65.4128903  56.7156993  40.2363833  58.4618903
  56.8416993  39.9073833  57.6638903  55.9036993  39.9873833  58.6608903
  56.6146993  40.1513833  58.3738903  65.4726993  47.3893833  61.5058903
  65.5486993  47.7303833  62.3048903  65.6416993  46.5423833  61.6268903
  65.5086993  47.3143833  61.6418903  62.9946993  46.6633833  61.0708903
  62.6966993  46.3483833  61.8278903  63.6896993  47.1363833  61.3058903
  63.0536993  46.6863833  61.2178903  63.2166993  50.7813833  69.0978903
  63.9036993  50.6673833  69.6228903  63.3506993  51.5723833  68.7538903
  63.3376993  50.8813833  69.1248903  55.3216993  53.8393833  70.7488903
  54.6676993  53.2703833  70.8468903  54.9466993  54.6123833  70.8998903
  55.1696993  53.8693833  70.7858903  63.8396993  45.2453833  72.6718903
  64.1626993  45.9313833  72.2398903  63.1356993  45.5683833  73.0738903
  63.7826993  45.3943833  72.6668903  63.6246993  48.7093833  66.5308903
  62.9306993  49.1113833  66.8738903  64.3016993  49.1423833  66.8698903
  63.6216993  48.8323833  66.6318903  56.6926993  42.2473833  68.8778903
  57.0676993  42.8663833  68.3908903  57.3666993  41.7733833  69.1628903
  56.8476993  42.2693833  68.8478903  54.4676993  40.6953833  68.1528903
  54.5446993  40.5263833  67.2998903  55.2136993  41.1013833  68.3498903
  54.5886993  40.7303833  68.0558903  57.0216993  38.1053833  70.5638903
  56.9406993  37.2613833  70.7698903  56.7076993  38.1493833  69.7508903
  56.9636993  37.9873833  70.4738903  63.9466993  50.3003833  59.6998903
  63.7416993  51.1333833  59.5408903  63.1716993  49.9183833  59.8218903
  63.8016993  50.3673833  59.6948903  53.8646993  45.9213833  68.3768903
  54.1846993  46.1403833  67.5958903  53.7646993  45.0563833  68.3218903
  53.8966993  45.8263833  68.2538903  55.3206993  41.8573833  54.9948903
  54.6486993  41.8713833  55.5508903  55.4156993  41.0093833  54.8108903
  55.2356993  41.7343833  55.0498903  65.0076993  38.2813833  71.7308903
  65.0996993  38.9933833  72.2248903  64.3706993  37.8363833  72.1278903
  64.9266993  38.3203833  71.8628903  64.0016993  38.4713833  62.5848903
  63.3016993  38.9893833  62.5288903  64.0396993  38.0913833  61.8008903
  63.9036993  38.4923833  62.4608903  59.3086993  50.5623833  56.1088903
  59.7496993  50.6423833  56.8568903  58.5036993  50.3463833  56.3668903
  59.2546993  50.5423833  56.2578903  58.6276993  45.2133833  69.7618903
  58.2316993  45.9873833  69.8368903  58.2216993  44.8403833  69.0858903
  58.5096993  45.2723833  69.6728903  56.6376993  49.6323833  56.7098903
  56.3936993  49.3253833  57.4898903  56.6046993  48.9293833  56.1938903
  56.5966993  49.4833833  56.7488903  59.4566993  47.8773833  55.4528903
  58.6386993  47.6093833  55.5928903  59.4286993  48.7293833  55.6378903
  59.3316993  47.9643833  55.5008903  59.0566993  38.1903833  67.2118903
  58.1926993  38.2743833  67.2918903  59.2766993  37.6763833  67.8808903
  58.9616993  38.1273833  67.3228903  63.1596993  38.9383833  65.5858903
  62.4226993  38.4843833  65.6988903  63.7306993  38.5363833  66.1088903
  63.1346993  38.8113833  65.6798903  65.8916993  49.7863833  67.3738903
  66.0976993  50.0873833  68.1658903  65.8306993  50.5083833  66.8888903
  65.9126993  49.9373833  67.4188903  65.4256993  54.0003833  71.6198903
  64.6726993  53.9823833  71.1788903  65.5936993  54.8523833  71.7038903
  65.3396993  54.1233833  71.5668903  60.6626993  43.2673833  70.7898903
  60.3406993  42.6913833  70.2198903  60.3036993  44.0223833  70.5438903
  60.5626993  43.2933833  70.6698903  61.4586993  36.5193833  55.4168903
  61.5366993  36.7663833  54.5838903  60.7156993  36.8963833  55.6748903
  61.3606993  36.6113833  55.3318903  59.0976993  53.6233833  71.0378903
  59.1386993  53.7493833  71.9008903  59.7486993  53.0633833  70.8818903
  59.1996993  53.5593833  71.1428903  56.2766993  38.2733833  67.8598903
  55.9336993  37.5063833  67.6258903  55.5816993  38.7973833  67.9238903
  56.1236993  38.2373833  67.8348903  65.3226993  37.1293833  64.8368903
  65.9926993  37.6733833  64.9638903  64.8196993  37.5533833  64.2638903
  65.3476993  37.2723833  64.7708903  56.6906993  52.0063833  72.3978903
  57.2856993  52.4373833  72.8698903  56.3266993  52.6303833  71.9088903
  56.7246993  52.1623833  72.3948903  64.6816993  42.9373833  62.3298903
  65.2326993  42.3303833  62.6298903  64.2566993  43.2003833  63.0448903
  64.7006993  42.8863833  62.4788903  54.9296993  41.5873833  61.8158903
  54.5616993  41.8893833  62.5468903  55.4636993  40.9583833  62.0998903
  54.9536993  41.5393833  61.9658903  54.6176993  49.9953833  69.3268903
  54.0436993  50.4113833  69.8358903  55.3506993  50.4603833  69.4218903
  54.6416993  50.1253833  69.4158903  56.4036993  53.2623833  58.1018903
  56.2586993  53.4183833  57.2558903  57.2696993  53.3413833  58.1798903
  56.5106993  53.2973833  57.9888903  60.5706993  45.6593833  57.8298903
  60.6706993  45.7983833  56.9748903  61.3886993  45.5993833  58.1258903
  60.7056993  45.6703833  57.7468903  65.8056993  49.9883833  57.6318903
  65.5546993  49.8603833  58.4578903  65.4886993  49.2933833  57.2108903
  65.7216993  49.8673833  57.6918903  59.7096993  38.6343833  70.9458903
  59.9436993  38.0583833  70.3328903  58.8676993  38.4533833  71.0868903
  59.6196993  38.5223833  70.8758903  57.0906993  52.0773833  64.5788903
  57.0116993  51.2673833  64.2628903  56.6466993  52.5643833  64.0068903
  57.0136993  52.0293833  64.4478903  62.6916993  48.1963833  57.0618903
  63.4086993  47.8493833  56.7058903  62.6576993  48.9963833  56.7138903
  62.7926993  48.2633833  56.9578903  54.6626993  54.3213833  68.1598903
  55.1556993  54.2653833  68.8778903  54.8506993  53.5883833  67.7248903
  54.7636993  54.2043833  68.2018903  64.1006993  36.8373833  41.3006493
  63.8556993  37.3253833  40.6206493  64.9636993  36.7643833  41.2006493
  64.1916993  36.8983833  41.1856493  63.9096993  43.7533833  45.9716493
  63.3856993  44.3493833  46.3346493  64.3066993  43.3853833  46.6556493
  63.8906993  43.7873833  46.1266493  53.7786993  47.8933833  41.4276493
  53.3376993  48.0113833  42.1706493  53.4956993  47.1183833  41.1426493
  53.6716993  47.7963833  41.4956493  53.5216993  41.6853833  37.9346493
  52.7436993  41.8473833  37.5746493  53.5606993  40.8143833  37.9566493
  53.4126993  41.5803833  37.8846493  56.6606993  46.9483833  36.6066493
  56.2686993  46.5773833  35.9206493  56.5806993  46.3503833  37.2356493
  56.5906993  46.8053833  36.5976493  56.2876993  48.5893833  40.5066493
  56.8956993  48.4193833  41.1096493  55.5366993  48.4493833  40.9276493
  56.2666993  48.5433833  40.6576493  60.5696993  37.9243833  40.4556493
  60.4996993  38.6013833  39.9096493  61.3106993  37.5363833  40.2066493
  60.6686993  37.9673833  40.3376493  55.1786993  51.6803833  36.5836493
  55.6456993  51.7643833  35.8516493  55.6336993  51.1023833  37.0526493
  55.3146993  51.6073833  36.5446493  53.7186993  50.6283833  47.6826493
  53.8476993  50.3483833  48.4986493  53.1086993  50.0873833  47.3736493
  53.6476993  50.5073833  47.7576493  60.2926993  48.1533833  52.7496493
  60.0566993  48.1503833  53.5896493  59.5446993  48.0053833  52.3256493
  60.1466993  48.1303833  52.8106493  55.1646993  45.1493833  41.8846493
  54.7026993  44.7573833  41.2576493  55.8646993  44.6363833  41.9766493
  55.1996993  45.0163833  41.8056493  59.6726993  40.7593833  47.2316493
  60.3506993  40.7773833  46.6826493  59.6276993  39.9233833  47.4766493
  59.7656993  40.6383833  47.1866493  60.2746993  51.3453833  50.0126493
  60.4126993  52.1053833  49.6056493  61.0656993  50.9803833  50.0396493
  60.4116993  51.4043833  49.9566493  57.1656993  43.2493833  41.9076493
  57.9826993  43.0623833  42.1506493  56.6886993  42.6353833  42.3036493
  57.2156993  43.1313833  42.0026493  61.3696993  49.2303833  44.5176493
  61.7176993  48.4313833  44.5476493  62.0346993  49.7343833  44.2626493
  61.5196993  49.1863833  44.4846493  61.4266993  48.6793833  40.7286493
  61.7576993  48.0353833  41.2146493  61.6666993  48.4683833  39.9176493
  61.5106993  48.5533833  40.6806493  63.3946993  42.8103833  52.0676493
  62.5466993  42.7113833  51.8896493  63.4236993  43.5553833  52.5216493
  63.2736993  42.9063833  52.1086493  57.7626993  38.3433833  41.1736493
  57.4666993  38.8443833  40.5236493  58.6296993  38.4213833  41.1166493
  57.8466993  38.4293833  41.0696493  60.7416993  37.4853833  43.3966493
  60.8146993  38.3453833  43.5256493  60.7036993  37.4103833  42.5286493
  60.7466993  37.6013833  43.2876493  65.4146993  40.4113833  35.6956493
  64.9646993  41.0923833  36.0026493  65.5286993  39.9073833  36.3986493
  65.3656993  40.4373833  35.8446493  53.6206993  42.9103833  44.8976493
  53.3646993  43.7413833  44.8226493  52.9566993  42.5273833  45.3146493
  53.4846993  42.9763833  44.9486493  53.5306993  52.6203833  42.7976493
  52.9386993  53.1783833  42.4846493  53.9566993  52.3513833  42.0856493
  53.5066993  52.6623833  42.6466493  59.3706993  50.4643833  40.2776493
  58.7916993  50.1893833  40.8696493  59.9946993  49.8553833  40.3026493
  59.3776993  50.3343833  40.3686493  63.6816993  53.1443833  39.7896493
  63.8956993  53.6713833  40.4516493  64.4486993  52.9703833  39.4106493
  63.8266993  53.1963833  39.8316493  56.6496993  37.7273833  45.3886493
  56.1286993  37.0993833  45.0806493  57.2406993  37.2903833  45.8596493
  56.6606993  37.5693833  45.4126493  59.9556993  39.8603833  54.6866493
  60.0726993  39.4063833  53.9506493  60.2436993  40.6583833  54.4836493
  60.0156993  39.9113833  54.5476493  55.0756993  51.2903833  40.7286493
  55.7316993  50.7153833  40.7436493  55.4646993  52.0393833  40.5076493
  55.2306993  51.3153833  40.6986493  55.6886993  39.4573833  53.6706493
  54.9106993  39.0673833  53.5986493  56.1796993  39.0453833  53.0796493
  55.6456993  39.3383833  53.5726493  55.8936993  49.7773833  44.2286493
  56.3166993  49.4213833  43.5546493  56.2176993  49.3553833  44.9206493
  56.0036993  49.6623833  44.2316493  59.1246993  52.6293833  43.5246493
  59.9686993  52.7333833  43.3296493  58.8276993  53.4473833  43.5926493
  59.2056993  52.7653833  43.5056493  62.3376993  37.1003833  52.8386493
  62.5156993  36.2913833  52.5636493  62.1946993  37.5413833  52.0996493
  62.3426993  37.0463833  52.6886493  62.9316993  42.0263833  41.6116493
  63.2186993  41.7943833  40.8216493  63.6636993  42.1053833  42.0806493
  63.0816993  42.0033833  41.5646493  63.6536993  42.3653833  36.7326493
  63.9346993  43.1533833  36.9816493  62.8776993  42.5303833  36.3696493
  63.5806993  42.5063833  36.7156493  58.1226993  53.8483833  49.2646493
  58.4146993  53.7813833  50.0846493  57.4966993  53.2433833  49.2196493
  58.0736993  53.7493833  49.3796493  53.0366993  40.0053833  51.2566493
  53.0326993  40.5923833  51.9026493  53.6306993  40.3173833  50.6996493
  53.1236993  40.1383833  51.2696493  62.5126993  50.5363833  36.5486493
  62.3316993  51.0813833  37.2056493  63.2786993  50.8263833  36.2476493
  62.5986993  50.6603833  36.6016493  53.9736993  39.6003833  40.1716493
  53.8596993  38.7363833  40.2026493  53.4986993  39.8943833  40.8416493
  53.8866993  39.5163833  40.2746493  56.1156993  52.0103833  48.3866493
  55.4176993  51.5023833  48.5126493  56.3756993  51.8053833  47.5786493
  56.0506993  51.9053833  48.2856493  63.2776993  40.8083833  38.9166493
  62.7696993  40.1463833  38.6626493  63.3296993  41.3123833  38.2066493
  63.2106993  40.7853833  38.7746493  63.8266993  53.5033833  49.2966493
  64.5946993  53.4233833  48.8906493  63.2436993  53.3823833  48.6586493
  63.8536993  53.4733833  49.1426493  63.2776993  37.7493833  38.8076493
  62.8226993  37.3473833  38.1816493  64.0506993  37.9043833  38.4326493
  63.3246993  37.7133833  38.6596493  61.8756993  40.1163833  43.3296493
  61.9496993  40.6843833  42.6716493  61.9966993  40.6083833  44.0396493
  61.9036993  40.2733833  43.3376493  57.4766993  50.8613833  50.9536493
  58.3176993  50.9243833  50.7316493  57.4396993  51.2583833  51.7296493
  57.5956993  50.9293833  51.0356493  56.4836993  35.9393833  41.6776493
  57.0196993  36.6273833  41.6676493  56.4866993  35.6653833  40.8496493
  56.5626993  36.0003833  41.5536493  59.4396993  46.3723833  45.7026493
  59.6116993  46.1623833  46.5316493  58.7846993  45.8383833  45.4866493
  59.3686993  46.2623833  45.7936493  65.6676993  40.2863833  49.2176493
  65.5726993  40.6053833  50.0236493  65.0746993  39.6473833  49.1796493
  65.5656993  40.2383833  49.3316493  60.1896993  46.3103833  48.2926493
  60.2426993  47.1573833  48.4946493  59.9046993  45.9403833  49.0296493
  60.1556993  46.3803833  48.4306493  53.0106993  50.6813833  54.5036493
  53.7666993  51.0303833  54.7616493  53.1876993  49.8283833  54.4466493
  53.1486993  50.6063833  54.5336493  56.9316993  39.7493833  43.3316493
  57.2036993  39.3193833  42.6236493  56.7556993  39.1133833  43.9026493
  56.9456993  39.5923833  43.3116493  56.7556993  47.1763833  42.8806493
  57.6066993  47.0963833  42.7076493  56.3986993  46.4943833  42.4686493
  56.8286993  47.0633833  42.7936493  55.5226993  53.9013833  44.1176493
  54.8496993  53.4033833  43.8726493  55.9256993  54.0863833  43.3666493
  55.4826993  53.8553833  43.9706493  55.0726993  40.8513833  46.4136493
  55.9156993  41.0713833  46.3706493  54.6836993  41.4243833  45.8826493
  55.1396993  40.9683833  46.3286493  59.1236993  47.1833833  41.1156493
  59.8366993  47.6783833  41.2056493  59.3456993  46.6163833  40.4896493
  59.2616993  47.1723833  41.0366493  53.2796993  48.8263833  44.4356493
  52.6126993  49.3143833  44.7116493  53.9596993  49.3713833  44.4646493
  53.2816993  48.9783833  44.4806493  60.9266993  42.5363833  54.5316493
  60.4426993  43.1133833  54.9736493  60.8986993  42.8313833  53.7106493
  60.8506993  42.6653833  54.4756493  53.3456993  45.5103833  39.5386493
  53.1606993  44.6713833  39.6906493  54.0046993  45.4743833  38.9686493
  53.4156993  45.3813833  39.4766493  63.6466993  50.8863833  43.4426493
  63.1236993  51.5203833  43.1496493  63.9566993  50.5223833  42.7136493
  63.6146993  50.9263833  43.2916493  53.5176993  49.6743833  39.1136493
  54.0696993  50.2433833  39.4776493  53.2856993  49.1593833  39.7786493
  53.5646993  49.6823833  39.2656493  57.7216993  48.6743833  46.2026493
  58.1886993  48.9633833  46.8806493  58.2936993  48.1963833  45.7486493
  57.8756993  48.6463833  46.2356493  53.3476993  48.1233833  36.7416493
  54.1036993  47.6913833  36.7996493  53.3626993  48.6553833  37.4326493
  53.4616993  48.1383833  36.8526493  54.2876993  46.3443833  44.7466493
  54.7186993  46.2153833  43.9996493  54.0826993  47.1923833  44.7206493
  54.3206993  46.4503833  44.6326493  60.6336993  39.9083833  38.3966493
  60.6316993  39.7913833  37.5316493  60.4526993  40.7563833  38.4886493
  60.6066993  40.0163833  38.2826493  58.3716993  49.8603833  43.0286493
  58.4976993  50.7033833  43.2156493  59.0396993  49.4613833  43.4246493
  58.4896993  49.9263833  43.1146493  56.5016993  43.3433833  52.8906493
  55.9656993  42.8373833  53.3586493  56.5216993  42.9533833  52.1106493
  56.4246993  43.2103833  52.8446493  56.9866993  42.7403833  38.0306493
  56.8586993  42.2923833  38.7686493  56.4046993  42.3983833  37.4786493
  56.8816993  42.6233833  38.0586493  57.1536993  44.5703833  44.6296493
  56.3726993  44.5113833  44.2466493  57.2256993  43.8183833  45.0666493
  57.0486993  44.4513833  44.6376493  57.5836993  44.3073833  48.0976493
  57.6086993  43.6323833  47.5466493  56.9376993  44.8033833  47.7856493
  57.4926993  44.2803833  47.9706493  61.6836993  53.0843833  47.4896493
  61.4066993  52.4433833  46.9666493  61.4756993  53.8103833  47.0516493
  61.6126993  53.0973833  47.3476493  64.1236993  37.9263833  49.9226493
  64.2726993  37.1013833  49.6796493  64.5026993  37.9813833  50.7066493
  64.2016993  37.8123833  50.0026493  55.3826993  45.6623833  53.6566493
  55.3456993  46.1633833  52.9426493  55.7136993  44.9103833  53.3616493
  55.4256993  45.6243833  53.5076493  61.2816993  50.7123833  53.0916493
  61.6356993  50.5343833  53.8686493  60.8456993  49.9833833  52.8926493
  61.2696993  50.5783833  53.1776493  62.2536993  41.4593833  45.7296493
  62.7336993  42.1583833  45.9376493  62.6266993  40.8123833  46.1806493
  62.3796993  41.4673833  45.8266493  64.4426993  44.6283833  38.0036493
  64.4346993  45.3503833  37.5136493  63.8036993  44.7633833  38.5806493
  64.3476993  44.7553833  38.0166493  65.4596993  51.5643833  45.8286493
  64.8566993  51.2683833  45.2716493  66.0046993  52.0163833  45.3196493
  65.4506993  51.5873833  45.6706493  65.4726993  48.4153833  45.2286493
  64.6756993  48.6393833  45.5026493  65.7306993  47.8213833  45.8136493
  65.3926993  48.3603833  45.3556493  59.3646993  53.2273833  39.6766493
  59.2176993  52.4513833  40.0476493  60.0536993  53.0803833  39.1616493
  59.4446993  53.0903833  39.6556493  59.0356993  36.9703833  37.6646493
  59.1326993  36.8633833  38.5256493  58.3276993  37.4763833  37.5996493
  58.9456993  37.0293833  37.7826493  61.6566993  52.7433833  38.0786493
  62.2786993  52.9063833  38.6686493  61.6926993  53.4343833  37.5466493
  61.7536993  52.8693833  38.0876493  64.9236993  51.7623833  54.3516493
  65.0876993  52.0453833  55.1606493  65.1866993  52.4233833  53.8466493
  64.9866993  51.9023833  54.3966493  56.1576993  45.2773833  38.9076493
  56.4816993  44.4983833  38.6856493  56.8036993  45.6453833  39.3626493
  56.3006993  45.2163833  38.9416493  64.4636993  46.2193833  49.6746493
  64.3086993  46.8293833  50.2786493  64.9976993  45.6613833  50.0806493
  64.5196993  46.2273833  49.8236493  53.1546993  36.9383833  39.8756493
  53.2836993  36.2303833  39.3836493  52.7876993  36.6203833  40.6006493
  53.1196993  36.7863833  39.9106493  62.8476993  44.6193833  40.3326493
  62.9066993  45.2693833  40.9116493  62.6586993  43.9233833  40.8236493
  62.8286993  44.6123833  40.4906493  57.3436993  39.1363833  36.8446493
  56.8326993  39.1893833  36.1386493  58.1276993  39.3763833  36.5486493
  57.3836993  39.1793833  36.6966493  62.0706993  46.6663833  44.7636493
  61.2236993  46.4723833  44.8446493  62.3946993  46.5013833  45.5566493
  61.9926993  46.6133833  44.8926493  58.8226993  53.3963833  35.6496493
  59.2616993  52.6993833  35.9376493  59.0296993  54.0203833  36.2226493
  58.9186993  53.3853833  35.7766493  55.9186993  46.3593833  47.0796493
  56.6406993  46.8473833  47.0426493  55.6486993  46.3293833  46.2506493
  55.9856993  46.4273833  46.9516493  59.1486993  41.5303833  43.8146493
  59.9946993  41.3403833  43.9126493  58.7786993  40.7533833  43.6766493
  59.2186993  41.3873833  43.8086493  53.9696993  42.8683833  40.4696493
  54.4586993  42.5763833  41.1306493  54.0986993  42.2753833  39.8426493
  54.0606993  42.7373833  40.4746493  58.4946993  44.3023833  35.9556493
  57.8846993  43.8973833  36.4296493  58.1086993  44.4203833  35.1826493
  58.3476993  44.2593833  35.9116493  55.3136993  47.4113833  51.3576493
  54.8926993  46.8933833  50.7966493  54.9616993  48.1973833  51.2146493
  55.1996993  47.4513833  51.2536493  59.9496993  42.7633833  38.6656493
  60.2216993  43.5893833  38.7326493  59.0866993  42.8383833  38.5696493
  59.8626993  42.8963833  38.6606493  53.4296993  38.7333833  45.2016493
  53.4736993  39.0773833  44.4006493  54.1846993  38.9703833  45.5686493
  53.5476993  38.8193833  45.1376493  65.3706993  48.0723833  36.6716493
  66.0546993  47.5583833  36.5026493  64.9536993  48.1183833  35.9066493
  65.4096993  48.0033833  36.5336493  60.0526993  49.2223833  47.9756493
  59.7546993  49.8143833  48.5426493  60.1076993  49.6643833  47.2266493
  60.0166993  49.3753833  47.9486493  58.0316993  48.1723833  51.3736493
  57.2256993  47.8823833  51.5406493  57.9426993  49.0403833  51.3796493
  57.8996993  48.2573833  51.3986493  62.5686993  45.6453833  47.4666493
  63.0446993  46.0193833  48.0946493  61.7456993  45.7793833  47.7256493
  62.5176993  45.7203833  47.5976493  59.2786993  41.2483833  50.2076493
  59.4396993  40.5043833  50.6346493  59.2336993  40.9993833  49.3726493
  59.2956993  41.1013833  50.1476493  61.8326993  53.0383833  42.6946493
  62.3786993  53.7173833  42.7486493  61.4826993  53.1203833  41.8996493
  61.8616993  53.1513833  42.5846493  61.0306993  37.0563833  50.0876493
  61.7356993  37.3763833  49.6856493  61.2716993  36.2493833  50.3146493
  61.1696993  36.9843833  50.0616493  60.0156993  51.2663833  46.0836493
  59.3916993  51.8483833  45.9016493  60.2636993  50.9803833  45.2976493
  59.9596993  51.3103833  45.9406493  64.3246993  47.9003833  53.0726493
  65.0816993  48.1863833  52.7466493  63.7776993  47.9523833  52.3946493
  64.3556993  47.9503833  52.9236493  61.6096993  46.0423833  35.9986493
  60.8046993  45.8653833  35.7136493  61.5766993  46.8933833  36.1906493
  61.4856993  46.1413833  35.9856493  57.5396993  42.1093833  46.1486493
  57.9796993  42.0063833  45.4026493  58.0846993  41.7963833  46.7536493
  57.6846993  42.0483833  46.1276493  65.5556993  41.2113833  51.7406493
  64.9076993  41.6813833  52.0886493  66.1206993  41.1223833  52.3996493
  65.5436993  41.2673833  51.8896493  65.2436993  42.7483833  48.0386493
  65.5456993  43.1683833  48.7416493  65.2796993  41.9083833  48.2706493
  65.2936993  42.6863833  48.1766493  62.6686993  52.9153833  51.9636493
  63.1466993  52.3153833  51.5476493  62.3176993  52.4723833  52.6286493
  62.6876993  52.7613833  52.0006493  61.0866993  37.0943833  46.1956493
  60.2606993  36.9453833  46.4326493  61.0466993  37.1293833  45.3246493
  60.9586993  37.0773833  46.1016493  62.7276993  48.1343833  50.9836493
  61.9326993  48.0703833  51.3346493  62.7986993  48.9813833  50.7886493
  62.6206993  48.2493833  51.0066493  53.6516993  37.4923833  52.2306493
  53.5116993  38.2873833  51.8996493  52.8656993  37.2493833  52.5196493
  53.5146993  37.5743833  52.2246493  58.5576993  54.3413833  46.3006493
  58.5686993  54.4003833  47.1706493  58.1326993  53.5943833  46.1506493
  58.4966993  54.2393833  46.4066493  56.7156993  40.2363833  39.4556493
  56.8416993  39.9073833  38.6576493  55.9036993  39.9873833  39.6546493
  56.6146993  40.1513833  39.3676493  65.4726993  47.3893833  42.4996493
  65.5486993  47.7303833  43.2986493  65.6416993  46.5423833  42.6206493
  65.5086993  47.3143833  42.6356493  62.9946993  46.6633833  42.0646493
  62.6966993  46.3483833  42.8216493  63.6896993  47.1363833  42.2996493
  63.0536993  46.6863833  42.2116493  63.2166993  50.7813833  50.0916493
  63.9036993  50.6673833  50.6166493  63.3506993  51.5723833  49.7476493
  63.3376993  50.8813833  50.1186493  55.3216993  53.8393833  51.7426493
  54.6676993  53.2703833  51.8406493  54.9466993  54.6123833  51.8936493
  55.1696993  53.8693833  51.7796493  63.8396993  45.2453833  53.6656493
  64.1626993  45.9313833  53.2336493  63.1356993  45.5683833  54.0676493
  63.7826993  45.3943833  53.6606493  63.6246993  48.7093833  47.5246493
  62.9306993  49.1113833  47.8676493  64.3016993  49.1423833  47.8636493
  63.6216993  48.8323833  47.6256493  56.6926993  42.2473833  49.8716493
  57.0676993  42.8663833  49.3846493  57.3666993  41.7733833  50.1566493
  56.8476993  42.2693833  49.8416493  54.4676993  40.6953833  49.1466493
  54.5446993  40.5263833  48.2936493  55.2136993  41.1013833  49.3436493
  54.5886993  40.7303833  49.0496493  57.0216993  38.1053833  51.5576493
  56.9406993  37.2613833  51.7636493  56.7076993  38.1493833  50.7446493
  56.9636993  37.9873833  51.4676493  63.9466993  50.3003833  40.6936493
  63.7416993  51.1333833  40.5346493  63.1716993  49.9183833  40.8156493
  63.8016993  50.3673833  40.6886493  53.8646993  45.9213833  49.3706493
  54.1846993  46.1403833  48.5896493  53.7646993  45.0563833  49.3156493
  53.8966993  45.8263833  49.2476493  55.3206993  41.8573833  35.9886493
  54.6486993  41.8713833  36.5446493  55.4156993  41.0093833  35.8046493
  55.2356993  41.7343833  36.0436493  65.0076993  38.2813833  52.7246493
  65.0996993  38.9933833  53.2186493  64.3706993  37.8363833  53.1216493
  64.9266993  38.3203833  52.8566493  64.0016993  38.4713833  43.5786493
  63.3016993  38.9893833  43.5226493  64.0396993  38.0913833  42.7946493
  63.9036993  38.4923833  43.4546493  59.3086993  50.5623833  37.1026493
  59.7496993  50.6423833  37.8506493  58.5036993  50.3463833  37.3606493
  59.2546993  50.5423833  37.2516493  58.6276993  45.2133833  50.7556493
  58.2316993  45.9873833  50.8306493  58.2216993  44.8403833  50.0796493
  58.5096993  45.2723833  50.6666493  56.6376993  49.6323833  37.7036493
  56.3936993  49.3253833  38.4836493  56.6046993  48.9293833  37.1876493
  56.5966993  49.4833833  37.7426493  59.4566993  47.8773833  36.4466493
  58.6386993  47.6093833  36.5866493  59.4286993  48.7293833  36.6316493
  59.3316993  47.9643833  36.4946493  59.0566993  38.1903833  48.2056493
  58.1926993  38.2743833  48.2856493  59.2766993  37.6763833  48.8746493
  58.9616993  38.1273833  48.3166493  63.1596993  38.9383833  46.5796493
  62.4226993  38.4843833  46.6926493  63.7306993  38.5363833  47.1026493
  63.1346993  38.8113833  46.6736493  65.8916993  49.7863833  48.3676493
  66.0976993  50.0873833  49.1596493  65.8306993  50.5083833  47.8826493
  65.9126993  49.9373833  48.4126493  65.4256993  54.0003833  52.6136493
  64.6726993  53.9823833  52.1726493  65.5936993  54.8523833  52.6976493
  65.3396993  54.1233833  52.5606493  60.6626993  43.2673833  51.7836493
  60.3406993  42.6913833  51.2136493  60.3036993  44.0223833  51.5376493
  60.5626993  43.2933833  51.6636493  61.4586993  36.5193833  36.4106493
  61.5366993  36.7663833  35.5776493  60.7156993  36.8963833  36.6686493
  61.3606993  36.6113833  36.3256493  59.0976993  53.6233833  52.0316493
  59.1386993  53.7493833  52.8946493  59.7486993  53.0633833  51.8756493
  59.1996993  53.5593833  52.1366493  56.2766993  38.2733833  48.8536493
  55.9336993  37.5063833  48.6196493  55.5816993  38.7973833  48.9176493
  56.1236993  38.2373833  48.8286493  65.3226993  37.1293833  45.8306493
  65.9926993  37.6733833  45.9576493  64.8196993  37.5533833  45.2576493
  65.3476993  37.2723833  45.7646493  56.6906993  52.0063833  53.3916493
  57.2856993  52.4373833  53.8636493  56.3266993  52.6303833  52.9026493
  56.7246993  52.1623833  53.3886493  64.6816993  42.9373833  43.3236493
  65.2326993  42.3303833  43.6236493  64.2566993  43.2003833  44.0386493
  64.7006993  42.8863833  43.4726493  54.9296993  41.5873833  42.8096493
  54.5616993  41.8893833  43.5406493  55.4636993  40.9583833  43.0936493
  54.9536993  41.5393833  42.9596493  54.6176993  49.9953833  50.3206493
  54.0436993  50.4113833  50.8296493  55.3506993  50.4603833  50.4156493
  54.6416993  50.1253833  50.4096493  56.4036993  53.2623833  39.0956493
  56.2586993  53.4183833  38.2496493  57.2696993  53.3413833  39.1736493
  56.5106993  53.2973833  38.9826493  60.5706993  45.6593833  38.8236493
  60.6706993  45.7983833  37.9686493  61.3886993  45.5993833  39.1196493
  60.7056993  45.6703833  38.7406493  65.8056993  49.9883833  38.6256493
  65.5546993  49.8603833  39.4516493  65.4886993  49.2933833  38.2046493
  65.7216993  49.8673833  38.6856493  59.7096993  38.6343833  51.9396493
  59.9436993  38.0583833  51.3266493  58.8676993  38.4533833  52.0806493
  59.6196993  38.5223833  51.8696493  57.0906993  52.0773833  45.5726493
  57.0116993  51.2673833  45.2566493  56.6466993  52.5643833  45.0006493
  57.0136993  52.0293833  45.4416493  62.6916993  48.1963833  38.0556493
  63.4086993  47.8493833  37.6996493  62.6576993  48.9963833  37.7076493
  62.7926993  48.2633833  37.9516493  54.6626993  54.3213833  49.1536493
  55.1556993  54.2653833  49.8716493  54.8506993  53.5883833  48.7186493
  54.7636993  54.2043833  49.1956493  64.1006993  36.8373833  22.2944083
  63.8556993  37.3253833  21.6144083  64.9636993  36.7643833  22.1944083
  64.1916993  36.8983833  22.1794083  63.9096993  43.7533833  26.9654083
  63.3856993  44.3493833  27.3284083  64.3066993  43.3853833  27.6494083
  63.8906993  43.7873833  27.1204083  53.7786993  47.8933833  22.4214083
  53.3376993  48.0113833  23.1644083  53.4956993  47.1183833  22.1364083
  53.6716993  47.7963833  22.4894083  53.5216993  41.6853833  18.9284083
  52.7436993  41.8473833  18.5684083  53.5606993  40.8143833  18.9504083
  53.4126993  41.5803833  18.8784083  56.6606993  46.9483833  17.6004083
  56.2686993  46.5773833  16.9144083  56.5806993  46.3503833  18.2294083
  56.5906993  46.8053833  17.5914083  56.2876993  48.5893833  21.5004083
  56.8956993  48.4193833  22.1034083  55.5366993  48.4493833  21.9214083
  56.2666993  48.5433833  21.6514083  60.5696993  37.9243833  21.4494083
  60.4996993  38.6013833  20.9034083  61.3106993  37.5363833  21.2004083
  60.6686993  37.9673833  21.3314083  55.1786993  51.6803833  17.5774083
  55.6456993  51.7643833  16.8454083  55.6336993  51.1023833  18.0464083
  55.3146993  51.6073833  17.5384083  53.7186993  50.6283833  28.6764083
  53.8476993  50.3483833  29.4924083  53.1086993  50.0873833  28.3674083
  53.6476993  50.5073833  28.7514083  60.2926993  48.1533833  33.7434083
  60.0566993  48.1503833  34.5834083  59.5446993  48.0053833  33.3194083
  60.1466993  48.1303833  33.8044083  55.1646993  45.1493833  22.8784083
  54.7026993  44.7573833  22.2514083  55.8646993  44.6363833  22.9704083
  55.1996993  45.0163833  22.7994083  59.6726993  40.7593833  28.2254083
  60.3506993  40.7773833  27.6764083  59.6276993  39.9233833  28.4704083
  59.7656993  40.6383833  28.1804083  60.2746993  51.3453833  31.0064083
  60.4126993  52.1053833  30.5994083  61.0656993  50.9803833  31.0334083
  60.4116993  51.4043833  30.9504083  57.1656993  43.2493833  22.9014083
  57.9826993  43.0623833  23.1444083  56.6886993  42.6353833  23.2974083
  57.2156993  43.1313833  22.9964083  61.3696993  49.2303833  25.5114083
  61.7176993  48.4313833  25.5414083  62.0346993  49.7343833  25.2564083
  61.5196993  49.1863833  25.4784083  61.4266993  48.6793833  21.7224083
  61.7576993  48.0353833  22.2084083  61.6666993  48.4683833  20.9114083
  61.5106993  48.5533833  21.6744083  63.3946993  42.8103833  33.0614083
  62.5466993  42.7113833  32.8834083  63.4236993  43.5553833  33.5154083
  63.2736993  42.9063833  33.1024083  57.7626993  38.3433833  22.1674083
  57.4666993  38.8443833  21.5174083  58.6296993  38.4213833  22.1104083
  57.8466993  38.4293833  22.0634083  60.7416993  37.4853833  24.3904083
  60.8146993  38.3453833  24.5194083  60.7036993  37.4103833  23.5224083
  60.7466993  37.6013833  24.2814083  65.4146993  40.4113833  16.6894083
  64.9646993  41.0923833  16.9964083  65.5286993  39.9073833  17.3924083
  65.3656993  40.4373833  16.8384083  53.6206993  42.9103833  25.8914083
  53.3646993  43.7413833  25.8164083  52.9566993  42.5273833  26.3084083
  53.4846993  42.9763833  25.9424083  53.5306993  52.6203833  23.7914083
  52.9386993  53.1783833  23.4784083  53.9566993  52.3513833  23.0794083
  53.5066993  52.6623833  23.6404083  59.3706993  50.4643833  21.2714083
  58.7916993  50.1893833  21.8634083  59.9946993  49.8553833  21.2964083
  59.3776993  50.3343833  21.3624083  63.6816993  53.1443833  20.7834083
  63.8956993  53.6713833  21.4454083  64.4486993  52.9703833  20.4044083
  63.8266993  53.1963833  20.8254083  56.6496993  37.7273833  26.3824083
  56.1286993  37.0993833  26.0744083  57.2406993  37.2903833  26.8534083
  56.6606993  37.5693833  26.4064083  59.9556993  39.8603833  35.6804083
  60.0726993  39.4063833  34.9444083  60.2436993  40.6583833  35.4774083
  60.0156993  39.9113833  35.5414083  55.0756993  51.2903833  21.7224083
  55.7316993  50.7153833  21.7374083  55.4646993  52.0393833  21.5014083
  55.2306993  51.3153833  21.6924083  55.6886993  39.4573833  34.6644083
  54.9106993  39.0673833  34.5924083  56.1796993  39.0453833  34.0734083
  55.6456993  39.3383833  34.5664083  55.8936993  49.7773833  25.2224083
  56.3166993  49.4213833  24.5484083  56.2176993  49.3553833  25.9144083
  56.0036993  49.6623833  25.2254083  59.1246993  52.6293833  24.5184083
  59.9686993  52.7333833  24.3234083  58.8276993  53.4473833  24.5864083
  59.2056993  52.7653833  24.4994083  62.3376993  37.1003833  33.8324083
  62.5156993  36.2913833  33.5574083  62.1946993  37.5413833  33.0934083
  62.3426993  37.0463833  33.6824083  62.9316993  42.0263833  22.6054083
  63.2186993  41.7943833  21.8154083  63.6636993  42.1053833  23.0744083
  63.0816993  42.0033833  22.5584083  63.6536993  42.3653833  17.7264083
  63.9346993  43.1533833  17.9754083  62.8776993  42.5303833  17.3634083
  63.5806993  42.5063833  17.7094083  58.1226993  53.8483833  30.2584083
  58.4146993  53.7813833  31.0784083  57.4966993  53.2433833  30.2134083
  58.0736993  53.7493833  30.3734083  53.0366993  40.0053833  32.2504083
  53.0326993  40.5923833  32.8964083  53.6306993  40.3173833  31.6934083
  53.1236993  40.1383833  32.2634083  62.5126993  50.5363833  17.5424083
  62.3316993  51.0813833  18.1994083  63.2786993  50.8263833  17.2414083
  62.5986993  50.6603833  17.5954083  53.9736993  39.6003833  21.1654083
  53.8596993  38.7363833  21.1964083  53.4986993  39.8943833  21.8354083
  53.8866993  39.5163833  21.2684083  56.1156993  52.0103833  29.3804083
  55.4176993  51.5023833  29.5064083  56.3756993  51.8053833  28.5724083
  56.0506993  51.9053833  29.2794083  63.2776993  40.8083833  19.9104083
  62.7696993  40.1463833  19.6564083  63.3296993  41.3123833  19.2004083
  63.2106993  40.7853833  19.7684083  63.8266993  53.5033833  30.2904083
  64.5946993  53.4233833  29.8844083  63.2436993  53.3823833  29.6524083
  63.8536993  53.4733833  30.1364083  63.2776993  37.7493833  19.8014083
  62.8226993  37.3473833  19.1754083  64.0506993  37.9043833  19.4264083
  63.3246993  37.7133833  19.6534083  61.8756993  40.1163833  24.3234083
  61.9496993  40.6843833  23.6654083  61.9966993  40.6083833  25.0334083
  61.9036993  40.2733833  24.3314083  57.4766993  50.8613833  31.9474083
  58.3176993  50.9243833  31.7254083  57.4396993  51.2583833  32.7234083
  57.5956993  50.9293833  32.0294083  56.4836993  35.9393833  22.6714083
  57.0196993  36.6273833  22.6614083  56.4866993  35.6653833  21.8434083
  56.5626993  36.0003833  22.5474083  59.4396993  46.3723833  26.6964083
  59.6116993  46.1623833  27.5254083  58.7846993  45.8383833  26.4804083
  59.3686993  46.2623833  26.7874083  65.6676993  40.2863833  30.2114083
  65.5726993  40.6053833  31.0174083  65.0746993  39.6473833  30.1734083
  65.5656993  40.2383833  30.3254083  60.1896993  46.3103833  29.2864083
  60.2426993  47.1573833  29.4884083  59.9046993  45.9403833  30.0234083
  60.1556993  46.3803833  29.4244083  53.0106993  50.6813833  35.4974083
  53.7666993  51.0303833  35.7554083  53.1876993  49.8283833  35.4404083
  53.1486993  50.6063833  35.5274083  56.9316993  39.7493833  24.3254083
  57.2036993  39.3193833  23.6174083  56.7556993  39.1133833  24.8964083
  56.9456993  39.5923833  24.3054083  56.7556993  47.1763833  23.8744083
  57.6066993  47.0963833  23.7014083  56.3986993  46.4943833  23.4624083
  56.8286993  47.0633833  23.7874083  55.5226993  53.9013833  25.1114083
  54.8496993  53.4033833  24.8664083  55.9256993  54.0863833  24.3604083
  55.4826993  53.8553833  24.9644083  55.0726993  40.8513833  27.4074083
  55.9156993  41.0713833  27.3644083  54.6836993  41.4243833  26.8764083
  55.1396993  40.9683833  27.3224083  59.1236993  47.1833833  22.1094083
  59.8366993  47.6783833  22.1994083  59.3456993  46.6163833  21.4834083
  59.2616993  47.1723833  22.0304083  53.2796993  48.8263833  25.4294083
  52.6126993  49.3143833  25.7054083  53.9596993  49.3713833  25.4584083
  53.2816993  48.9783833  25.4744083  60.9266993  42.5363833  35.5254083
  60.4426993  43.1133833  35.9674083  60.8986993  42.8313833  34.7044083
  60.8506993  42.6653833  35.4694083  53.3456993  45.5103833  20.5324083
  53.1606993  44.6713833  20.6844083  54.0046993  45.4743833  19.9624083
  53.4156993  45.3813833  20.4704083  63.6466993  50.8863833  24.4364083
  63.1236993  51.5203833  24.1434083  63.9566993  50.5223833  23.7074083
  63.6146993  50.9263833  24.2854083  53.5176993  49.6743833  20.1074083
  54.0696993  50.2433833  20.4714083  53.2856993  49.1593833  20.7724083
  53.5646993  49.6823833  20.2594083  57.7216993  48.6743833  27.1964083
  58.1886993  48.9633833  27.8744083  58.2936993  48.1963833  26.7424083
  57.8756993  48.6463833  27.2294083  53.3476993  48.1233833  17.7354083
  54.1036993  47.6913833  17.7934083  53.3626993  48.6553833  18.4264083
  53.4616993  48.1383833  17.8464083  54.2876993  46.3443833  25.7404083
  54.7186993  46.2153833  24.9934083  54.0826993  47.1923833  25.7144083
  54.3206993  46.4503833  25.6264083  60.6336993  39.9083833  19.3904083
  60.6316993  39.7913833  18.5254083  60.4526993  40.7563833  19.4824083
  60.6066993  40.0163833  19.2764083  58.3716993  49.8603833  24.0224083
  58.4976993  50.7033833  24.2094083  59.0396993  49.4613833  24.4184083
  58.4896993  49.9263833  24.1084083  56.5016993  43.3433833  33.8844083
  55.9656993  42.8373833  34.3524083  56.5216993  42.9533833  33.1044083
  56.4246993  43.2103833  33.8384083  56.9866993  42.7403833  19.0244083
  56.8586993  42.2923833  19.7624083  56.4046993  42.3983833  18.4724083
  56.8816993  42.6233833  19.0524083  57.1536993  44.5703833  25.6234083
  56.3726993  44.5113833  25.2404083  57.2256993  43.8183833  26.0604083
  57.0486993  44.4513833  25.6314083  57.5836993  44.3073833  29.0914083
  57.6086993  43.6323833  28.5404083  56.9376993  44.8033833  28.7794083
  57.4926993  44.2803833  28.9644083  61.6836993  53.0843833  28.4834083
  61.4066993  52.4433833  27.9604083  61.4756993  53.8103833  28.0454083
  61.6126993  53.0973833  28.3414083  64.1236993  37.9263833  30.9164083
  64.2726993  37.1013833  30.6734083  64.5026993  37.9813833  31.7004083
  64.2016993  37.8123833  30.9964083  55.3826993  45.6623833  34.6504083
  55.3456993  46.1633833  33.9364083  55.7136993  44.9103833  34.3554083
  55.4256993  45.6243833  34.5014083  61.2816993  50.7123833  34.0854083
  61.6356993  50.5343833  34.8624083  60.8456993  49.9833833  33.8864083
  61.2696993  50.5783833  34.1714083  62.2536993  41.4593833  26.7234083
  62.7336993  42.1583833  26.9314083  62.6266993  40.8123833  27.1744083
  62.3796993  41.4673833  26.8204083  64.4426993  44.6283833  18.9974083
  64.4346993  45.3503833  18.5074083  63.8036993  44.7633833  19.5744083
  64.3476993  44.7553833  19.0104083  65.4596993  51.5643833  26.8224083
  64.8566993  51.2683833  26.2654083  66.0046993  52.0163833  26.3134083
  65.4506993  51.5873833  26.6644083  65.4726993  48.4153833  26.2224083
  64.6756993  48.6393833  26.4964083  65.7306993  47.8213833  26.8074083
  65.3926993  48.3603833  26.3494083  59.3646993  53.2273833  20.6704083
  59.2176993  52.4513833  21.0414083  60.0536993  53.0803833  20.1554083
  59.4446993  53.0903833  20.6494083  59.0356993  36.9703833  18.6584083
  59.1326993  36.8633833  19.5194083  58.3276993  37.4763833  18.5934083
  58.9456993  37.0293833  18.7764083  61.6566993  52.7433833  19.0724083
  62.2786993  52.9063833  19.6624083  61.6926993  53.4343833  18.5404083
  61.7536993  52.8693833  19.0814083  64.9236993  51.7623833  35.3454083
  65.0876993  52.0453833  36.1544083  65.1866993  52.4233833  34.8404083
  64.9866993  51.9023833  35.3904083  56.1576993  45.2773833  19.9014083
  56.4816993  44.4983833  19.6794083  56.8036993  45.6453833  20.3564083
  56.3006993  45.2163833  19.9354083  64.4636993  46.2193833  30.6684083
  64.3086993  46.8293833  31.2724083  64.9976993  45.6613833  31.0744083
  64.5196993  46.2273833  30.8174083  53.1546993  36.9383833  20.8694083
  53.2836993  36.2303833  20.3774083  52.7876993  36.6203833  21.5944083
  53.1196993  36.7863833  20.9044083  62.8476993  44.6193833  21.3264083
  62.9066993  45.2693833  21.9054083  62.6586993  43.9233833  21.8174083
  62.8286993  44.6123833  21.4844083  57.3436993  39.1363833  17.8384083
  56.8326993  39.1893833  17.1324083  58.1276993  39.3763833  17.5424083
  57.3836993  39.1793833  17.6904083  62.0706993  46.6663833  25.7574083
  61.2236993  46.4723833  25.8384083  62.3946993  46.5013833  26.5504083
  61.9926993  46.6133833  25.8864083  58.8226993  53.3963833  16.6434083
  59.2616993  52.6993833  16.9314083  59.0296993  54.0203833  17.2164083
  58.9186993  53.3853833  16.7704083  55.9186993  46.3593833  28.0734083
  56.6406993  46.8473833  28.0364083  55.6486993  46.3293833  27.2444083
  55.9856993  46.4273833  27.9454083  59.1486993  41.5303833  24.8084083
  59.9946993  41.3403833  24.9064083  58.7786993  40.7533833  24.6704083
  59.2186993  41.3873833  24.8024083  53.9696993  42.8683833  21.4634083
  54.4586993  42.5763833  22.1244083  54.0986993  42.2753833  20.8364083
  54.0606993  42.7373833  21.4684083  58.4946993  44.3023833  16.9494083
  57.8846993  43.8973833  17.4234083  58.1086993  44.4203833  16.1764083
  58.3476993  44.2593833  16.9054083  55.3136993  47.4113833  32.3514083
  54.8926993  46.8933833  31.7904083  54.9616993  48.1973833  32.2084083
  55.1996993  47.4513833  32.2474083  59.9496993  42.7633833  19.6594083
  60.2216993  43.5893833  19.7264083  59.0866993  42.8383833  19.5634083
  59.8626993  42.8963833  19.6544083  53.4296993  38.7333833  26.1954083
  53.4736993  39.0773833  25.3944083  54.1846993  38.9703833  26.5624083
  53.5476993  38.8193833  26.1314083  65.3706993  48.0723833  17.6654083
  66.0546993  47.5583833  17.4964083  64.9536993  48.1183833  16.9004083
  65.4096993  48.0033833  17.5274083  60.0526993  49.2223833  28.9694083
  59.7546993  49.8143833  29.5364083  60.1076993  49.6643833  28.2204083
  60.0166993  49.3753833  28.9424083  58.0316993  48.1723833  32.3674083
  57.2256993  47.8823833  32.5344083  57.9426993  49.0403833  32.3734083
  57.8996993  48.2573833  32.3924083  62.5686993  45.6453833  28.4604083
  63.0446993  46.0193833  29.0884083  61.7456993  45.7793833  28.7194083
  62.5176993  45.7203833  28.5914083  59.2786993  41.2483833  31.2014083
  59.4396993  40.5043833  31.6284083  59.2336993  40.9993833  30.3664083
  59.2956993  41.1013833  31.1414083  61.8326993  53.0383833  23.6884083
  62.3786993  53.7173833  23.7424083  61.4826993  53.1203833  22.8934083
  61.8616993  53.1513833  23.5784083  61.0306993  37.0563833  31.0814083
  61.7356993  37.3763833  30.6794083  61.2716993  36.2493833  31.3084083
  61.1696993  36.9843833  31.0554083  60.0156993  51.2663833  27.0774083
  59.3916993  51.8483833  26.8954083  60.2636993  50.9803833  26.2914083
  59.9596993  51.3103833  26.9344083  64.3246993  47.9003833  34.0664083
  65.0816993  48.1863833  33.7404083  63.7776993  47.9523833  33.3884083
  64.3556993  47.9503833  33.9174083  61.6096993  46.0423833  16.9924083
  60.8046993  45.8653833  16.7074083  61.5766993  46.8933833  17.1844083
  61.4856993  46.1413833  16.9794083  57.5396993  42.1093833  27.1424083
  57.9796993  42.0063833  26.3964083  58.0846993  41.7963833  27.7474083
  57.6846993  42.0483833  27.1214083  65.5556993  41.2113833  32.7344083
  64.9076993  41.6813833  33.0824083  66.1206993  41.1223833  33.3934083
  65.5436993  41.2673833  32.8834083  65.2436993  42.7483833  29.0324083
  65.5456993  43.1683833  29.7354083  65.2796993  41.9083833  29.2644083
  65.2936993  42.6863833  29.1704083  62.6686993  52.9153833  32.9574083
  63.1466993  52.3153833  32.5414083  62.3176993  52.4723833  33.6224083
  62.6876993  52.7613833  32.9944083  61.0866993  37.0943833  27.1894083
  60.2606993  36.9453833  27.4264083  61.0466993  37.1293833  26.3184083
  60.9586993  37.0773833  27.0954083  62.7276993  48.1343833  31.9774083
  61.9326993  48.0703833  32.3284083  62.7986993  48.9813833  31.7824083
  62.6206993  48.2493833  32.0004083  53.6516993  37.4923833  33.2244083
  53.5116993  38.2873833  32.8934083  52.8656993  37.2493833  33.5134083
  53.5146993  37.5743833  33.2184083  58.5576993  54.3413833  27.2944083
  58.5686993  54.4003833  28.1644083  58.1326993  53.5943833  27.1444083
  58.4966993  54.2393833  27.4004083  56.7156993  40.2363833  20.4494083
  56.8416993  39.9073833  19.6514083  55.9036993  39.9873833  20.6484083
  56.6146993  40.1513833  20.3614083  65.4726993  47.3893833  23.4934083
  65.5486993  47.7303833  24.2924083  65.6416993  46.5423833  23.6144083
  65.5086993  47.3143833  23.6294083  62.9946993  46.6633833  23.0584083
  62.6966993  46.3483833  23.8154083  63.6896993  47.1363833  23.2934083
  63.0536993  46.6863833  23.2054083  63.2166993  50.7813833  31.0854083
  63.9036993  50.6673833  31.6104083  63.3506993  51.5723833  30.7414083
  63.3376993  50.8813833  31.1124083  55.3216993  53.8393833  32.7364083
  54.6676993  53.2703833  32.8344083  54.9466993  54.6123833  32.8874083
  55.1696993  53.8693833  32.7734083  63.8396993  45.2453833  34.6594083
  64.1626993  45.9313833  34.2274083  63.1356993  45.5683833  35.0614083
  63.7826993  45.3943833  34.6544083  63.6246993  48.7093833  28.5184083
  62.9306993  49.1113833  28.8614083  64.3016993  49.1423833  28.8574083
  63.6216993  48.8323833  28.6194083  56.6926993  42.2473833  30.8654083
  57.0676993  42.8663833  30.3784083  57.3666993  41.7733833  31.1504083
  56.8476993  42.2693833  30.8354083  54.4676993  40.6953833  30.1404083
  54.5446993  40.5263833  29.2874083  55.2136993  41.1013833  30.3374083
  54.5886993  40.7303833  30.0434083  57.0216993  38.1053833  32.5514083
  56.9406993  37.2613833  32.7574083  56.7076993  38.1493833  31.7384083
  56.9636993  37.9873833  32.4614083  63.9466993  50.3003833  21.6874083
  63.7416993  51.1333833  21.5284083  63.1716993  49.9183833  21.8094083
  63.8016993  50.3673833  21.6824083  53.8646993  45.9213833  30.3644083
  54.1846993  46.1403833  29.5834083  53.7646993  45.0563833  30.3094083
  53.8966993  45.8263833  30.2414083  55.3206993  41.8573833  16.9824083
  54.6486993  41.8713833  17.5384083  55.4156993  41.0093833  16.7984083
  55.2356993  41.7343833  17.0374083  65.0076993  38.2813833  33.7184083
  65.0996993  38.9933833  34.2124083  64.3706993  37.8363833  34.1154083
  64.9266993  38.3203833  33.8504083  64.0016993  38.4713833  24.5724083
  63.3016993  38.9893833  24.5164083  64.0396993  38.0913833  23.7884083
  63.9036993  38.4923833  24.4484083  59.3086993  50.5623833  18.0964083
  59.7496993  50.6423833  18.8444083  58.5036993  50.3463833  18.3544083
  59.2546993  50.5423833  18.2454083  58.6276993  45.2133833  31.7494083
  58.2316993  45.9873833  31.8244083  58.2216993  44.8403833  31.0734083
  58.5096993  45.2723833  31.6604083  56.6376993  49.6323833  18.6974083
  56.3936993  49.3253833  19.4774083  56.6046993  48.9293833  18.1814083
  56.5966993  49.4833833  18.7364083  59.4566993  47.8773833  17.4404083
  58.6386993  47.6093833  17.5804083  59.4286993  48.7293833  17.6254083
  59.3316993  47.9643833  17.4884083  59.0566993  38.1903833  29.1994083
  58.1926993  38.2743833  29.2794083  59.2766993  37.6763833  29.8684083
  58.9616993  38.1273833  29.3104083  63.1596993  38.9383833  27.5734083
  62.4226993  38.4843833  27.6864083  63.7306993  38.5363833  28.0964083
  63.1346993  38.8113833  27.6674083  65.8916993  49.7863833  29.3614083
  66.0976993  50.0873833  30.1534083  65.8306993  50.5083833  28.8764083
  65.9126993  49.9373833  29.4064083  65.4256993  54.0003833  33.6074083
  64.6726993  53.9823833  33.1664083  65.5936993  54.8523833  33.6914083
  65.3396993  54.1233833  33.5544083  60.6626993  43.2673833  32.7774083
  60.3406993  42.6913833  32.2074083  60.3036993  44.0223833  32.5314083
  60.5626993  43.2933833  32.6574083  61.4586993  36.5193833  17.4044083
  61.5366993  36.7663833  16.5714083  60.7156993  36.8963833  17.6624083
  61.3606993  36.6113833  17.3194083  59.0976993  53.6233833  33.0254083
  59.1386993  53.7493833  33.8884083  59.7486993  53.0633833  32.8694083
  59.1996993  53.5593833  33.1304083  56.2766993  38.2733833  29.8474083
  55.9336993  37.5063833  29.6134083  55.5816993  38.7973833  29.9114083
  56.1236993  38.2373833  29.8224083  65.3226993  37.1293833  26.8244083
  65.9926993  37.6733833  26.9514083  64.8196993  37.5533833  26.2514083
  65.3476993  37.2723833  26.7584083  56.6906993  52.0063833  34.3854083
  57.2856993  52.4373833  34.8574083  56.3266993  52.6303833  33.8964083
  56.7246993  52.1623833  34.3824083  64.6816993  42.9373833  24.3174083
  65.2326993  42.3303833  24.6174083  64.2566993  43.2003833  25.0324083
  64.7006993  42.8863833  24.4664083  54.9296993  41.5873833  23.8034083
  54.5616993  41.8893833  24.5344083  55.4636993  40.9583833  24.0874083
  54.9536993  41.5393833  23.9534083  54.6176993  49.9953833  31.3144083
  54.0436993  50.4113833  31.8234083  55.3506993  50.4603833  31.4094083
  54.6416993  50.1253833  31.4034083  56.4036993  53.2623833  20.0894083
  56.2586993  53.4183833  19.2434083  57.2696993  53.3413833  20.1674083
  56.5106993  53.2973833  19.9764083  60.5706993  45.6593833  19.8174083
  60.6706993  45.7983833  18.9624083  61.3886993  45.5993833  20.1134083
  60.7056993  45.6703833  19.7344083  65.8056993  49.9883833  19.6194083
  65.5546993  49.8603833  20.4454083  65.4886993  49.2933833  19.1984083
  65.7216993  49.8673833  19.6794083  59.7096993  38.6343833  32.9334083
  59.9436993  38.0583833  32.3204083  58.8676993  38.4533833  33.0744083
  59.6196993  38.5223833  32.8634083  57.0906993  52.0773833  26.5664083
  57.0116993  51.2673833  26.2504083  56.6466993  52.5643833  25.9944083
  57.0136993  52.0293833  26.4354083  62.6916993  48.1963833  19.0494083
  63.4086993  47.8493833  18.6934083  62.6576993  48.9963833  18.7014083
  62.7926993  48.2633833  18.9454083  54.6626993  54.3213833  30.1474083
  55.1556993  54.2653833  30.8654083  54.8506993  53.5883833  29.7124083
  54.7636993  54.2043833  30.1894083  64.1006993  36.8373833   3.2881673
  63.8556993  37.3253833   2.6081673  64.9636993  36.7643833   3.1881673
  64.1916993  36.8983833   3.1731673  63.9096993  43.7533833   7.9591673
  63.3856993  44.3493833   8.3221673  64.3066993  43.3853833   8.6431673
  63.8906993  43.7873833   8.1141673  53.7786993  47.8933833   3.4151673
  53.3376993  48.0113833   4.1581673  53.4956993  47.1183833   3.1301673
  53.6716993  47.7963833   3.4831673  56.2876993  48.5893833   2.4941673
  56.8956993  48.4193833   3.0971673  55.5366993  48.4493833   2.9151673
  56.2666993  48.5433833   2.6451673  60.5696993  37.9243833   2.4431673
  60.4996993  38.6013833   1.8971673  61.3106993  37.5363833   2.1941673
  60.6686993  37.9673833   2.3251673  53.7186993  50.6283833   9.6701673
  53.8476993  50.3483833  10.4861673  53.1086993  50.0873833   9.3611673
  53.6476993  50.5073833   9.7451673  60.2926993  48.1533833  14.7371673
  60.0566993  48.1503833  15.5771673  59.5446993  48.0053833  14.3131673
  60.1466993  48.1303833  14.7981673  55.1646993  45.1493833   3.8721673
  54.7026993  44.7573833   3.2451673  55.8646993  44.6363833   3.9641673
  55.1996993  45.0163833   3.7931673  59.6726993  40.7593833   9.2191673
  60.3506993  40.7773833   8.6701673  59.6276993  39.9233833   9.4641673
  59.7656993  40.6383833   9.1741673  60.2746993  51.3453833  12.0001673
  60.4126993  52.1053833  11.5931673  61.0656993  50.9803833  12.0271673
  60.4116993  51.4043833  11.9441673  57.1656993  43.2493833   3.8951673
  57.9826993  43.0623833   4.1381673  56.6886993  42.6353833   4.2911673
  57.2156993  43.1313833   3.9901673  61.3696993  49.2303833   6.5051673
  61.7176993  48.4313833   6.5351673  62.0346993  49.7343833   6.2501673
  61.5196993  49.1863833   6.4721673  61.4266993  48.6793833   2.7161673
  61.7576993  48.0353833   3.2021673  61.6666993  48.4683833   1.9051673
  61.5106993  48.5533833   2.6681673  63.3946993  42.8103833  14.0551673
  62.5466993  42.7113833  13.8771673  63.4236993  43.5553833  14.5091673
  63.2736993  42.9063833  14.0961673  57.7626993  38.3433833   3.1611673
  57.4666993  38.8443833   2.5111673  58.6296993  38.4213833   3.1041673
  57.8466993  38.4293833   3.0571673  60.7416993  37.4853833   5.3841673
  60.8146993  38.3453833   5.5131673  60.7036993  37.4103833   4.5161673
  60.7466993  37.6013833   5.2751673  53.6206993  42.9103833   6.8851673
  53.3646993  43.7413833   6.8101673  52.9566993  42.5273833   7.3021673
  53.4846993  42.9763833   6.9361673  53.5306993  52.6203833   4.7851673
  52.9386993  53.1783833   4.4721673  53.9566993  52.3513833   4.0731673
  53.5066993  52.6623833   4.6341673  59.3706993  50.4643833   2.2651673
  58.7916993  50.1893833   2.8571673  59.9946993  49.8553833   2.2901673
  59.3776993  50.3343833   2.3561673  63.6816993  53.1443833   1.7771673
  63.8956993  53.6713833   2.4391673  64.4486993  52.9703833   1.3981673
  63.8266993  53.1963833   1.8191673  56.6496993  37.7273833   7.3761673
  56.1286993  37.0993833   7.0681673  57.2406993  37.2903833   7.8471673
  56.6606993  37.5693833   7.4001673  59.9556993  39.8603833  16.6741673
  60.0726993  39.4063833  15.9381673  60.2436993  40.6583833  16.4711673
  60.0156993  39.9113833  16.5351673  55.0756993  51.2903833   2.7161673
  55.7316993  50.7153833   2.7311673  55.4646993  52.0393833   2.4951673
  55.2306993  51.3153833   2.6861673  55.6886993  39.4573833  15.6581673
  54.9106993  39.0673833  15.5861673  56.1796993  39.0453833  15.0671673
  55.6456993  39.3383833  15.5601673  55.8936993  49.7773833   6.2161673
  56.3166993  49.4213833   5.5421673  56.2176993  49.3553833   6.9081673
  56.0036993  49.6623833   6.2191673  59.1246993  52.6293833   5.5121673
  59.9686993  52.7333833   5.3171673  58.8276993  53.4473833   5.5801673
  59.2056993  52.7653833   5.4931673  62.3376993  37.1003833  14.8261673
  62.5156993  36.2913833  14.5511673  62.1946993  37.5413833  14.0871673
  62.3426993  37.0463833  14.6761673  62.9316993  42.0263833   3.5991673
  63.2186993  41.7943833   2.8091673  63.6636993  42.1053833   4.0681673
  63.0816993  42.0033833   3.5521673  58.1226993  53.8483833  11.2521673
  58.4146993  53.7813833  12.0721673  57.4966993  53.2433833  11.2071673
  58.0736993  53.7493833  11.3671673  53.0366993  40.0053833  13.2441673
  53.0326993  40.5923833  13.8901673  53.6306993  40.3173833  12.6871673
  53.1236993  40.1383833  13.2571673  53.9736993  39.6003833   2.1591673
  53.8596993  38.7363833   2.1901673  53.4986993  39.8943833   2.8291673
  53.8866993  39.5163833   2.2621673  56.1156993  52.0103833  10.3741673
  55.4176993  51.5023833  10.5001673  56.3756993  51.8053833   9.5661673
  56.0506993  51.9053833  10.2731673  63.8266993  53.5033833  11.2841673
  64.5946993  53.4233833  10.8781673  63.2436993  53.3823833  10.6461673
  63.8536993  53.4733833  11.1301673  61.8756993  40.1163833   5.3171673
  61.9496993  40.6843833   4.6591673  61.9966993  40.6083833   6.0271673
  61.9036993  40.2733833   5.3251673  57.4766993  50.8613833  12.9411673
  58.3176993  50.9243833  12.7191673  57.4396993  51.2583833  13.7171673
  57.5956993  50.9293833  13.0231673  56.4836993  35.9393833   3.6651673
  57.0196993  36.6273833   3.6551673  56.4866993  35.6653833   2.8371673
  56.5626993  36.0003833   3.5411673  59.4396993  46.3723833   7.6901673
  59.6116993  46.1623833   8.5191673  58.7846993  45.8383833   7.4741673
  59.3686993  46.2623833   7.7811673  65.6676993  40.2863833  11.2051673
  65.5726993  40.6053833  12.0111673  65.0746993  39.6473833  11.1671673
  65.5656993  40.2383833  11.3191673  60.1896993  46.3103833  10.2801673
  60.2426993  47.1573833  10.4821673  59.9046993  45.9403833  11.0171673
  60.1556993  46.3803833  10.4181673  53.0106993  50.6813833  16.4911673
  53.7666993  51.0303833  16.7491673  53.1876993  49.8283833  16.4341673
  53.1486993  50.6063833  16.5211673  56.9316993  39.7493833   5.3191673
  57.2036993  39.3193833   4.6111673  56.7556993  39.1133833   5.8901673
  56.9456993  39.5923833   5.2991673  56.7556993  47.1763833   4.8681673
  57.6066993  47.0963833   4.6951673  56.3986993  46.4943833   4.4561673
  56.8286993  47.0633833   4.7811673  55.5226993  53.9013833   6.1051673
  54.8496993  53.4033833   5.8601673  55.9256993  54.0863833   5.3541673
  55.4826993  53.8553833   5.9581673  55.0726993  40.8513833   8.4011673
  55.9156993  41.0713833   8.3581673  54.6836993  41.4243833   7.8701673
  55.1396993  40.9683833   8.3161673  59.1236993  47.1833833   3.1031673
  59.8366993  47.6783833   3.1931673  59.3456993  46.6163833   2.4771673
  59.2616993  47.1723833   3.0241673  53.2796993  48.8263833   6.4231673
  52.6126993  49.3143833   6.6991673  53.9596993  49.3713833   6.4521673
  53.2816993  48.9783833   6.4681673  60.9266993  42.5363833  16.5191673
  60.4426993  43.1133833  16.9611673  60.8986993  42.8313833  15.6981673
  60.8506993  42.6653833  16.4631673  63.6466993  50.8863833   5.4301673
  63.1236993  51.5203833   5.1371673  63.9566993  50.5223833   4.7011673
  63.6146993  50.9263833   5.2791673  57.7216993  48.6743833   8.1901673
  58.1886993  48.9633833   8.8681673  58.2936993  48.1963833   7.7361673
  57.8756993  48.6463833   8.2231673  54.2876993  46.3443833   6.7341673
  54.7186993  46.2153833   5.9871673  54.0826993  47.1923833   6.7081673
  54.3206993  46.4503833   6.6201673  58.3716993  49.8603833   5.0161673
  58.4976993  50.7033833   5.2031673  59.0396993  49.4613833   5.4121673
  58.4896993  49.9263833   5.1021673  56.5016993  43.3433833  14.8781673
  55.9656993  42.8373833  15.3461673  56.5216993  42.9533833  14.0981673
  56.4246993  43.2103833  14.8321673  57.1536993  44.5703833   6.6171673
  56.3726993  44.5113833   6.2341673  57.2256993  43.8183833   7.0541673
  57.0486993  44.4513833   6.6251673  57.5836993  44.3073833  10.0851673
  57.6086993  43.6323833   9.5341673  56.9376993  44.8033833   9.7731673
  57.4926993  44.2803833   9.9581673  61.6836993  53.0843833   9.4771673
  61.4066993  52.4433833   8.9541673  61.4756993  53.8103833   9.0391673
  61.6126993  53.0973833   9.3351673  64.1236993  37.9263833  11.9101673
  64.2726993  37.1013833  11.6671673  64.5026993  37.9813833  12.6941673
  64.2016993  37.8123833  11.9901673  55.3826993  45.6623833  15.6441673
  55.3456993  46.1633833  14.9301673  55.7136993  44.9103833  15.3491673
  55.4256993  45.6243833  15.4951673  61.2816993  50.7123833  15.0791673
  61.6356993  50.5343833  15.8561673  60.8456993  49.9833833  14.8801673
  61.2696993  50.5783833  15.1651673  62.2536993  41.4593833   7.7171673
  62.7336993  42.1583833   7.9251673  62.6266993  40.8123833   8.1681673
  62.3796993  41.4673833   7.8141673  65.4596993  51.5643833   7.8161673
  64.8566993  51.2683833   7.2591673  66.0046993  52.0163833   7.3071673
  65.4506993  51.5873833   7.6581673  65.4726993  48.4153833   7.2161673
  64.6756993  48.6393833   7.4901673  65.7306993  47.8213833   7.8011673
  65.3926993  48.3603833   7.3431673  64.9236993  51.7623833  16.3391673
  65.0876993  52.0453833  17.1481673  65.1866993  52.4233833  15.8341673
  64.9866993  51.9023833  16.3841673  64.4636993  46.2193833  11.6621673
  64.3086993  46.8293833  12.2661673  64.9976993  45.6613833  12.0681673
  64.5196993  46.2273833  11.8111673  53.1546993  36.9383833   1.8631673
  53.2836993  36.2303833   1.3711673  52.7876993  36.6203833   2.5881673
  53.1196993  36.7863833   1.8981673  62.8476993  44.6193833   2.3201673
  62.9066993  45.2693833   2.8991673  62.6586993  43.9233833   2.8111673
  62.8286993  44.6123833   2.4781673  62.0706993  46.6663833   6.7511673
  61.2236993  46.4723833   6.8321673  62.3946993  46.5013833   7.5441673
  61.9926993  46.6133833   6.8801673  55.9186993  46.3593833   9.0671673
  56.6406993  46.8473833   9.0301673  55.6486993  46.3293833   8.2381673
  55.9856993  46.4273833   8.9391673  59.1486993  41.5303833   5.8021673
  59.9946993  41.3403833   5.9001673  58.7786993  40.7533833   5.6641673
  59.2186993  41.3873833   5.7961673  53.9696993  42.8683833   2.4571673
  54.4586993  42.5763833   3.1181673  54.0986993  42.2753833   1.8301673
  54.0606993  42.7373833   2.4621673  55.3136993  47.4113833  13.3451673
  54.8926993  46.8933833  12.7841673  54.9616993  48.1973833  13.2021673
  55.1996993  47.4513833  13.2411673  53.4296993  38.7333833   7.1891673
  53.4736993  39.0773833   6.3881673  54.1846993  38.9703833   7.5561673
  53.5476993  38.8193833   7.1251673  60.0526993  49.2223833   9.9631673
  59.7546993  49.8143833  10.5301673  60.1076993  49.6643833   9.2141673
  60.0166993  49.3753833   9.9361673  58.0316993  48.1723833  13.3611673
  57.2256993  47.8823833  13.5281673  57.9426993  49.0403833  13.3671673
  57.8996993  48.2573833  13.3861673  62.5686993  45.6453833   9.4541673
  63.0446993  46.0193833  10.0821673  61.7456993  45.7793833   9.7131673
  62.5176993  45.7203833   9.5851673  59.2786993  41.2483833  12.1951673
  59.4396993  40.5043833  12.6221673  59.2336993  40.9993833  11.3601673
  59.2956993  41.1013833  12.1351673  61.8326993  53.0383833   4.6821673
  62.3786993  53.7173833   4.7361673  61.4826993  53.1203833   3.8871673
  61.8616993  53.1513833   4.5721673  61.0306993  37.0563833  12.0751673
  61.7356993  37.3763833  11.6731673  61.2716993  36.2493833  12.3021673
  61.1696993  36.9843833  12.0491673  60.0156993  51.2663833   8.0711673
  59.3916993  51.8483833   7.8891673  60.2636993  50.9803833   7.2851673
  59.9596993  51.3103833   7.9281673  64.3246993  47.9003833  15.0601673
  65.0816993  48.1863833  14.7341673  63.7776993  47.9523833  14.3821673
  64.3556993  47.9503833  14.9111673  57.5396993  42.1093833   8.1361673
  57.9796993  42.0063833   7.3901673  58.0846993  41.7963833   8.7411673
  57.6846993  42.0483833   8.1151673  65.5556993  41.2113833  13.7281673
  64.9076993  41.6813833  14.0761673  66.1206993  41.1223833  14.3871673
  65.5436993  41.2673833  13.8771673  65.2436993  42.7483833  10.0261673
  65.5456993  43.1683833  10.7291673  65.2796993  41.9083833  10.2581673
  65.2936993  42.6863833  10.1641673  62.6686993  52.9153833  13.9511673
  63.1466993  52.3153833  13.5351673  62.3176993  52.4723833  14.6161673
  62.6876993  52.7613833  13.9881673  61.0866993  37.0943833   8.1831673
  60.2606993  36.9453833   8.4201673  61.0466993  37.1293833   7.3121673
  60.9586993  37.0773833   8.0891673  62.7276993  48.1343833  12.9711673
  61.9326993  48.0703833  13.3221673  62.7986993  48.9813833  12.7761673
  62.6206993  48.2493833  12.9941673  53.6516993  37.4923833  14.2181673
  53.5116993  38.2873833  13.8871673  52.8656993  37.2493833  14.5071673
  53.5146993  37.5743833  14.2121673  58.5576993  54.3413833   8.2881673
  58.5686993  54.4003833   9.1581673  58.1326993  53.5943833   8.1381673
  58.4966993  54.2393833   8.3941673  65.4726993  47.3893833   4.4871673
  65.5486993  47.7303833   5.2861673  65.6416993  46.5423833   4.6081673
  65.5086993  47.3143833   4.6231673  62.9946993  46.6633833   4.0521673
  62.6966993  46.3483833   4.8091673  63.6896993  47.1363833   4.2871673
  63.0536993  46.6863833   4.1991673  63.2166993  50.7813833  12.0791673
  63.9036993  50.6673833  12.6041673  63.3506993  51.5723833  11.7351673
  63.3376993  50.8813833  12.1061673  55.3216993  53.8393833  13.7301673
  54.6676993  53.2703833  13.8281673  54.9466993  54.6123833  13.8811673
  55.1696993  53.8693833  13.7671673  63.8396993  45.2453833  15.6531673
  64.1626993  45.9313833  15.2211673  63.1356993  45.5683833  16.0551673
  63.7826993  45.3943833  15.6481673  63.6246993  48.7093833   9.5121673
  62.9306993  49.1113833   9.8551673  64.3016993  49.1423833   9.8511673
  63.6216993  48.8323833   9.6131673  56.6926993  42.2473833  11.8591673
  57.0676993  42.8663833  11.3721673  57.3666993  41.7733833  12.1441673
  56.8476993  42.2693833  11.8291673  54.4676993  40.6953833  11.1341673
  54.5446993  40.5263833  10.2811673  55.2136993  41.1013833  11.3311673
  54.5886993  40.7303833  11.0371673  57.0216993  38.1053833  13.5451673
  56.9406993  37.2613833  13.7511673  56.7076993  38.1493833  12.7321673
  56.9636993  37.9873833  13.4551673  63.9466993  50.3003833   2.6811673
  63.7416993  51.1333833   2.5221673  63.1716993  49.9183833   2.8031673
  63.8016993  50.3673833   2.6761673  53.8646993  45.9213833  11.3581673
  54.1846993  46.1403833  10.5771673  53.7646993  45.0563833  11.3031673
  53.8966993  45.8263833  11.2351673  65.0076993  38.2813833  14.7121673
  65.0996993  38.9933833  15.2061673  64.3706993  37.8363833  15.1091673
  64.9266993  38.3203833  14.8441673  64.0016993  38.4713833   5.5661673
  63.3016993  38.9893833   5.5101673  64.0396993  38.0913833   4.7821673
  63.9036993  38.4923833   5.4421673  58.6276993  45.2133833  12.7431673
  58.2316993  45.9873833  12.8181673  58.2216993  44.8403833  12.0671673
  58.5096993  45.2723833  12.6541673  59.0566993  38.1903833  10.1931673
  58.1926993  38.2743833  10.2731673  59.2766993  37.6763833  10.8621673
  58.9616993  38.1273833  10.3041673  63.1596993  38.9383833   8.5671673
  62.4226993  38.4843833   8.6801673  63.7306993  38.5363833   9.0901673
  63.1346993  38.8113833   8.6611673  65.8916993  49.7863833  10.3551673
  66.0976993  50.0873833  11.1471673  65.8306993  50.5083833   9.8701673
  65.9126993  49.9373833  10.4001673  65.4256993  54.0003833  14.6011673
  64.6726993  53.9823833  14.1601673  65.5936993  54.8523833  14.6851673
  65.3396993  54.1233833  14.5481673  60.6626993  43.2673833  13.7711673
  60.3406993  42.6913833  13.2011673  60.3036993  44.0223833  13.5251673
  60.5626993  43.2933833  13.6511673  59.0976993  53.6233833  14.0191673
  59.1386993  53.7493833  14.8821673  59.7486993  53.0633833  13.8631673
  59.1996993  53.5593833  14.1241673  56.2766993  38.2733833  10.8411673
  55.9336993  37.5063833  10.6071673  55.5816993  38.7973833  10.9051673
  56.1236993  38.2373833  10.8161673  65.3226993  37.1293833   7.8181673
  65.9926993  37.6733833   7.9451673  64.8196993  37.5533833   7.2451673
  65.3476993  37.2723833   7.7521673  56.6906993  52.0063833  15.3791673
  57.2856993  52.4373833  15.8511673  56.3266993  52.6303833  14.8901673
  56.7246993  52.1623833  15.3761673  64.6816993  42.9373833   5.3111673
  65.2326993  42.3303833   5.6111673  64.2566993  43.2003833   6.0261673
  64.7006993  42.8863833   5.4601673  54.9296993  41.5873833   4.7971673
  54.5616993  41.8893833   5.5281673  55.4636993  40.9583833   5.0811673
  54.9536993  41.5393833   4.9471673  54.6176993  49.9953833  12.3081673
  54.0436993  50.4113833  12.8171673  55.3506993  50.4603833  12.4031673
  54.6416993  50.1253833  12.3971673  59.7096993  38.6343833  13.9271673
  59.9436993  38.0583833  13.3141673  58.8676993  38.4533833  14.0681673
  59.6196993  38.5223833  13.8571673  57.0906993  52.0773833   7.5601673
  57.0116993  51.2673833   7.2441673  56.6466993  52.5643833   6.9881673
  57.0136993  52.0293833   7.4291673  54.6626993  54.3213833  11.1411673
  55.1556993  54.2653833  11.8591673  54.8506993  53.5883833  10.7061673
  54.7636993  54.2043833  11.1831673  64.1006993  18.3592753  79.3131313
  63.8556993  18.8472753  78.6331313  64.9636993  18.2862753  79.2131313
  64.1916993  18.4202753  79.1981313  63.9096993  25.2752753  83.9841313
  63.3856993  25.8712753  84.3471313  64.3066993  24.9072753  84.6681313
  63.8906993  25.3092753  84.1391313  53.7786993  29.4152753  79.4401313
  53.3376993  29.5332753  80.1831313  53.4956993  28.6402753  79.1551313
  53.6716993  29.3182753  79.5081313  53.5216993  23.2072753  75.9471313
  52.7436993  23.3692753  75.5871313  53.5606993  22.3362753  75.9691313
  53.4126993  23.1022753  75.8971313  56.6606993  28.4702753  74.6191313
  56.2686993  28.0992753  73.9331313  56.5806993  27.8722753  75.2481313
  56.5906993  28.3272753  74.6101313  56.2876993  30.1112753  78.5191313
  56.8956993  29.9412753  79.1221313  55.5366993  29.9712753  78.9401313
  56.2666993  30.0652753  78.6701313  60.5696993  19.4462753  78.4681313
  60.4996993  20.1232753  77.9221313  61.3106993  19.0582753  78.2191313
  60.6686993  19.4892753  78.3501313  55.1786993  33.2022753  74.5961313
  55.6456993  33.2862753  73.8641313  55.6336993  32.6242753  75.0651313
  55.3146993  33.1292753  74.5571313  53.7186993  32.1502753  85.6951313
  53.8476993  31.8702753  86.5111313  53.1086993  31.6092753  85.3861313
  53.6476993  32.0292753  85.7701313  55.1646993  26.6712753  79.8971313
  54.7026993  26.2792753  79.2701313  55.8646993  26.1582753  79.9891313
  55.1996993  26.5382753  79.8181313  59.6726993  22.2812753  85.2441313
  60.3506993  22.2992753  84.6951313  59.6276993  21.4452753  85.4891313
  59.7656993  22.1602753  85.1991313  60.2746993  32.8672753  88.0251313
  60.4126993  33.6272753  87.6181313  61.0656993  32.5022753  88.0521313
  60.4116993  32.9262753  87.9691313  57.1656993  24.7712753  79.9201313
  57.9826993  24.5842753  80.1631313  56.6886993  24.1572753  80.3161313
  57.2156993  24.6532753  80.0151313  61.3696993  30.7522753  82.5301313
  61.7176993  29.9532753  82.5601313  62.0346993  31.2562753  82.2751313
  61.5196993  30.7082753  82.4971313  61.4266993  30.2012753  78.7411313
  61.7576993  29.5572753  79.2271313  61.6666993  29.9902753  77.9301313
  61.5106993  30.0752753  78.6931313  57.7626993  19.8652753  79.1861313
  57.4666993  20.3662753  78.5361313  58.6296993  19.9432753  79.1291313
  57.8466993  19.9512753  79.0821313  60.7416993  19.0072753  81.4091313
  60.8146993  19.8672753  81.5381313  60.7036993  18.9322753  80.5411313
  60.7466993  19.1232753  81.3001313  65.4146993  21.9332753  73.7081313
  64.9646993  22.6142753  74.0151313  65.5286993  21.4292753  74.4111313
  65.3656993  21.9592753  73.8571313  53.6206993  24.4322753  82.9101313
  53.3646993  25.2632753  82.8351313  52.9566993  24.0492753  83.3271313
  53.4846993  24.4982753  82.9611313  53.5306993  34.1422753  80.8101313
  52.9386993  34.7002753  80.4971313  53.9566993  33.8732753  80.0981313
  53.5066993  34.1842753  80.6591313  59.3706993  31.9862753  78.2901313
  58.7916993  31.7112753  78.8821313  59.9946993  31.3772753  78.3151313
  59.3776993  31.8562753  78.3811313  63.6816993  34.6662753  77.8021313
  63.8956993  35.1932753  78.4641313  64.4486993  34.4922753  77.4231313
  63.8266993  34.7182753  77.8441313  56.6496993  19.2492753  83.4011313
  56.1286993  18.6212753  83.0931313  57.2406993  18.8122753  83.8721313
  56.6606993  19.0912753  83.4251313  55.0756993  32.8122753  78.7411313
  55.7316993  32.2372753  78.7561313  55.4646993  33.5612753  78.5201313
  55.2306993  32.8372753  78.7111313  55.8936993  31.2992753  82.2411313
  56.3166993  30.9432753  81.5671313  56.2176993  30.8772753  82.9331313
  56.0036993  31.1842753  82.2441313  59.1246993  34.1512753  81.5371313
  59.9686993  34.2552753  81.3421313  58.8276993  34.9692753  81.6051313
  59.2056993  34.2872753  81.5181313  62.9316993  23.5482753  79.6241313
  63.2186993  23.3162753  78.8341313  63.6636993  23.6272753  80.0931313
  63.0816993  23.5252753  79.5771313  63.6536993  23.8872753  74.7451313
  63.9346993  24.6752753  74.9941313  62.8776993  24.0522753  74.3821313
  63.5806993  24.0282753  74.7281313  58.1226993  35.3702753  87.2771313
  58.4146993  35.3032753  88.0971313  57.4966993  34.7652753  87.2321313
  58.0736993  35.2712753  87.3921313  62.5126993  32.0582753  74.5611313
  62.3316993  32.6032753  75.2181313  63.2786993  32.3482753  74.2601313
  62.5986993  32.1822753  74.6141313  53.9736993  21.1222753  78.1841313
  53.8596993  20.2582753  78.2151313  53.4986993  21.4162753  78.8541313
  53.8866993  21.0382753  78.2871313  56.1156993  33.5322753  86.3991313
  55.4176993  33.0242753  86.5251313  56.3756993  33.3272753  85.5911313
  56.0506993  33.4272753  86.2981313  63.2776993  22.3302753  76.9291313
  62.7696993  21.6682753  76.6751313  63.3296993  22.8342753  76.2191313
  63.2106993  22.3072753  76.7871313  63.8266993  35.0252753  87.3091313
  64.5946993  34.9452753  86.9031313  63.2436993  34.9042753  86.6711313
  63.8536993  34.9952753  87.1551313  63.2776993  19.2712753  76.8201313
  62.8226993  18.8692753  76.1941313  64.0506993  19.4262753  76.4451313
  63.3246993  19.2352753  76.6721313  61.8756993  21.6382753  81.3421313
  61.9496993  22.2062753  80.6841313  61.9966993  22.1302753  82.0521313
  61.9036993  21.7952753  81.3501313  56.4836993  17.4612753  79.6901313
  57.0196993  18.1492753  79.6801313  56.4866993  17.1872753  78.8621313
  56.5626993  17.5222753  79.5661313  59.4396993  27.8942753  83.7151313
  59.6116993  27.6842753  84.5441313  58.7846993  27.3602753  83.4991313
  59.3686993  27.7842753  83.8061313  65.6676993  21.8082753  87.2301313
  65.5726993  22.1272753  88.0361313  65.0746993  21.1692753  87.1921313
  65.5656993  21.7602753  87.3441313  60.1896993  27.8322753  86.3051313
  60.2426993  28.6792753  86.5071313  59.9046993  27.4622753  87.0421313
  60.1556993  27.9022753  86.4431313  56.9316993  21.2712753  81.3441313
  57.2036993  20.8412753  80.6361313  56.7556993  20.6352753  81.9151313
  56.9456993  21.1142753  81.3241313  56.7556993  28.6982753  80.8931313
  57.6066993  28.6182753  80.7201313  56.3986993  28.0162753  80.4811313
  56.8286993  28.5852753  80.8061313  55.5226993  35.4232753  82.1301313
  54.8496993  34.9252753  81.8851313  55.9256993  35.6082753  81.3791313
  55.4826993  35.3772753  81.9831313  55.0726993  22.3732753  84.4261313
  55.9156993  22.5932753  84.3831313  54.6836993  22.9462753  83.8951313
  55.1396993  22.4902753  84.3411313  59.1236993  28.7052753  79.1281313
  59.8366993  29.2002753  79.2181313  59.3456993  28.1382753  78.5021313
  59.2616993  28.6942753  79.0491313  53.2796993  30.3482753  82.4481313
  52.6126993  30.8362753  82.7241313  53.9596993  30.8932753  82.4771313
  53.2816993  30.5002753  82.4931313  53.3456993  27.0322753  77.5511313
  53.1606993  26.1932753  77.7031313  54.0046993  26.9962753  76.9811313
  53.4156993  26.9032753  77.4891313  63.6466993  32.4082753  81.4551313
  63.1236993  33.0422753  81.1621313  63.9566993  32.0442753  80.7261313
  63.6146993  32.4482753  81.3041313  53.5176993  31.1962753  77.1261313
  54.0696993  31.7652753  77.4901313  53.2856993  30.6812753  77.7911313
  53.5646993  31.2042753  77.2781313  57.7216993  30.1962753  84.2151313
  58.1886993  30.4852753  84.8931313  58.2936993  29.7182753  83.7611313
  57.8756993  30.1682753  84.2481313  53.3476993  29.6452753  74.7541313
  54.1036993  29.2132753  74.8121313  53.3626993  30.1772753  75.4451313
  53.4616993  29.6602753  74.8651313  54.2876993  27.8662753  82.7591313
  54.7186993  27.7372753  82.0121313  54.0826993  28.7142753  82.7331313
  54.3206993  27.9722753  82.6451313  60.6336993  21.4302753  76.4091313
  60.6316993  21.3132753  75.5441313  60.4526993  22.2782753  76.5011313
  60.6066993  21.5382753  76.2951313  58.3716993  31.3822753  81.0411313
  58.4976993  32.2252753  81.2281313  59.0396993  30.9832753  81.4371313
  58.4896993  31.4482753  81.1271313  56.9866993  24.2622753  76.0431313
  56.8586993  23.8142753  76.7811313  56.4046993  23.9202753  75.4911313
  56.8816993  24.1452753  76.0711313  57.1536993  26.0922753  82.6421313
  56.3726993  26.0332753  82.2591313  57.2256993  25.3402753  83.0791313
  57.0486993  25.9732753  82.6501313  57.5836993  25.8292753  86.1101313
  57.6086993  25.1542753  85.5591313  56.9376993  26.3252753  85.7981313
  57.4926993  25.8022753  85.9831313  61.6836993  34.6062753  85.5021313
  61.4066993  33.9652753  84.9791313  61.4756993  35.3322753  85.0641313
  61.6126993  34.6192753  85.3601313  64.1236993  19.4482753  87.9351313
  64.2726993  18.6232753  87.6921313  64.5026993  19.5032753  88.7191313
  64.2016993  19.3342753  88.0151313  62.2536993  22.9812753  83.7421313
  62.7336993  23.6802753  83.9501313  62.6266993  22.3342753  84.1931313
  62.3796993  22.9892753  83.8391313  64.4426993  26.1502753  76.0161313
  64.4346993  26.8722753  75.5261313  63.8036993  26.2852753  76.5931313
  64.3476993  26.2772753  76.0291313  65.4596993  33.0862753  83.8411313
  64.8566993  32.7902753  83.2841313  66.0046993  33.5382753  83.3321313
  65.4506993  33.1092753  83.6831313  65.4726993  29.9372753  83.2411313
  64.6756993  30.1612753  83.5151313  65.7306993  29.3432753  83.8261313
  65.3926993  29.8822753  83.3681313  59.3646993  34.7492753  77.6891313
  59.2176993  33.9732753  78.0601313  60.0536993  34.6022753  77.1741313
  59.4446993  34.6122753  77.6681313  59.0356993  18.4922753  75.6771313
  59.1326993  18.3852753  76.5381313  58.3276993  18.9982753  75.6121313
  58.9456993  18.5512753  75.7951313  61.6566993  34.2652753  76.0911313
  62.2786993  34.4282753  76.6811313  61.6926993  34.9562753  75.5591313
  61.7536993  34.3912753  76.1001313  56.1576993  26.7992753  76.9201313
  56.4816993  26.0202753  76.6981313  56.8036993  27.1672753  77.3751313
  56.3006993  26.7382753  76.9541313  64.4636993  27.7412753  87.6871313
  64.3086993  28.3512753  88.2911313  64.9976993  27.1832753  88.0931313
  64.5196993  27.7492753  87.8361313  53.1546993  18.4602753  77.8881313
  53.2836993  17.7522753  77.3961313  52.7876993  18.1422753  78.6131313
  53.1196993  18.3082753  77.9231313  62.8476993  26.1412753  78.3451313
  62.9066993  26.7912753  78.9241313  62.6586993  25.4452753  78.8361313
  62.8286993  26.1342753  78.5031313  57.3436993  20.6582753  74.8571313
  56.8326993  20.7112753  74.1511313  58.1276993  20.8982753  74.5611313
  57.3836993  20.7012753  74.7091313  62.0706993  28.1882753  82.7761313
  61.2236993  27.9942753  82.8571313  62.3946993  28.0232753  83.5691313
  61.9926993  28.1352753  82.9051313  58.8226993  34.9182753  73.6621313
  59.2616993  34.2212753  73.9501313  59.0296993  35.5422753  74.2351313
  58.9186993  34.9072753  73.7891313  55.9186993  27.8812753  85.0921313
  56.6406993  28.3692753  85.0551313  55.6486993  27.8512753  84.2631313
  55.9856993  27.9492753  84.9641313  59.1486993  23.0522753  81.8271313
  59.9946993  22.8622753  81.9251313  58.7786993  22.2752753  81.6891313
  59.2186993  22.9092753  81.8211313  53.9696993  24.3902753  78.4821313
  54.4586993  24.0982753  79.1431313  54.0986993  23.7972753  77.8551313
  54.0606993  24.2592753  78.4871313  58.4946993  25.8242753  73.9681313
  57.8846993  25.4192753  74.4421313  58.1086993  25.9422753  73.1951313
  58.3476993  25.7812753  73.9241313  59.9496993  24.2852753  76.6781313
  60.2216993  25.1112753  76.7451313  59.0866993  24.3602753  76.5821313
  59.8626993  24.4182753  76.6731313  53.4296993  20.2552753  83.2141313
  53.4736993  20.5992753  82.4131313  54.1846993  20.4922753  83.5811313
  53.5476993  20.3412753  83.1501313  65.3706993  29.5942753  74.6841313
  66.0546993  29.0802753  74.5151313  64.9536993  29.6402753  73.9191313
  65.4096993  29.5252753  74.5461313  60.0526993  30.7442753  85.9881313
  59.7546993  31.3362753  86.5551313  60.1076993  31.1862753  85.2391313
  60.0166993  30.8972753  85.9611313  62.5686993  27.1672753  85.4791313
  63.0446993  27.5412753  86.1071313  61.7456993  27.3012753  85.7381313
  62.5176993  27.2422753  85.6101313  59.2786993  22.7702753  88.2201313
  59.4396993  22.0262753  88.6471313  59.2336993  22.5212753  87.3851313
  59.2956993  22.6232753  88.1601313  61.8326993  34.5602753  80.7071313
  62.3786993  35.2392753  80.7611313  61.4826993  34.6422753  79.9121313
  61.8616993  34.6732753  80.5971313  61.0306993  18.5782753  88.1001313
  61.7356993  18.8982753  87.6981313  61.2716993  17.7712753  88.3271313
  61.1696993  18.5062753  88.0741313  60.0156993  32.7882753  84.0961313
  59.3916993  33.3702753  83.9141313  60.2636993  32.5022753  83.3101313
  59.9596993  32.8322753  83.9531313  61.6096993  27.5642753  74.0111313
  60.8046993  27.3872753  73.7261313  61.5766993  28.4152753  74.2031313
  61.4856993  27.6632753  73.9981313  57.5396993  23.6312753  84.1611313
  57.9796993  23.5282753  83.4151313  58.0846993  23.3182753  84.7661313
  57.6846993  23.5702753  84.1401313  65.2436993  24.2702753  86.0511313
  65.5456993  24.6902753  86.7541313  65.2796993  23.4302753  86.2831313
  65.2936993  24.2082753  86.1891313  61.0866993  18.6162753  84.2081313
  60.2606993  18.4672753  84.4451313  61.0466993  18.6512753  83.3371313
  60.9586993  18.5992753  84.1141313  58.5576993  35.8632753  84.3131313
  58.5686993  35.9222753  85.1831313  58.1326993  35.1162753  84.1631313
  58.4966993  35.7612753  84.4191313  56.7156993  21.7582753  77.4681313
  56.8416993  21.4292753  76.6701313  55.9036993  21.5092753  77.6671313
  56.6146993  21.6732753  77.3801313  65.4726993  28.9112753  80.5121313
  65.5486993  29.2522753  81.3111313  65.6416993  28.0642753  80.6331313
  65.5086993  28.8362753  80.6481313  62.9946993  28.1852753  80.0771313
  62.6966993  27.8702753  80.8341313  63.6896993  28.6582753  80.3121313
  63.0536993  28.2082753  80.2241313  63.2166993  32.3032753  88.1041313
  63.9036993  32.1892753  88.6291313  63.3506993  33.0942753  87.7601313
  63.3376993  32.4032753  88.1311313  63.6246993  30.2312753  85.5371313
  62.9306993  30.6332753  85.8801313  64.3016993  30.6642753  85.8761313
  63.6216993  30.3542753  85.6381313  56.6926993  23.7692753  87.8841313
  57.0676993  24.3882753  87.3971313  57.3666993  23.2952753  88.1691313
  56.8476993  23.7912753  87.8541313  54.4676993  22.2172753  87.1591313
  54.5446993  22.0482753  86.3061313  55.2136993  22.6232753  87.3561313
  54.5886993  22.2522753  87.0621313  63.9466993  31.8222753  78.7061313
  63.7416993  32.6552753  78.5471313  63.1716993  31.4402753  78.8281313
  63.8016993  31.8892753  78.7011313  53.8646993  27.4432753  87.3831313
  54.1846993  27.6622753  86.6021313  53.7646993  26.5782753  87.3281313
  53.8966993  27.3482753  87.2601313  55.3206993  23.3792753  74.0011313
  54.6486993  23.3932753  74.5571313  55.4156993  22.5312753  73.8171313
  55.2356993  23.2562753  74.0561313  64.0016993  19.9932753  81.5911313
  63.3016993  20.5112753  81.5351313  64.0396993  19.6132753  80.8071313
  63.9036993  20.0142753  81.4671313  59.3086993  32.0842753  75.1151313
  59.7496993  32.1642753  75.8631313  58.5036993  31.8682753  75.3731313
  59.2546993  32.0642753  75.2641313  58.6276993  26.7352753  88.7681313
  58.2316993  27.5092753  88.8431313  58.2216993  26.3622753  88.0921313
  58.5096993  26.7942753  88.6791313  56.6376993  31.1542753  75.7161313
  56.3936993  30.8472753  76.4961313  56.6046993  30.4512753  75.2001313
  56.5966993  31.0052753  75.7551313  59.4566993  29.3992753  74.4591313
  58.6386993  29.1312753  74.5991313  59.4286993  30.2512753  74.6441313
  59.3316993  29.4862753  74.5071313  59.0566993  19.7122753  86.2181313
  58.1926993  19.7962753  86.2981313  59.2766993  19.1982753  86.8871313
  58.9616993  19.6492753  86.3291313  63.1596993  20.4602753  84.5921313
  62.4226993  20.0062753  84.7051313  63.7306993  20.0582753  85.1151313
  63.1346993  20.3332753  84.6861313  65.8916993  31.3082753  86.3801313
  66.0976993  31.6092753  87.1721313  65.8306993  32.0302753  85.8951313
  65.9126993  31.4592753  86.4251313  61.4586993  18.0412753  74.4231313
  61.5366993  18.2882753  73.5901313  60.7156993  18.4182753  74.6811313
  61.3606993  18.1332753  74.3381313  56.2766993  19.7952753  86.8661313
  55.9336993  19.0282753  86.6321313  55.5816993  20.3192753  86.9301313
  56.1236993  19.7592753  86.8411313  65.3226993  18.6512753  83.8431313
  65.9926993  19.1952753  83.9701313  64.8196993  19.0752753  83.2701313
  65.3476993  18.7942753  83.7771313  64.6816993  24.4592753  81.3361313
  65.2326993  23.8522753  81.6361313  64.2566993  24.7222753  82.0511313
  64.7006993  24.4082753  81.4851313  54.9296993  23.1092753  80.8221313
  54.5616993  23.4112753  81.5531313  55.4636993  22.4802753  81.1061313
  54.9536993  23.0612753  80.9721313  54.6176993  31.5172753  88.3331313
  54.0436993  31.9332753  88.8421313  55.3506993  31.9822753  88.4281313
  54.6416993  31.6472753  88.4221313  56.4036993  34.7842753  77.1081313
  56.2586993  34.9402753  76.2621313  57.2696993  34.8632753  77.1861313
  56.5106993  34.8192753  76.9951313  60.5706993  27.1812753  76.8361313
  60.6706993  27.3202753  75.9811313  61.3886993  27.1212753  77.1321313
  60.7056993  27.1922753  76.7531313  65.8056993  31.5102753  76.6381313
  65.5546993  31.3822753  77.4641313  65.4886993  30.8152753  76.2171313
  65.7216993  31.3892753  76.6981313  57.0906993  33.5992753  83.5851313
  57.0116993  32.7892753  83.2691313  56.6466993  34.0862753  83.0131313
  57.0136993  33.5512753  83.4541313  62.6916993  29.7182753  76.0681313
  63.4086993  29.3712753  75.7121313  62.6576993  30.5182753  75.7201313
  62.7926993  29.7852753  75.9641313  54.6626993  35.8432753  87.1661313
  55.1556993  35.7872753  87.8841313  54.8506993  35.1102753  86.7311313
  54.7636993  35.7262753  87.2081313  64.1006993  18.3592753  60.3068903
  63.8556993  18.8472753  59.6268903  64.9636993  18.2862753  60.2068903
  64.1916993  18.4202753  60.1918903  63.9096993  25.2752753  64.9778903
  63.3856993  25.8712753  65.3408903  64.3066993  24.9072753  65.6618903
  63.8906993  25.3092753  65.1328903  53.7786993  29.4152753  60.4338903
  53.3376993  29.5332753  61.1768903  53.4956993  28.6402753  60.1488903
  53.6716993  29.3182753  60.5018903  53.5216993  23.2072753  56.9408903
  52.7436993  23.3692753  56.5808903  53.5606993  22.3362753  56.9628903
  53.4126993  23.1022753  56.8908903  56.6606993  28.4702753  55.6128903
  56.2686993  28.0992753  54.9268903  56.5806993  27.8722753  56.2418903
  56.5906993  28.3272753  55.6038903  56.2876993  30.1112753  59.5128903
  56.8956993  29.9412753  60.1158903  55.5366993  29.9712753  59.9338903
  56.2666993  30.0652753  59.6638903  60.5696993  19.4462753  59.4618903
  60.4996993  20.1232753  58.9158903  61.3106993  19.0582753  59.2128903
  60.6686993  19.4892753  59.3438903  55.1786993  33.2022753  55.5898903
  55.6456993  33.2862753  54.8578903  55.6336993  32.6242753  56.0588903
  55.3146993  33.1292753  55.5508903  53.7186993  32.1502753  66.6888903
  53.8476993  31.8702753  67.5048903  53.1086993  31.6092753  66.3798903
  53.6476993  32.0292753  66.7638903  60.2926993  29.6752753  71.7558903
  60.0566993  29.6722753  72.5958903  59.5446993  29.5272753  71.3318903
  60.1466993  29.6522753  71.8168903  55.1646993  26.6712753  60.8908903
  54.7026993  26.2792753  60.2638903  55.8646993  26.1582753  60.9828903
  55.1996993  26.5382753  60.8118903  59.6726993  22.2812753  66.2378903
  60.3506993  22.2992753  65.6888903  59.6276993  21.4452753  66.4828903
  59.7656993  22.1602753  66.1928903  60.2746993  32.8672753  69.0188903
  60.4126993  33.6272753  68.6118903  61.0656993  32.5022753  69.0458903
  60.4116993  32.9262753  68.9628903  57.1656993  24.7712753  60.9138903
  57.9826993  24.5842753  61.1568903  56.6886993  24.1572753  61.3098903
  57.2156993  24.6532753  61.0088903  61.3696993  30.7522753  63.5238903
  61.7176993  29.9532753  63.5538903  62.0346993  31.2562753  63.2688903
  61.5196993  30.7082753  63.4908903  61.4266993  30.2012753  59.7348903
  61.7576993  29.5572753  60.2208903  61.6666993  29.9902753  58.9238903
  61.5106993  30.0752753  59.6868903  63.3946993  24.3322753  71.0738903
  62.5466993  24.2332753  70.8958903  63.4236993  25.0772753  71.5278903
  63.2736993  24.4282753  71.1148903  57.7626993  19.8652753  60.1798903
  57.4666993  20.3662753  59.5298903  58.6296993  19.9432753  60.1228903
  57.8466993  19.9512753  60.0758903  60.7416993  19.0072753  62.4028903
  60.8146993  19.8672753  62.5318903  60.7036993  18.9322753  61.5348903
  60.7466993  19.1232753  62.2938903  65.4146993  21.9332753  54.7018903
  64.9646993  22.6142753  55.0088903  65.5286993  21.4292753  55.4048903
  65.3656993  21.9592753  54.8508903  53.6206993  24.4322753  63.9038903
  53.3646993  25.2632753  63.8288903  52.9566993  24.0492753  64.3208903
  53.4846993  24.4982753  63.9548903  53.5306993  34.1422753  61.8038903
  52.9386993  34.7002753  61.4908903  53.9566993  33.8732753  61.0918903
  53.5066993  34.1842753  61.6528903  59.3706993  31.9862753  59.2838903
  58.7916993  31.7112753  59.8758903  59.9946993  31.3772753  59.3088903
  59.3776993  31.8562753  59.3748903  63.6816993  34.6662753  58.7958903
  63.8956993  35.1932753  59.4578903  64.4486993  34.4922753  58.4168903
  63.8266993  34.7182753  58.8378903  56.6496993  19.2492753  64.3948903
  56.1286993  18.6212753  64.0868903  57.2406993  18.8122753  64.8658903
  56.6606993  19.0912753  64.4188903  59.9556993  21.3822753  73.6928903
  60.0726993  20.9282753  72.9568903  60.2436993  22.1802753  73.4898903
  60.0156993  21.4332753  73.5538903  55.0756993  32.8122753  59.7348903
  55.7316993  32.2372753  59.7498903  55.4646993  33.5612753  59.5138903
  55.2306993  32.8372753  59.7048903  55.6886993  20.9792753  72.6768903
  54.9106993  20.5892753  72.6048903  56.1796993  20.5672753  72.0858903
  55.6456993  20.8602753  72.5788903  55.8936993  31.2992753  63.2348903
  56.3166993  30.9432753  62.5608903  56.2176993  30.8772753  63.9268903
  56.0036993  31.1842753  63.2378903  59.1246993  34.1512753  62.5308903
  59.9686993  34.2552753  62.3358903  58.8276993  34.9692753  62.5988903
  59.2056993  34.2872753  62.5118903  62.3376993  18.6222753  71.8448903
  62.5156993  17.8132753  71.5698903  62.1946993  19.0632753  71.1058903
  62.3426993  18.5682753  71.6948903  62.9316993  23.5482753  60.6178903
  63.2186993  23.3162753  59.8278903  63.6636993  23.6272753  61.0868903
  63.0816993  23.5252753  60.5708903  63.6536993  23.8872753  55.7388903
  63.9346993  24.6752753  55.9878903  62.8776993  24.0522753  55.3758903
  63.5806993  24.0282753  55.7218903  58.1226993  35.3702753  68.2708903
  58.4146993  35.3032753  69.0908903  57.4966993  34.7652753  68.2258903
  58.0736993  35.2712753  68.3858903  53.0366993  21.5272753  70.2628903
  53.0326993  22.1142753  70.9088903  53.6306993  21.8392753  69.7058903
  53.1236993  21.6602753  70.2758903  62.5126993  32.0582753  55.5548903
  62.3316993  32.6032753  56.2118903  63.2786993  32.3482753  55.2538903
  62.5986993  32.1822753  55.6078903  53.9736993  21.1222753  59.1778903
  53.8596993  20.2582753  59.2088903  53.4986993  21.4162753  59.8478903
  53.8866993  21.0382753  59.2808903  56.1156993  33.5322753  67.3928903
  55.4176993  33.0242753  67.5188903  56.3756993  33.3272753  66.5848903
  56.0506993  33.4272753  67.2918903  63.2776993  22.3302753  57.9228903
  62.7696993  21.6682753  57.6688903  63.3296993  22.8342753  57.2128903
  63.2106993  22.3072753  57.7808903  63.8266993  35.0252753  68.3028903
  64.5946993  34.9452753  67.8968903  63.2436993  34.9042753  67.6648903
  63.8536993  34.9952753  68.1488903  63.2776993  19.2712753  57.8138903
  62.8226993  18.8692753  57.1878903  64.0506993  19.4262753  57.4388903
  63.3246993  19.2352753  57.6658903  61.8756993  21.6382753  62.3358903
  61.9496993  22.2062753  61.6778903  61.9966993  22.1302753  63.0458903
  61.9036993  21.7952753  62.3438903  57.4766993  32.3832753  69.9598903
  58.3176993  32.4462753  69.7378903  57.4396993  32.7802753  70.7358903
  57.5956993  32.4512753  70.0418903  56.4836993  17.4612753  60.6838903
  57.0196993  18.1492753  60.6738903  56.4866993  17.1872753  59.8558903
  56.5626993  17.5222753  60.5598903  59.4396993  27.8942753  64.7088903
  59.6116993  27.6842753  65.5378903  58.7846993  27.3602753  64.4928903
  59.3686993  27.7842753  64.7998903  65.6676993  21.8082753  68.2238903
  65.5726993  22.1272753  69.0298903  65.0746993  21.1692753  68.1858903
  65.5656993  21.7602753  68.3378903  60.1896993  27.8322753  67.2988903
  60.2426993  28.6792753  67.5008903  59.9046993  27.4622753  68.0358903
  60.1556993  27.9022753  67.4368903  53.0106993  32.2032753  73.5098903
  53.7666993  32.5522753  73.7678903  53.1876993  31.3502753  73.4528903
  53.1486993  32.1282753  73.5398903  56.9316993  21.2712753  62.3378903
  57.2036993  20.8412753  61.6298903  56.7556993  20.6352753  62.9088903
  56.9456993  21.1142753  62.3178903  56.7556993  28.6982753  61.8868903
  57.6066993  28.6182753  61.7138903  56.3986993  28.0162753  61.4748903
  56.8286993  28.5852753  61.7998903  55.5226993  35.4232753  63.1238903
  54.8496993  34.9252753  62.8788903  55.9256993  35.6082753  62.3728903
  55.4826993  35.3772753  62.9768903  55.0726993  22.3732753  65.4198903
  55.9156993  22.5932753  65.3768903  54.6836993  22.9462753  64.8888903
  55.1396993  22.4902753  65.3348903  59.1236993  28.7052753  60.1218903
  59.8366993  29.2002753  60.2118903  59.3456993  28.1382753  59.4958903
  59.2616993  28.6942753  60.0428903  53.2796993  30.3482753  63.4418903
  52.6126993  30.8362753  63.7178903  53.9596993  30.8932753  63.4708903
  53.2816993  30.5002753  63.4868903  60.9266993  24.0582753  73.5378903
  60.4426993  24.6352753  73.9798903  60.8986993  24.3532753  72.7168903
  60.8506993  24.1872753  73.4818903  53.3456993  27.0322753  58.5448903
  53.1606993  26.1932753  58.6968903  54.0046993  26.9962753  57.9748903
  53.4156993  26.9032753  58.4828903  63.6466993  32.4082753  62.4488903
  63.1236993  33.0422753  62.1558903  63.9566993  32.0442753  61.7198903
  63.6146993  32.4482753  62.2978903  53.5176993  31.1962753  58.1198903
  54.0696993  31.7652753  58.4838903  53.2856993  30.6812753  58.7848903
  53.5646993  31.2042753  58.2718903  57.7216993  30.1962753  65.2088903
  58.1886993  30.4852753  65.8868903  58.2936993  29.7182753  64.7548903
  57.8756993  30.1682753  65.2418903  53.3476993  29.6452753  55.7478903
  54.1036993  29.2132753  55.8058903  53.3626993  30.1772753  56.4388903
  53.4616993  29.6602753  55.8588903  54.2876993  27.8662753  63.7528903
  54.7186993  27.7372753  63.0058903  54.0826993  28.7142753  63.7268903
  54.3206993  27.9722753  63.6388903  60.6336993  21.4302753  57.4028903
  60.6316993  21.3132753  56.5378903  60.4526993  22.2782753  57.4948903
  60.6066993  21.5382753  57.2888903  58.3716993  31.3822753  62.0348903
  58.4976993  32.2252753  62.2218903  59.0396993  30.9832753  62.4308903
  58.4896993  31.4482753  62.1208903  56.5016993  24.8652753  71.8968903
  55.9656993  24.3592753  72.3648903  56.5216993  24.4752753  71.1168903
  56.4246993  24.7322753  71.8508903  56.9866993  24.2622753  57.0368903
  56.8586993  23.8142753  57.7748903  56.4046993  23.9202753  56.4848903
  56.8816993  24.1452753  57.0648903  57.1536993  26.0922753  63.6358903
  56.3726993  26.0332753  63.2528903  57.2256993  25.3402753  64.0728903
  57.0486993  25.9732753  63.6438903  57.5836993  25.8292753  67.1038903
  57.6086993  25.1542753  66.5528903  56.9376993  26.3252753  66.7918903
  57.4926993  25.8022753  66.9768903  61.6836993  34.6062753  66.4958903
  61.4066993  33.9652753  65.9728903  61.4756993  35.3322753  66.0578903
  61.6126993  34.6192753  66.3538903  64.1236993  19.4482753  68.9288903
  64.2726993  18.6232753  68.6858903  64.5026993  19.5032753  69.7128903
  64.2016993  19.3342753  69.0088903  55.3826993  27.1842753  72.6628903
  55.3456993  27.6852753  71.9488903  55.7136993  26.4322753  72.3678903
  55.4256993  27.1462753  72.5138903  61.2816993  32.2342753  72.0978903
  61.6356993  32.0562753  72.8748903  60.8456993  31.5052753  71.8988903
  61.2696993  32.1002753  72.1838903  62.2536993  22.9812753  64.7358903
  62.7336993  23.6802753  64.9438903  62.6266993  22.3342753  65.1868903
  62.3796993  22.9892753  64.8328903  64.4426993  26.1502753  57.0098903
  64.4346993  26.8722753  56.5198903  63.8036993  26.2852753  57.5868903
  64.3476993  26.2772753  57.0228903  65.4596993  33.0862753  64.8348903
  64.8566993  32.7902753  64.2778903  66.0046993  33.5382753  64.3258903
  65.4506993  33.1092753  64.6768903  65.4726993  29.9372753  64.2348903
  64.6756993  30.1612753  64.5088903  65.7306993  29.3432753  64.8198903
  65.3926993  29.8822753  64.3618903  59.3646993  34.7492753  58.6828903
  59.2176993  33.9732753  59.0538903  60.0536993  34.6022753  58.1678903
  59.4446993  34.6122753  58.6618903  59.0356993  18.4922753  56.6708903
  59.1326993  18.3852753  57.5318903  58.3276993  18.9982753  56.6058903
  58.9456993  18.5512753  56.7888903  61.6566993  34.2652753  57.0848903
  62.2786993  34.4282753  57.6748903  61.6926993  34.9562753  56.5528903
  61.7536993  34.3912753  57.0938903  64.9236993  33.2842753  73.3578903
  65.0876993  33.5672753  74.1668903  65.1866993  33.9452753  72.8528903
  64.9866993  33.4242753  73.4028903  56.1576993  26.7992753  57.9138903
  56.4816993  26.0202753  57.6918903  56.8036993  27.1672753  58.3688903
  56.3006993  26.7382753  57.9478903  64.4636993  27.7412753  68.6808903
  64.3086993  28.3512753  69.2848903  64.9976993  27.1832753  69.0868903
  64.5196993  27.7492753  68.8298903  53.1546993  18.4602753  58.8818903
  53.2836993  17.7522753  58.3898903  52.7876993  18.1422753  59.6068903
  53.1196993  18.3082753  58.9168903  62.8476993  26.1412753  59.3388903
  62.9066993  26.7912753  59.9178903  62.6586993  25.4452753  59.8298903
  62.8286993  26.1342753  59.4968903  57.3436993  20.6582753  55.8508903
  56.8326993  20.7112753  55.1448903  58.1276993  20.8982753  55.5548903
  57.3836993  20.7012753  55.7028903  62.0706993  28.1882753  63.7698903
  61.2236993  27.9942753  63.8508903  62.3946993  28.0232753  64.5628903
  61.9926993  28.1352753  63.8988903  58.8226993  34.9182753  54.6558903
  59.2616993  34.2212753  54.9438903  59.0296993  35.5422753  55.2288903
  58.9186993  34.9072753  54.7828903  55.9186993  27.8812753  66.0858903
  56.6406993  28.3692753  66.0488903  55.6486993  27.8512753  65.2568903
  55.9856993  27.9492753  65.9578903  59.1486993  23.0522753  62.8208903
  59.9946993  22.8622753  62.9188903  58.7786993  22.2752753  62.6828903
  59.2186993  22.9092753  62.8148903  53.9696993  24.3902753  59.4758903
  54.4586993  24.0982753  60.1368903  54.0986993  23.7972753  58.8488903
  54.0606993  24.2592753  59.4808903  58.4946993  25.8242753  54.9618903
  57.8846993  25.4192753  55.4358903  58.1086993  25.9422753  54.1888903
  58.3476993  25.7812753  54.9178903  55.3136993  28.9332753  70.3638903
  54.8926993  28.4152753  69.8028903  54.9616993  29.7192753  70.2208903
  55.1996993  28.9732753  70.2598903  59.9496993  24.2852753  57.6718903
  60.2216993  25.1112753  57.7388903  59.0866993  24.3602753  57.5758903
  59.8626993  24.4182753  57.6668903  53.4296993  20.2552753  64.2078903
  53.4736993  20.5992753  63.4068903  54.1846993  20.4922753  64.5748903
  53.5476993  20.3412753  64.1438903  65.3706993  29.5942753  55.6778903
  66.0546993  29.0802753  55.5088903  64.9536993  29.6402753  54.9128903
  65.4096993  29.5252753  55.5398903  60.0526993  30.7442753  66.9818903
  59.7546993  31.3362753  67.5488903  60.1076993  31.1862753  66.2328903
  60.0166993  30.8972753  66.9548903  58.0316993  29.6942753  70.3798903
  57.2256993  29.4042753  70.5468903  57.9426993  30.5622753  70.3858903
  57.8996993  29.7792753  70.4048903  62.5686993  27.1672753  66.4728903
  63.0446993  27.5412753  67.1008903  61.7456993  27.3012753  66.7318903
  62.5176993  27.2422753  66.6038903  59.2786993  22.7702753  69.2138903
  59.4396993  22.0262753  69.6408903  59.2336993  22.5212753  68.3788903
  59.2956993  22.6232753  69.1538903  61.8326993  34.5602753  61.7008903
  62.3786993  35.2392753  61.7548903  61.4826993  34.6422753  60.9058903
  61.8616993  34.6732753  61.5908903  61.0306993  18.5782753  69.0938903
  61.7356993  18.8982753  68.6918903  61.2716993  17.7712753  69.3208903
  61.1696993  18.5062753  69.0678903  60.0156993  32.7882753  65.0898903
  59.3916993  33.3702753  64.9078903  60.2636993  32.5022753  64.3038903
  59.9596993  32.8322753  64.9468903  64.3246993  29.4222753  72.0788903
  65.0816993  29.7082753  71.7528903  63.7776993  29.4742753  71.4008903
  64.3556993  29.4722753  71.9298903  61.6096993  27.5642753  55.0048903
  60.8046993  27.3872753  54.7198903  61.5766993  28.4152753  55.1968903
  61.4856993  27.6632753  54.9918903  57.5396993  23.6312753  65.1548903
  57.9796993  23.5282753  64.4088903  58.0846993  23.3182753  65.7598903
  57.6846993  23.5702753  65.1338903  65.5556993  22.7332753  70.7468903
  64.9076993  23.2032753  71.0948903  66.1206993  22.6442753  71.4058903
  65.5436993  22.7892753  70.8958903  65.2436993  24.2702753  67.0448903
  65.5456993  24.6902753  67.7478903  65.2796993  23.4302753  67.2768903
  65.2936993  24.2082753  67.1828903  62.6686993  34.4372753  70.9698903
  63.1466993  33.8372753  70.5538903  62.3176993  33.9942753  71.6348903
  62.6876993  34.2832753  71.0068903  61.0866993  18.6162753  65.2018903
  60.2606993  18.4672753  65.4388903  61.0466993  18.6512753  64.3308903
  60.9586993  18.5992753  65.1078903  62.7276993  29.6562753  69.9898903
  61.9326993  29.5922753  70.3408903  62.7986993  30.5032753  69.7948903
  62.6206993  29.7712753  70.0128903  53.6516993  19.0142753  71.2368903
  53.5116993  19.8092753  70.9058903  52.8656993  18.7712753  71.5258903
  53.5146993  19.0962753  71.2308903  58.5576993  35.8632753  65.3068903
  58.5686993  35.9222753  66.1768903  58.1326993  35.1162753  65.1568903
  58.4966993  35.7612753  65.4128903  56.7156993  21.7582753  58.4618903
  56.8416993  21.4292753  57.6638903  55.9036993  21.5092753  58.6608903
  56.6146993  21.6732753  58.3738903  65.4726993  28.9112753  61.5058903
  65.5486993  29.2522753  62.3048903  65.6416993  28.0642753  61.6268903
  65.5086993  28.8362753  61.6418903  62.9946993  28.1852753  61.0708903
  62.6966993  27.8702753  61.8278903  63.6896993  28.6582753  61.3058903
  63.0536993  28.2082753  61.2178903  63.2166993  32.3032753  69.0978903
  63.9036993  32.1892753  69.6228903  63.3506993  33.0942753  68.7538903
  63.3376993  32.4032753  69.1248903  55.3216993  35.3612753  70.7488903
  54.6676993  34.7922753  70.8468903  54.9466993  36.1342753  70.8998903
  55.1696993  35.3912753  70.7858903  63.8396993  26.7672753  72.6718903
  64.1626993  27.4532753  72.2398903  63.1356993  27.0902753  73.0738903
  63.7826993  26.9162753  72.6668903  63.6246993  30.2312753  66.5308903
  62.9306993  30.6332753  66.8738903  64.3016993  30.6642753  66.8698903
  63.6216993  30.3542753  66.6318903  56.6926993  23.7692753  68.8778903
  57.0676993  24.3882753  68.3908903  57.3666993  23.2952753  69.1628903
  56.8476993  23.7912753  68.8478903  54.4676993  22.2172753  68.1528903
  54.5446993  22.0482753  67.2998903  55.2136993  22.6232753  68.3498903
  54.5886993  22.2522753  68.0558903  57.0216993  19.6272753  70.5638903
  56.9406993  18.7832753  70.7698903  56.7076993  19.6712753  69.7508903
  56.9636993  19.5092753  70.4738903  63.9466993  31.8222753  59.6998903
  63.7416993  32.6552753  59.5408903  63.1716993  31.4402753  59.8218903
  63.8016993  31.8892753  59.6948903  53.8646993  27.4432753  68.3768903
  54.1846993  27.6622753  67.5958903  53.7646993  26.5782753  68.3218903
  53.8966993  27.3482753  68.2538903  55.3206993  23.3792753  54.9948903
  54.6486993  23.3932753  55.5508903  55.4156993  22.5312753  54.8108903
  55.2356993  23.2562753  55.0498903  65.0076993  19.8032753  71.7308903
  65.0996993  20.5152753  72.2248903  64.3706993  19.3582753  72.1278903
  64.9266993  19.8422753  71.8628903  64.0016993  19.9932753  62.5848903
  63.3016993  20.5112753  62.5288903  64.0396993  19.6132753  61.8008903
  63.9036993  20.0142753  62.4608903  59.3086993  32.0842753  56.1088903
  59.7496993  32.1642753  56.8568903  58.5036993  31.8682753  56.3668903
  59.2546993  32.0642753  56.2578903  58.6276993  26.7352753  69.7618903
  58.2316993  27.5092753  69.8368903  58.2216993  26.3622753  69.0858903
  58.5096993  26.7942753  69.6728903  56.6376993  31.1542753  56.7098903
  56.3936993  30.8472753  57.4898903  56.6046993  30.4512753  56.1938903
  56.5966993  31.0052753  56.7488903  59.4566993  29.3992753  55.4528903
  58.6386993  29.1312753  55.5928903  59.4286993  30.2512753  55.6378903
  59.3316993  29.4862753  55.5008903  59.0566993  19.7122753  67.2118903
  58.1926993  19.7962753  67.2918903  59.2766993  19.1982753  67.8808903
  58.9616993  19.6492753  67.3228903  63.1596993  20.4602753  65.5858903
  62.4226993  20.0062753  65.6988903  63.7306993  20.0582753  66.1088903
  63.1346993  20.3332753  65.6798903  65.8916993  31.3082753  67.3738903
  66.0976993  31.6092753  68.1658903  65.8306993  32.0302753  66.8888903
  65.9126993  31.4592753  67.4188903  65.4256993  35.5222753  71.6198903
  64.6726993  35.5042753  71.1788903  65.5936993  36.3742753  71.7038903
  65.3396993  35.6452753  71.5668903  60.6626993  24.7892753  70.7898903
  60.3406993  24.2132753  70.2198903  60.3036993  25.5442753  70.5438903
  60.5626993  24.8152753  70.6698903  61.4586993  18.0412753  55.4168903
  61.5366993  18.2882753  54.5838903  60.7156993  18.4182753  55.6748903
  61.3606993  18.1332753  55.3318903  59.0976993  35.1452753  71.0378903
  59.1386993  35.2712753  71.9008903  59.7486993  34.5852753  70.8818903
  59.1996993  35.0812753  71.1428903  56.2766993  19.7952753  67.8598903
  55.9336993  19.0282753  67.6258903  55.5816993  20.3192753  67.9238903
  56.1236993  19.7592753  67.8348903  65.3226993  18.6512753  64.8368903
  65.9926993  19.1952753  64.9638903  64.8196993  19.0752753  64.2638903
  65.3476993  18.7942753  64.7708903  56.6906993  33.5282753  72.3978903
  57.2856993  33.9592753  72.8698903  56.3266993  34.1522753  71.9088903
  56.7246993  33.6842753  72.3948903  64.6816993  24.4592753  62.3298903
  65.2326993  23.8522753  62.6298903  64.2566993  24.7222753  63.0448903
  64.7006993  24.4082753  62.4788903  54.9296993  23.1092753  61.8158903
  54.5616993  23.4112753  62.5468903  55.4636993  22.4802753  62.0998903
  54.9536993  23.0612753  61.9658903  54.6176993  31.5172753  69.3268903
  54.0436993  31.9332753  69.8358903  55.3506993  31.9822753  69.4218903
  54.6416993  31.6472753  69.4158903  56.4036993  34.7842753  58.1018903
  56.2586993  34.9402753  57.2558903  57.2696993  34.8632753  58.1798903
  56.5106993  34.8192753  57.9888903  60.5706993  27.1812753  57.8298903
  60.6706993  27.3202753  56.9748903  61.3886993  27.1212753  58.1258903
  60.7056993  27.1922753  57.7468903  65.8056993  31.5102753  57.6318903
  65.5546993  31.3822753  58.4578903  65.4886993  30.8152753  57.2108903
  65.7216993  31.3892753  57.6918903  59.7096993  20.1562753  70.9458903
  59.9436993  19.5802753  70.3328903  58.8676993  19.9752753  71.0868903
  59.6196993  20.0442753  70.8758903  57.0906993  33.5992753  64.5788903
  57.0116993  32.7892753  64.2628903  56.6466993  34.0862753  64.0068903
  57.0136993  33.5512753  64.4478903  62.6916993  29.7182753  57.0618903
  63.4086993  29.3712753  56.7058903  62.6576993  30.5182753  56.7138903
  62.7926993  29.7852753  56.9578903  54.6626993  35.8432753  68.1598903
  55.1556993  35.7872753  68.8778903  54.8506993  35.1102753  67.7248903
  54.7636993  35.7262753  68.2018903  64.1006993  18.3592753  41.3006493
  63.8556993  18.8472753  40.6206493  64.9636993  18.2862753  41.2006493
  64.1916993  18.4202753  41.1856493  63.9096993  25.2752753  45.9716493
  63.3856993  25.8712753  46.3346493  64.3066993  24.9072753  46.6556493
  63.8906993  25.3092753  46.1266493  53.7786993  29.4152753  41.4276493
  53.3376993  29.5332753  42.1706493  53.4956993  28.6402753  41.1426493
  53.6716993  29.3182753  41.4956493  53.5216993  23.2072753  37.9346493
  52.7436993  23.3692753  37.5746493  53.5606993  22.3362753  37.9566493
  53.4126993  23.1022753  37.8846493  56.6606993  28.4702753  36.6066493
  56.2686993  28.0992753  35.9206493  56.5806993  27.8722753  37.2356493
  56.5906993  28.3272753  36.5976493  56.2876993  30.1112753  40.5066493
  56.8956993  29.9412753  41.1096493  55.5366993  29.9712753  40.9276493
  56.2666993  30.0652753  40.6576493  60.5696993  19.4462753  40.4556493
  60.4996993  20.1232753  39.9096493  61.3106993  19.0582753  40.2066493
  60.6686993  19.4892753  40.3376493  55.1786993  33.2022753  36.5836493
  55.6456993  33.2862753  35.8516493  55.6336993  32.6242753  37.0526493
  55.3146993  33.1292753  36.5446493  53.7186993  32.1502753  47.6826493
  53.8476993  31.8702753  48.4986493  53.1086993  31.6092753  47.3736493
  53.6476993  32.0292753  47.7576493  60.2926993  29.6752753  52.7496493
  60.0566993  29.6722753  53.5896493  59.5446993  29.5272753  52.3256493
  60.1466993  29.6522753  52.8106493  55.1646993  26.6712753  41.8846493
  54.7026993  26.2792753  41.2576493  55.8646993  26.1582753  41.9766493
  55.1996993  26.5382753  41.8056493  59.6726993  22.2812753  47.2316493
  60.3506993  22.2992753  46.6826493  59.6276993  21.4452753  47.4766493
  59.7656993  22.1602753  47.1866493  60.2746993  32.8672753  50.0126493
  60.4126993  33.6272753  49.6056493  61.0656993  32.5022753  50.0396493
  60.4116993  32.9262753  49.9566493  57.1656993  24.7712753  41.9076493
  57.9826993  24.5842753  42.1506493  56.6886993  24.1572753  42.3036493
  57.2156993  24.6532753  42.0026493  61.3696993  30.7522753  44.5176493
  61.7176993  29.9532753  44.5476493  62.0346993  31.2562753  44.2626493
  61.5196993  30.7082753  44.4846493  61.4266993  30.2012753  40.7286493
  61.7576993  29.5572753  41.2146493  61.6666993  29.9902753  39.9176493
  61.5106993  30.0752753  40.6806493  63.3946993  24.3322753  52.0676493
  62.5466993  24.2332753  51.8896493  63.4236993  25.0772753  52.5216493
  63.2736993  24.4282753  52.1086493  57.7626993  19.8652753  41.1736493
  57.4666993  20.3662753  40.5236493  58.6296993  19.9432753  41.1166493
  57.8466993  19.9512753  41.0696493  60.7416993  19.0072753  43.3966493
  60.8146993  19.8672753  43.5256493  60.7036993  18.9322753  42.5286493
  60.7466993  19.1232753  43.2876493  65.4146993  21.9332753  35.6956493
  64.9646993  22.6142753  36.0026493  65.5286993  21.4292753  36.3986493
  65.3656993  21.9592753  35.8446493  53.6206993  24.4322753  44.8976493
  53.3646993  25.2632753  44.8226493  52.9566993  24.0492753  45.3146493
  53.4846993  24.4982753  44.9486493  53.5306993  34.1422753  42.7976493
  52.9386993  34.7002753  42.4846493  53.9566993  33.8732753  42.0856493
  53.5066993  34.1842753  42.6466493  59.3706993  31.9862753  40.2776493
  58.7916993  31.7112753  40.8696493  59.9946993  31.3772753  40.3026493
  59.3776993  31.8562753  40.3686493  63.6816993  34.6662753  39.7896493
  63.8956993  35.1932753  40.4516493  64.4486993  34.4922753  39.4106493
  63.8266993  34.7182753  39.8316493  56.6496993  19.2492753  45.3886493
  56.1286993  18.6212753  45.0806493  57.2406993  18.8122753  45.8596493
  56.6606993  19.0912753  45.4126493  59.9556993  21.3822753  54.6866493
  60.0726993  20.9282753  53.9506493  60.2436993  22.1802753  54.4836493
  60.0156993  21.4332753  54.5476493  55.0756993  32.8122753  40.7286493
  55.7316993  32.2372753  40.7436493  55.4646993  33.5612753  40.5076493
  55.2306993  32.8372753  40.6986493  55.6886993  20.9792753  53.6706493
  54.9106993  20.5892753  53.5986493  56.1796993  20.5672753  53.0796493
  55.6456993  20.8602753  53.5726493  55.8936993  31.2992753  44.2286493
  56.3166993  30.9432753  43.5546493  56.2176993  30.8772753  44.9206493
  56.0036993  31.1842753  44.2316493  59.1246993  34.1512753  43.5246493
  59.9686993  34.2552753  43.3296493  58.8276993  34.9692753  43.5926493
  59.2056993  34.2872753  43.5056493  62.3376993  18.6222753  52.8386493
  62.5156993  17.8132753  52.5636493  62.1946993  19.0632753  52.0996493
  62.3426993  18.5682753  52.6886493  62.9316993  23.5482753  41.6116493
  63.2186993  23.3162753  40.8216493  63.6636993  23.6272753  42.0806493
  63.0816993  23.5252753  41.5646493  63.6536993  23.8872753  36.7326493
  63.9346993  24.6752753  36.9816493  62.8776993  24.0522753  36.3696493
  63.5806993  24.0282753  36.7156493  58.1226993  35.3702753  49.2646493
  58.4146993  35.3032753  50.0846493  57.4966993  34.7652753  49.2196493
  58.0736993  35.2712753  49.3796493  53.0366993  21.5272753  51.2566493
  53.0326993  22.1142753  51.9026493  53.6306993  21.8392753  50.6996493
  53.1236993  21.6602753  51.2696493  62.5126993  32.0582753  36.5486493
  62.3316993  32.6032753  37.2056493  63.2786993  32.3482753  36.2476493
  62.5986993  32.1822753  36.6016493  53.9736993  21.1222753  40.1716493
  53.8596993  20.2582753  40.2026493  53.4986993  21.4162753  40.8416493
  53.8866993  21.0382753  40.2746493  56.1156993  33.5322753  48.3866493
  55.4176993  33.0242753  48.5126493  56.3756993  33.3272753  47.5786493
  56.0506993  33.4272753  48.2856493  63.2776993  22.3302753  38.9166493
  62.7696993  21.6682753  38.6626493  63.3296993  22.8342753  38.2066493
  63.2106993  22.3072753  38.7746493  63.8266993  35.0252753  49.2966493
  64.5946993  34.9452753  48.8906493  63.2436993  34.9042753  48.6586493
  63.8536993  34.9952753  49.1426493  63.2776993  19.2712753  38.8076493
  62.8226993  18.8692753  38.1816493  64.0506993  19.4262753  38.4326493
  63.3246993  19.2352753  38.6596493  61.8756993  21.6382753  43.3296493
  61.9496993  22.2062753  42.6716493  61.9966993  22.1302753  44.0396493
  61.9036993  21.7952753  43.3376493  57.4766993  32.3832753  50.9536493
  58.3176993  32.4462753  50.7316493  57.4396993  32.7802753  51.7296493
  57.5956993  32.4512753  51.0356493  56.4836993  17.4612753  41.6776493
  57.0196993  18.1492753  41.6676493  56.4866993  17.1872753  40.8496493
  56.5626993  17.5222753  41.5536493  59.4396993  27.8942753  45.7026493
  59.6116993  27.6842753  46.5316493  58.7846993  27.3602753  45.4866493
  59.3686993  27.7842753  45.7936493  65.6676993  21.8082753  49.2176493
  65.5726993  22.1272753  50.0236493  65.0746993  21.1692753  49.1796493
  65.5656993  21.7602753  49.3316493  60.1896993  27.8322753  48.2926493
  60.2426993  28.6792753  48.4946493  59.9046993  27.4622753  49.0296493
  60.1556993  27.9022753  48.4306493  53.0106993  32.2032753  54.5036493
  53.7666993  32.5522753  54.7616493  53.1876993  31.3502753  54.4466493
  53.1486993  32.1282753  54.5336493  56.9316993  21.2712753  43.3316493
  57.2036993  20.8412753  42.6236493  56.7556993  20.6352753  43.9026493
  56.9456993  21.1142753  43.3116493  56.7556993  28.6982753  42.8806493
  57.6066993  28.6182753  42.7076493  56.3986993  28.0162753  42.4686493
  56.8286993  28.5852753  42.7936493  55.5226993  35.4232753  44.1176493
  54.8496993  34.9252753  43.8726493  55.9256993  35.6082753  43.3666493
  55.4826993  35.3772753  43.9706493  55.0726993  22.3732753  46.4136493
  55.9156993  22.5932753  46.3706493  54.6836993  22.9462753  45.8826493
  55.1396993  22.4902753  46.3286493  59.1236993  28.7052753  41.1156493
  59.8366993  29.2002753  41.2056493  59.3456993  28.1382753  40.4896493
  59.2616993  28.6942753  41.0366493  53.2796993  30.3482753  44.4356493
  52.6126993  30.8362753  44.7116493  53.9596993  30.8932753  44.4646493
  53.2816993  30.5002753  44.4806493  60.9266993  24.0582753  54.5316493
  60.4426993  24.6352753  54.9736493  60.8986993  24.3532753  53.7106493
  60.8506993  24.1872753  54.4756493  53.3456993  27.0322753  39.5386493
  53.1606993  26.1932753  39.6906493  54.0046993  26.9962753  38.9686493
  53.4156993  26.9032753  39.4766493  63.6466993  32.4082753  43.4426493
  63.1236993  33.0422753  43.1496493  63.9566993  32.0442753  42.7136493
  63.6146993  32.4482753  43.2916493  53.5176993  31.1962753  39.1136493
  54.0696993  31.7652753  39.4776493  53.2856993  30.6812753  39.7786493
  53.5646993  31.2042753  39.2656493  57.7216993  30.1962753  46.2026493
  58.1886993  30.4852753  46.8806493  58.2936993  29.7182753  45.7486493
  57.8756993  30.1682753  46.2356493  53.3476993  29.6452753  36.7416493
  54.1036993  29.2132753  36.7996493  53.3626993  30.1772753  37.4326493
  53.4616993  29.6602753  36.8526493  54.2876993  27.8662753  44.7466493
  54.7186993  27.7372753  43.9996493  54.0826993  28.7142753  44.7206493
  54.3206993  27.9722753  44.6326493  60.6336993  21.4302753  38.3966493
  60.6316993  21.3132753  37.5316493  60.4526993  22.2782753  38.4886493
  60.6066993  21.5382753  38.2826493  58.3716993  31.3822753  43.0286493
  58.4976993  32.2252753  43.2156493  59.0396993  30.9832753  43.4246493
  58.4896993  31.4482753  43.1146493  56.5016993  24.8652753  52.8906493
  55.9656993  24.3592753  53.3586493  56.5216993  24.4752753  52.1106493
  56.4246993  24.7322753  52.8446493  56.9866993  24.2622753  38.0306493
  56.8586993  23.8142753  38.7686493  56.4046993  23.9202753  37.4786493
  56.8816993  24.1452753  38.0586493  57.1536993  26.0922753  44.6296493
  56.3726993  26.0332753  44.2466493  57.2256993  25.3402753  45.0666493
  57.0486993  25.9732753  44.6376493  57.5836993  25.8292753  48.0976493
  57.6086993  25.1542753  47.5466493  56.9376993  26.3252753  47.7856493
  57.4926993  25.8022753  47.9706493  61.6836993  34.6062753  47.4896493
  61.4066993  33.9652753  46.9666493  61.4756993  35.3322753  47.0516493
  61.6126993  34.6192753  47.3476493  64.1236993  19.4482753  49.9226493
  64.2726993  18.6232753  49.6796493  64.5026993  19.5032753  50.7066493
  64.2016993  19.3342753  50.0026493  55.3826993  27.1842753  53.6566493
  55.3456993  27.6852753  52.9426493  55.7136993  26.4322753  53.3616493
  55.4256993  27.1462753  53.5076493  61.2816993  32.2342753  53.0916493
  61.6356993  32.0562753  53.8686493  60.8456993  31.5052753  52.8926493
  61.2696993  32.1002753  53.1776493  62.2536993  22.9812753  45.7296493
  62.7336993  23.6802753  45.9376493  62.6266993  22.3342753  46.1806493
  62.3796993  22.9892753  45.8266493  64.4426993  26.1502753  38.0036493
  64.4346993  26.8722753  37.5136493  63.8036993  26.2852753  38.5806493
  64.3476993  26.2772753  38.0166493  65.4596993  33.0862753  45.8286493
  64.8566993  32.7902753  45.2716493  66.0046993  33.5382753  45.3196493
  65.4506993  33.1092753  45.6706493  65.4726993  29.9372753  45.2286493
  64.6756993  30.1612753  45.5026493  65.7306993  29.3432753  45.8136493
  65.3926993  29.8822753  45.3556493  59.3646993  34.7492753  39.6766493
  59.2176993  33.9732753  40.0476493  60.0536993  34.6022753  39.1616493
  59.4446993  34.6122753  39.6556493  59.0356993  18.4922753  37.6646493
  59.1326993  18.3852753  38.5256493  58.3276993  18.9982753  37.5996493
  58.9456993  18.5512753  37.7826493  61.6566993  34.2652753  38.0786493
  62.2786993  34.4282753  38.6686493  61.6926993  34.9562753  37.5466493
  61.7536993  34.3912753  38.0876493  64.9236993  33.2842753  54.3516493
  65.0876993  33.5672753  55.1606493  65.1866993  33.9452753  53.8466493
  64.9866993  33.4242753  54.3966493  56.1576993  26.7992753  38.9076493
  56.4816993  26.0202753  38.6856493  56.8036993  27.1672753  39.3626493
  56.3006993  26.7382753  38.9416493  64.4636993  27.7412753  49.6746493
  64.3086993  28.3512753  50.2786493  64.9976993  27.1832753  50.0806493
  64.5196993  27.7492753  49.8236493  53.1546993  18.4602753  39.8756493
  53.2836993  17.7522753  39.3836493  52.7876993  18.1422753  40.6006493
  53.1196993  18.3082753  39.9106493  62.8476993  26.1412753  40.3326493
  62.9066993  26.7912753  40.9116493  62.6586993  25.4452753  40.8236493
  62.8286993  26.1342753  40.4906493  57.3436993  20.6582753  36.8446493
  56.8326993  20.7112753  36.1386493  58.1276993  20.8982753  36.5486493
  57.3836993  20.7012753  36.6966493  62.0706993  28.1882753  44.7636493
  61.2236993  27.9942753  44.8446493  62.3946993  28.0232753  45.5566493
  61.9926993  28.1352753  44.8926493  58.8226993  34.9182753  35.6496493
  59.2616993  34.2212753  35.9376493  59.0296993  35.5422753  36.2226493
  58.9186993  34.9072753  35.7766493  55.9186993  27.8812753  47.0796493
  56.6406993  28.3692753  47.0426493  55.6486993  27.8512753  46.2506493
  55.9856993  27.9492753  46.9516493  59.1486993  23.0522753  43.8146493
  59.9946993  22.8622753  43.9126493  58.7786993  22.2752753  43.6766493
  59.2186993  22.9092753  43.8086493  53.9696993  24.3902753  40.4696493
  54.4586993  24.0982753  41.1306493  54.0986993  23.7972753  39.8426493
  54.0606993  24.2592753  40.4746493  58.4946993  25.8242753  35.9556493
  57.8846993  25.4192753  36.4296493  58.1086993  25.9422753  35.1826493
  58.3476993  25.7812753  35.9116493  55.3136993  28.9332753  51.3576493
  54.8926993  28.4152753  50.7966493  54.9616993  29.7192753  51.2146493
  55.1996993  28.9732753  51.2536493  59.9496993  24.2852753  38.6656493
  60.2216993  25.1112753  38.7326493  59.0866993  24.3602753  38.5696493
  59.8626993  24.4182753  38.6606493  53.4296993  20.2552753  45.2016493
  53.4736993  20.5992753  44.4006493  54.1846993  20.4922753  45.5686493
  53.5476993  20.3412753  45.1376493  65.3706993  29.5942753  36.6716493
  66.0546993  29.0802753  36.5026493  64.9536993  29.6402753  35.9066493
  65.4096993  29.5252753  36.5336493  60.0526993  30.7442753  47.9756493
  59.7546993  31.3362753  48.5426493  60.1076993  31.1862753  47.2266493
  60.0166993  30.8972753  47.9486493  58.0316993  29.6942753  51.3736493
  57.2256993  29.4042753  51.5406493  57.9426993  30.5622753  51.3796493
  57.8996993  29.7792753  51.3986493  62.5686993  27.1672753  47.4666493
  63.0446993  27.5412753  48.0946493  61.7456993  27.3012753  47.7256493
  62.5176993  27.2422753  47.5976493  59.2786993  22.7702753  50.2076493
  59.4396993  22.0262753  50.6346493  59.2336993  22.5212753  49.3726493
  59.2956993  22.6232753  50.1476493  61.8326993  34.5602753  42.6946493
  62.3786993  35.2392753  42.7486493  61.4826993  34.6422753  41.8996493
  61.8616993  34.6732753  42.5846493  61.0306993  18.5782753  50.0876493
  61.7356993  18.8982753  49.6856493  61.2716993  17.7712753  50.3146493
  61.1696993  18.5062753  50.0616493  60.0156993  32.7882753  46.0836493
  59.3916993  33.3702753  45.9016493  60.2636993  32.5022753  45.2976493
  59.9596993  32.8322753  45.9406493  64.3246993  29.4222753  53.0726493
  65.0816993  29.7082753  52.7466493  63.7776993  29.4742753  52.3946493
  64.3556993  29.4722753  52.9236493  61.6096993  27.5642753  35.9986493
  60.8046993  27.3872753  35.7136493  61.5766993  28.4152753  36.1906493
  61.4856993  27.6632753  35.9856493  57.5396993  23.6312753  46.1486493
  57.9796993  23.5282753  45.4026493  58.0846993  23.3182753  46.7536493
  57.6846993  23.5702753  46.1276493  65.5556993  22.7332753  51.7406493
  64.9076993  23.2032753  52.0886493  66.1206993  22.6442753  52.3996493
  65.5436993  22.7892753  51.8896493  65.2436993  24.2702753  48.0386493
  65.5456993  24.6902753  48.7416493  65.2796993  23.4302753  48.2706493
  65.2936993  24.2082753  48.1766493  62.6686993  34.4372753  51.9636493
  63.1466993  33.8372753  51.5476493  62.3176993  33.9942753  52.6286493
  62.6876993  34.2832753  52.0006493  61.0866993  18.6162753  46.1956493
  60.2606993  18.4672753  46.4326493  61.0466993  18.6512753  45.3246493
  60.9586993  18.5992753  46.1016493  62.7276993  29.6562753  50.9836493
  61.9326993  29.5922753  51.3346493  62.7986993  30.5032753  50.7886493
  62.6206993  29.7712753  51.0066493  53.6516993  19.0142753  52.2306493
  53.5116993  19.8092753  51.8996493  52.8656993  18.7712753  52.5196493
  53.5146993  19.0962753  52.2246493  58.5576993  35.8632753  46.3006493
  58.5686993  35.9222753  47.1706493  58.1326993  35.1162753  46.1506493
  58.4966993  35.7612753  46.4066493  56.7156993  21.7582753  39.4556493
  56.8416993  21.4292753  38.6576493  55.9036993  21.5092753  39.6546493
  56.6146993  21.6732753  39.3676493  65.4726993  28.9112753  42.4996493
  65.5486993  29.2522753  43.2986493  65.6416993  28.0642753  42.6206493
  65.5086993  28.8362753  42.6356493  62.9946993  28.1852753  42.0646493
  62.6966993  27.8702753  42.8216493  63.6896993  28.6582753  42.2996493
  63.0536993  28.2082753  42.2116493  63.2166993  32.3032753  50.0916493
  63.9036993  32.1892753  50.6166493  63.3506993  33.0942753  49.7476493
  63.3376993  32.4032753  50.1186493  55.3216993  35.3612753  51.7426493
  54.6676993  34.7922753  51.8406493  54.9466993  36.1342753  51.8936493
  55.1696993  35.3912753  51.7796493  63.8396993  26.7672753  53.6656493
  64.1626993  27.4532753  53.2336493  63.1356993  27.0902753  54.0676493
  63.7826993  26.9162753  53.6606493  63.6246993  30.2312753  47.5246493
  62.9306993  30.6332753  47.8676493  64.3016993  30.6642753  47.8636493
  63.6216993  30.3542753  47.6256493  56.6926993  23.7692753  49.8716493
  57.0676993  24.3882753  49.3846493  57.3666993  23.2952753  50.1566493
  56.8476993  23.7912753  49.8416493  54.4676993  22.2172753  49.1466493
  54.5446993  22.0482753  48.2936493  55.2136993  22.6232753  49.3436493
  54.5886993  22.2522753  49.0496493  57.0216993  19.6272753  51.5576493
  56.9406993  18.7832753  51.7636493  56.7076993  19.6712753  50.7446493
  56.9636993  19.5092753  51.4676493  63.9466993  31.8222753  40.6936493
  63.7416993  32.6552753  40.5346493  63.1716993  31.4402753  40.8156493
  63.8016993  31.8892753  40.6886493  53.8646993  27.4432753  49.3706493
  54.1846993  27.6622753  48.5896493  53.7646993  26.5782753  49.3156493
  53.8966993  27.3482753  49.2476493  55.3206993  23.3792753  35.9886493
  54.6486993  23.3932753  36.5446493  55.4156993  22.5312753  35.8046493
  55.2356993  23.2562753  36.0436493  65.0076993  19.8032753  52.7246493
  65.0996993  20.5152753  53.2186493  64.3706993  19.3582753  53.1216493
  64.9266993  19.8422753  52.8566493  64.0016993  19.9932753  43.5786493
  63.3016993  20.5112753  43.5226493  64.0396993  19.6132753  42.7946493
  63.9036993  20.0142753  43.4546493  59.3086993  32.0842753  37.1026493
  59.7496993  32.1642753  37.8506493  58.5036993  31.8682753  37.3606493
  59.2546993  32.0642753  37.2516493  58.6276993  26.7352753  50.7556493
  58.2316993  27.5092753  50.8306493  58.2216993  26.3622753  50.0796493
  58.5096993  26.7942753  50.6666493  56.6376993  31.1542753  37.7036493
  56.3936993  30.8472753  38.4836493  56.6046993  30.4512753  37.1876493
  56.5966993  31.0052753  37.7426493  59.4566993  29.3992753  36.4466493
  58.6386993  29.1312753  36.5866493  59.4286993  30.2512753  36.6316493
  59.3316993  29.4862753  36.4946493  59.0566993  19.7122753  48.2056493
  58.1926993  19.7962753  48.2856493  59.2766993  19.1982753  48.8746493
  58.9616993  19.6492753  48.3166493  63.1596993  20.4602753  46.5796493
  62.4226993  20.0062753  46.6926493  63.7306993  20.0582753  47.1026493
  63.1346993  20.3332753  46.6736493  65.8916993  31.3082753  48.3676493
  66.0976993  31.6092753  49.1596493  65.8306993  32.0302753  47.8826493
  65.9126993  31.4592753  48.4126493  65.4256993  35.5222753  52.6136493
  64.6726993  35.5042753  52.1726493  65.5936993  36.3742753  52.6976493
  65.3396993  35.6452753  52.5606493  60.6626993  24.7892753  51.7836493
  60.3406993  24.2132753  51.2136493  60.3036993  25.5442753  51.5376493
  60.5626993  24.8152753  51.6636493  61.4586993  18.0412753  36.4106493
  61.5366993  18.2882753  35.5776493  60.7156993  18.4182753  36.6686493
  61.3606993  18.1332753  36.3256493  59.0976993  35.1452753  52.0316493
  59.1386993  35.2712753  52.8946493  59.7486993  34.5852753  51.8756493
  59.1996993  35.0812753  52.1366493  56.2766993  19.7952753  48.8536493
  55.9336993  19.0282753  48.6196493  55.5816993  20.3192753  48.9176493
  56.1236993  19.7592753  48.8286493  65.3226993  18.6512753  45.8306493
  65.9926993  19.1952753  45.9576493  64.8196993  19.0752753  45.2576493
  65.3476993  18.7942753  45.7646493  56.6906993  33.5282753  53.3916493
  57.2856993  33.9592753  53.8636493  56.3266993  34.1522753  52.9026493
  56.7246993  33.6842753  53.3886493  64.6816993  24.4592753  43.3236493
  65.2326993  23.8522753  43.6236493  64.2566993  24.7222753  44.0386493
  64.7006993  24.4082753  43.4726493  54.9296993  23.1092753  42.8096493
  54.5616993  23.4112753  43.5406493  55.4636993  22.4802753  43.0936493
  54.9536993  23.0612753  42.9596493  54.6176993  31.5172753  50.3206493
  54.0436993  31.9332753  50.8296493  55.3506993  31.9822753  50.4156493
  54.6416993  31.6472753  50.4096493  56.4036993  34.7842753  39.0956493
  56.2586993  34.9402753  38.2496493  57.2696993  34.8632753  39.1736493
  56.5106993  34.8192753  38.9826493  60.5706993  27.1812753  38.8236493
  60.6706993  27.3202753  37.9686493  61.3886993  27.1212753  39.1196493
  60.7056993  27.1922753  38.7406493  65.8056993  31.5102753  38.6256493
  65.5546993  31.3822753  39.4516493  65.4886993  30.8152753  38.2046493
  65.7216993  31.3892753  38.6856493  59.7096993  20.1562753  51.9396493
  59.9436993  19.5802753  51.3266493  58.8676993  19.9752753  52.0806493
  59.6196993  20.0442753  51.8696493  57.0906993  33.5992753  45.5726493
  57.0116993  32.7892753  45.2566493  56.6466993  34.0862753  45.0006493
  57.0136993  33.5512753  45.4416493  62.6916993  29.7182753  38.0556493
  63.4086993  29.3712753  37.6996493  62.6576993  30.5182753  37.7076493
  62.7926993  29.7852753  37.9516493  54.6626993  35.8432753  49.1536493
  55.1556993  35.7872753  49.8716493  54.8506993  35.1102753  48.7186493
  54.7636993  35.7262753  49.1956493  64.1006993  18.3592753  22.2944083
  63.8556993  18.8472753  21.6144083  64.9636993  18.2862753  22.1944083
  64.1916993  18.4202753  22.1794083  63.9096993  25.2752753  26.9654083
  63.3856993  25.8712753  27.3284083  64.3066993  24.9072753  27.6494083
  63.8906993  25.3092753  27.1204083  53.7786993  29.4152753  22.4214083
  53.3376993  29.5332753  23.1644083  53.4956993  28.6402753  22.1364083
  53.6716993  29.3182753  22.4894083  53.5216993  23.2072753  18.9284083
  52.7436993  23.3692753  18.5684083  53.5606993  22.3362753  18.9504083
  53.4126993  23.1022753  18.8784083  56.6606993  28.4702753  17.6004083
  56.2686993  28.0992753  16.9144083  56.5806993  27.8722753  18.2294083
  56.5906993  28.3272753  17.5914083  56.2876993  30.1112753  21.5004083
  56.8956993  29.9412753  22.1034083  55.5366993  29.9712753  21.9214083
  56.2666993  30.0652753  21.6514083  60.5696993  19.4462753  21.4494083
  60.4996993  20.1232753  20.9034083  61.3106993  19.0582753  21.2004083
  60.6686993  19.4892753  21.3314083  55.1786993  33.2022753  17.5774083
  55.6456993  33.2862753  16.8454083  55.6336993  32.6242753  18.0464083
  55.3146993  33.1292753  17.5384083  53.7186993  32.1502753  28.6764083
  53.8476993  31.8702753  29.4924083  53.1086993  31.6092753  28.3674083
  53.6476993  32.0292753  28.7514083  60.2926993  29.6752753  33.7434083
  60.0566993  29.6722753  34.5834083  59.5446993  29.5272753  33.3194083
  60.1466993  29.6522753  33.8044083  55.1646993  26.6712753  22.8784083
  54.7026993  26.2792753  22.2514083  55.8646993  26.1582753  22.9704083
  55.1996993  26.5382753  22.7994083  59.6726993  22.2812753  28.2254083
  60.3506993  22.2992753  27.6764083  59.6276993  21.4452753  28.4704083
  59.7656993  22.1602753  28.1804083  60.2746993  32.8672753  31.0064083
  60.4126993  33.6272753  30.5994083  61.0656993  32.5022753  31.0334083
  60.4116993  32.9262753  30.9504083  57.1656993  24.7712753  22.9014083
  57.9826993  24.5842753  23.1444083  56.6886993  24.1572753  23.2974083
  57.2156993  24.6532753  22.9964083  61.3696993  30.7522753  25.5114083
  61.7176993  29.9532753  25.5414083  62.0346993  31.2562753  25.2564083
  61.5196993  30.7082753  25.4784083  61.4266993  30.2012753  21.7224083
  61.7576993  29.5572753  22.2084083  61.6666993  29.9902753  20.9114083
  61.5106993  30.0752753  21.6744083  63.3946993  24.3322753  33.0614083
  62.5466993  24.2332753  32.8834083  63.4236993  25.0772753  33.5154083
  63.2736993  24.4282753  33.1024083  57.7626993  19.8652753  22.1674083
  57.4666993  20.3662753  21.5174083  58.6296993  19.9432753  22.1104083
  57.8466993  19.9512753  22.0634083  60.7416993  19.0072753  24.3904083
  60.8146993  19.8672753  24.5194083  60.7036993  18.9322753  23.5224083
  60.7466993  19.1232753  24.2814083  65.4146993  21.9332753  16.6894083
  64.9646993  22.6142753  16.9964083  65.5286993  21.4292753  17.3924083
  65.3656993  21.9592753  16.8384083  53.6206993  24.4322753  25.8914083
  53.3646993  25.2632753  25.8164083  52.9566993  24.0492753  26.3084083
  53.4846993  24.4982753  25.9424083  53.5306993  34.1422753  23.7914083
  52.9386993  34.7002753  23.4784083  53.9566993  33.8732753  23.0794083
  53.5066993  34.1842753  23.6404083  59.3706993  31.9862753  21.2714083
  58.7916993  31.7112753  21.8634083  59.9946993  31.3772753  21.2964083
  59.3776993  31.8562753  21.3624083  63.6816993  34.6662753  20.7834083
  63.8956993  35.1932753  21.4454083  64.4486993  34.4922753  20.4044083
  63.8266993  34.7182753  20.8254083  56.6496993  19.2492753  26.3824083
  56.1286993  18.6212753  26.0744083  57.2406993  18.8122753  26.8534083
  56.6606993  19.0912753  26.4064083  59.9556993  21.3822753  35.6804083
  60.0726993  20.9282753  34.9444083  60.2436993  22.1802753  35.4774083
  60.0156993  21.4332753  35.5414083  55.0756993  32.8122753  21.7224083
  55.7316993  32.2372753  21.7374083  55.4646993  33.5612753  21.5014083
  55.2306993  32.8372753  21.6924083  55.6886993  20.9792753  34.6644083
  54.9106993  20.5892753  34.5924083  56.1796993  20.5672753  34.0734083
  55.6456993  20.8602753  34.5664083  55.8936993  31.2992753  25.2224083
  56.3166993  30.9432753  24.5484083  56.2176993  30.8772753  25.9144083
  56.0036993  31.1842753  25.2254083  59.1246993  34.1512753  24.5184083
  59.9686993  34.2552753  24.3234083  58.8276993  34.9692753  24.5864083
  59.2056993  34.2872753  24.4994083  62.3376993  18.6222753  33.8324083
  62.5156993  17.8132753  33.5574083  62.1946993  19.0632753  33.0934083
  62.3426993  18.5682753  33.6824083  62.9316993  23.5482753  22.6054083
  63.2186993  23.3162753  21.8154083  63.6636993  23.6272753  23.0744083
  63.0816993  23.5252753  22.5584083  63.6536993  23.8872753  17.7264083
  63.9346993  24.6752753  17.9754083  62.8776993  24.0522753  17.3634083
  63.5806993  24.0282753  17.7094083  58.1226993  35.3702753  30.2584083
  58.4146993  35.3032753  31.0784083  57.4966993  34.7652753  30.2134083
  58.0736993  35.2712753  30.3734083  53.0366993  21.5272753  32.2504083
  53.0326993  22.1142753  32.8964083  53.6306993  21.8392753  31.6934083
  53.1236993  21.6602753  32.2634083  62.5126993  32.0582753  17.5424083
  62.3316993  32.6032753  18.1994083  63.2786993  32.3482753  17.2414083
  62.5986993  32.1822753  17.5954083  53.9736993  21.1222753  21.1654083
  53.8596993  20.2582753  21.1964083  53.4986993  21.4162753  21.8354083
  53.8866993  21.0382753  21.2684083  56.1156993  33.5322753  29.3804083
  55.4176993  33.0242753  29.5064083  56.3756993  33.3272753  28.5724083
  56.0506993  33.4272753  29.2794083  63.2776993  22.3302753  19.9104083
  62.7696993  21.6682753  19.6564083  63.3296993  22.8342753  19.2004083
  63.2106993  22.3072753  19.7684083  63.8266993  35.0252753  30.2904083
  64.5946993  34.9452753  29.8844083  63.2436993  34.9042753  29.6524083
  63.8536993  34.9952753  30.1364083  63.2776993  19.2712753  19.8014083
  62.8226993  18.8692753  19.1754083  64.0506993  19.4262753  19.4264083
  63.3246993  19.2352753  19.6534083  61.8756993  21.6382753  24.3234083
  61.9496993  22.2062753  23.6654083  61.9966993  22.1302753  25.0334083
  61.9036993  21.7952753  24.3314083  57.4766993  32.3832753  31.9474083
  58.3176993  32.4462753  31.7254083  57.4396993  32.7802753  32.7234083
  57.5956993  32.4512753  32.0294083  56.4836993  17.4612753  22.6714083
  57.0196993  18.1492753  22.6614083  56.4866993  17.1872753  21.8434083
  56.5626993  17.5222753  22.5474083  59.4396993  27.8942753  26.6964083
  59.6116993  27.6842753  27.5254083  58.7846993  27.3602753  26.4804083
  59.3686993  27.7842753  26.7874083  65.6676993  21.8082753  30.2114083
  65.5726993  22.1272753  31.0174083  65.0746993  21.1692753  30.1734083
  65.5656993  21.7602753  30.3254083  60.1896993  27.8322753  29.2864083
  60.2426993  28.6792753  29.4884083  59.9046993  27.4622753  30.0234083
  60.1556993  27.9022753  29.4244083  53.0106993  32.2032753  35.4974083
  53.7666993  32.5522753  35.7554083  53.1876993  31.3502753  35.4404083
  53.1486993  32.1282753  35.5274083  56.9316993  21.2712753  24.3254083
  57.2036993  20.8412753  23.6174083  56.7556993  20.6352753  24.8964083
  56.9456993  21.1142753  24.3054083  56.7556993  28.6982753  23.8744083
  57.6066993  28.6182753  23.7014083  56.3986993  28.0162753  23.4624083
  56.8286993  28.5852753  23.7874083  55.5226993  35.4232753  25.1114083
  54.8496993  34.9252753  24.8664083  55.9256993  35.6082753  24.3604083
  55.4826993  35.3772753  24.9644083  55.0726993  22.3732753  27.4074083
  55.9156993  22.5932753  27.3644083  54.6836993  22.9462753  26.8764083
  55.1396993  22.4902753  27.3224083  59.1236993  28.7052753  22.1094083
  59.8366993  29.2002753  22.1994083  59.3456993  28.1382753  21.4834083
  59.2616993  28.6942753  22.0304083  53.2796993  30.3482753  25.4294083
  52.6126993  30.8362753  25.7054083  53.9596993  30.8932753  25.4584083
  53.2816993  30.5002753  25.4744083  60.9266993  24.0582753  35.5254083
  60.4426993  24.6352753  35.9674083  60.8986993  24.3532753  34.7044083
  60.8506993  24.1872753  35.4694083  53.3456993  27.0322753  20.5324083
  53.1606993  26.1932753  20.6844083  54.0046993  26.9962753  19.9624083
  53.4156993  26.9032753  20.4704083  63.6466993  32.4082753  24.4364083
  63.1236993  33.0422753  24.1434083  63.9566993  32.0442753  23.7074083
  63.6146993  32.4482753  24.2854083  53.5176993  31.1962753  20.1074083
  54.0696993  31.7652753  20.4714083  53.2856993  30.6812753  20.7724083
  53.5646993  31.2042753  20.2594083  57.7216993  30.1962753  27.1964083
  58.1886993  30.4852753  27.8744083  58.2936993  29.7182753  26.7424083
  57.8756993  30.1682753  27.2294083  53.3476993  29.6452753  17.7354083
  54.1036993  29.2132753  17.7934083  53.3626993  30.1772753  18.4264083
  53.4616993  29.6602753  17.8464083  54.2876993  27.8662753  25.7404083
  54.7186993  27.7372753  24.9934083  54.0826993  28.7142753  25.7144083
  54.3206993  27.9722753  25.6264083  60.6336993  21.4302753  19.3904083
  60.6316993  21.3132753  18.5254083  60.4526993  22.2782753  19.4824083
  60.6066993  21.5382753  19.2764083  58.3716993  31.3822753  24.0224083
  58.4976993  32.2252753  24.2094083  59.0396993  30.9832753  24.4184083
  58.4896993  31.4482753  24.1084083  56.5016993  24.8652753  33.8844083
  55.9656993  24.3592753  34.3524083  56.5216993  24.4752753  33.1044083
  56.4246993  24.7322753  33.8384083  56.9866993  24.2622753  19.0244083
  56.8586993  23.8142753  19.7624083  56.4046993  23.9202753  18.4724083
  56.8816993  24.1452753  19.0524083  57.1536993  26.0922753  25.6234083
  56.3726993  26.0332753  25.2404083  57.2256993  25.3402753  26.0604083
  57.0486993  25.9732753  25.6314083  57.5836993  25.8292753  29.0914083
  57.6086993  25.1542753  28.5404083  56.9376993  26.3252753  28.7794083
  57.4926993  25.8022753  28.9644083  61.6836993  34.6062753  28.4834083
  61.4066993  33.9652753  27.9604083  61.4756993  35.3322753  28.0454083
  61.6126993  34.6192753  28.3414083  64.1236993  19.4482753  30.9164083
  64.2726993  18.6232753  30.6734083  64.5026993  19.5032753  31.7004083
  64.2016993  19.3342753  30.9964083  55.3826993  27.1842753  34.6504083
  55.3456993  27.6852753  33.9364083  55.7136993  26.4322753  34.3554083
  55.4256993  27.1462753  34.5014083  61.2816993  32.2342753  34.0854083
  61.6356993  32.0562753  34.8624083  60.8456993  31.5052753  33.8864083
  61.2696993  32.1002753  34.1714083  62.2536993  22.9812753  26.7234083
  62.7336993  23.6802753  26.9314083  62.6266993  22.3342753  27.1744083
  62.3796993  22.9892753  26.8204083  64.4426993  26.1502753  18.9974083
  64.4346993  26.8722753  18.5074083  63.8036993  26.2852753  19.5744083
  64.3476993  26.2772753  19.0104083  65.4596993  33.0862753  26.8224083
  64.8566993  32.7902753  26.2654083  66.0046993  33.5382753  26.3134083
  65.4506993  33.1092753  26.6644083  65.4726993  29.9372753  26.2224083
  64.6756993  30.1612753  26.4964083  65.7306993  29.3432753  26.8074083
  65.3926993  29.8822753  26.3494083  59.3646993  34.7492753  20.6704083
  59.2176993  33.9732753  21.0414083  60.0536993  34.6022753  20.1554083
  59.4446993  34.6122753  20.6494083  59.0356993  18.4922753  18.6584083
  59.1326993  18.3852753  19.5194083  58.3276993  18.9982753  18.5934083
  58.9456993  18.5512753  18.7764083  61.6566993  34.2652753  19.0724083
  62.2786993  34.4282753  19.6624083  61.6926993  34.9562753  18.5404083
  61.7536993  34.3912753  19.0814083  64.9236993  33.2842753  35.3454083
  65.0876993  33.5672753  36.1544083  65.1866993  33.9452753  34.8404083
  64.9866993  33.4242753  35.3904083  56.1576993  26.7992753  19.9014083
  56.4816993  26.0202753  19.6794083  56.8036993  27.1672753  20.3564083
  56.3006993  26.7382753  19.9354083  64.4636993  27.7412753  30.6684083
  64.3086993  28.3512753  31.2724083  64.9976993  27.1832753  31.0744083
  64.5196993  27.7492753  30.8174083  53.1546993  18.4602753  20.8694083
  53.2836993  17.7522753  20.3774083  52.7876993  18.1422753  21.5944083
  53.1196993  18.3082753  20.9044083  62.8476993  26.1412753  21.3264083
  62.9066993  26.7912753  21.9054083  62.6586993  25.4452753  21.8174083
  62.8286993  26.1342753  21.4844083  57.3436993  20.6582753  17.8384083
  56.8326993  20.7112753  17.1324083  58.1276993  20.8982753  17.5424083
  57.3836993  20.7012753  17.6904083  62.0706993  28.1882753  25.7574083
  61.2236993  27.9942753  25.8384083  62.3946993  28.0232753  26.5504083
  61.9926993  28.1352753  25.8864083  58.8226993  34.9182753  16.6434083
  59.2616993  34.2212753  16.9314083  59.0296993  35.5422753  17.2164083
  58.9186993  34.9072753  16.7704083  55.9186993  27.8812753  28.0734083
  56.6406993  28.3692753  28.0364083  55.6486993  27.8512753  27.2444083
  55.9856993  27.9492753  27.9454083  59.1486993  23.0522753  24.8084083
  59.9946993  22.8622753  24.9064083  58.7786993  22.2752753  24.6704083
  59.2186993  22.9092753  24.8024083  53.9696993  24.3902753  21.4634083
  54.4586993  24.0982753  22.1244083  54.0986993  23.7972753  20.8364083
  54.0606993  24.2592753  21.4684083  58.4946993  25.8242753  16.9494083
  57.8846993  25.4192753  17.4234083  58.1086993  25.9422753  16.1764083
  58.3476993  25.7812753  16.9054083  55.3136993  28.9332753  32.3514083
  54.8926993  28.4152753  31.7904083  54.9616993  29.7192753  32.2084083
  55.1996993  28.9732753  32.2474083  59.9496993  24.2852753  19.6594083
  60.2216993  25.1112753  19.7264083  59.0866993  24.3602753  19.5634083
  59.8626993  24.4182753  19.6544083  53.4296993  20.2552753  26.1954083
  53.4736993  20.5992753  25.3944083  54.1846993  20.4922753  26.5624083
  53.5476993  20.3412753  26.1314083  65.3706993  29.5942753  17.6654083
  66.0546993  29.0802753  17.4964083  64.9536993  29.6402753  16.9004083
  65.4096993  29.5252753  17.5274083  60.0526993  30.7442753  28.9694083
  59.7546993  31.3362753  29.5364083  60.1076993  31.1862753  28.2204083
  60.0166993  30.8972753  28.9424083  58.0316993  29.6942753  32.3674083
  57.2256993  29.4042753  32.5344083  57.9426993  30.5622753  32.3734083
  57.8996993  29.7792753  32.3924083  62.5686993  27.1672753  28.4604083
  63.0446993  27.5412753  29.0884083  61.7456993  27.3012753  28.7194083
  62.5176993  27.2422753  28.5914083  59.2786993  22.7702753  31.2014083
  59.4396993  22.0262753  31.6284083  59.2336993  22.5212753  30.3664083
  59.2956993  22.6232753  31.1414083  61.8326993  34.5602753  23.6884083
  62.3786993  35.2392753  23.7424083  61.4826993  34.6422753  22.8934083
  61.8616993  34.6732753  23.5784083  61.0306993  18.5782753  31.0814083
  61.7356993  18.8982753  30.6794083  61.2716993  17.7712753  31.3084083
  61.1696993  18.5062753  31.0554083  60.0156993  32.7882753  27.0774083
  59.3916993  33.3702753  26.8954083  60.2636993  32.5022753  26.2914083
  59.9596993  32.8322753  26.9344083  64.3246993  29.4222753  34.0664083
  65.0816993  29.7082753  33.7404083  63.7776993  29.4742753  33.3884083
  64.3556993  29.4722753  33.9174083  61.6096993  27.5642753  16.9924083
  60.8046993  27.3872753  16.7074083  61.5766993  28.4152753  17.1844083
  61.4856993  27.6632753  16.9794083  57.5396993  23.6312753  27.1424083
  57.9796993  23.5282753  26.3964083  58.0846993  23.3182753  27.7474083
  57.6846993  23.5702753  27.1214083  65.5556993  22.7332753  32.7344083
  64.9076993  23.2032753  33.0824083  66.1206993  22.6442753  33.3934083
  65.5436993  22.7892753  32.8834083  65.2436993  24.2702753  29.0324083
  65.5456993  24.6902753  29.7354083  65.2796993  23.4302753  29.2644083
  65.2936993  24.2082753  29.1704083  62.6686993  34.4372753  32.9574083
  63.1466993  33.8372753  32.5414083  62.3176993  33.9942753  33.6224083
  62.6876993  34.2832753  32.9944083  61.0866993  18.6162753  27.1894083
  60.2606993  18.4672753  27.4264083  61.0466993  18.6512753  26.3184083
  60.9586993  18.5992753  27.0954083  62.7276993  29.6562753  31.9774083
  61.9326993  29.5922753  32.3284083  62.7986993  30.5032753  31.7824083
  62.6206993  29.7712753  32.0004083  53.6516993  19.0142753  33.2244083
  53.5116993  19.8092753  32.8934083  52.8656993  18.7712753  33.5134083
  53.5146993  19.0962753  33.2184083  58.5576993  35.8632753  27.2944083
  58.5686993  35.9222753  28.1644083  58.1326993  35.1162753  27.1444083
  58.4966993  35.7612753  27.4004083  56.7156993  21.7582753  20.4494083
  56.8416993  21.4292753  19.6514083  55.9036993  21.5092753  20.6484083
  56.6146993  21.6732753  20.3614083  65.4726993  28.9112753  23.4934083
  65.5486993  29.2522753  24.2924083  65.6416993  28.0642753  23.6144083
  65.5086993  28.8362753  23.6294083  62.9946993  28.1852753  23.0584083
  62.6966993  27.8702753  23.8154083  63.6896993  28.6582753  23.2934083
  63.0536993  28.2082753  23.2054083  63.2166993  32.3032753  31.0854083
  63.9036993  32.1892753  31.6104083  63.3506993  33.0942753  30.7414083
  63.3376993  32.4032753  31.1124083  55.3216993  35.3612753  32.7364083
  54.6676993  34.7922753  32.8344083  54.9466993  36.1342753  32.8874083
  55.1696993  35.3912753  32.7734083  63.8396993  26.7672753  34.6594083
  64.1626993  27.4532753  34.2274083  63.1356993  27.0902753  35.0614083
  63.7826993  26.9162753  34.6544083  63.6246993  30.2312753  28.5184083
  62.9306993  30.6332753  28.8614083  64.3016993  30.6642753  28.8574083
  63.6216993  30.3542753  28.6194083  56.6926993  23.7692753  30.8654083
  57.0676993  24.3882753  30.3784083  57.3666993  23.2952753  31.1504083
  56.8476993  23.7912753  30.8354083  54.4676993  22.2172753  30.1404083
  54.5446993  22.0482753  29.2874083  55.2136993  22.6232753  30.3374083
  54.5886993  22.2522753  30.0434083  57.0216993  19.6272753  32.5514083
  56.9406993  18.7832753  32.7574083  56.7076993  19.6712753  31.7384083
  56.9636993  19.5092753  32.4614083  63.9466993  31.8222753  21.6874083
  63.7416993  32.6552753  21.5284083  63.1716993  31.4402753  21.8094083
  63.8016993  31.8892753  21.6824083  53.8646993  27.4432753  30.3644083
  54.1846993  27.6622753  29.5834083  53.7646993  26.5782753  30.3094083
  53.8966993  27.3482753  30.2414083  55.3206993  23.3792753  16.9824083
  54.6486993  23.3932753  17.5384083  55.4156993  22.5312753  16.7984083
  55.2356993  23.2562753  17.0374083  65.0076993  19.8032753  33.7184083
  65.0996993  20.5152753  34.2124083  64.3706993  19.3582753  34.1154083
  64.9266993  19.8422753  33.8504083  64.0016993  19.9932753  24.5724083
  63.3016993  20.5112753  24.5164083  64.0396993  19.6132753  23.7884083
  63.9036993  20.0142753  24.4484083  59.3086993  32.0842753  18.0964083
  59.7496993  32.1642753  18.8444083  58.5036993  31.8682753  18.3544083
  59.2546993  32.0642753  18.2454083  58.6276993  26.7352753  31.7494083
  58.2316993  27.5092753  31.8244083  58.2216993  26.3622753  31.0734083
  58.5096993  26.7942753  31.6604083  56.6376993  31.1542753  18.6974083
  56.3936993  30.8472753  19.4774083  56.6046993  30.4512753  18.1814083
  56.5966993  31.0052753  18.7364083  59.4566993  29.3992753  17.4404083
  58.6386993  29.1312753  17.5804083  59.4286993  30.2512753  17.6254083
  59.3316993  29.4862753  17.4884083  59.0566993  19.7122753  29.1994083
  58.1926993  19.7962753  29.2794083  59.2766993  19.1982753  29.8684083
  58.9616993  19.6492753  29.3104083  63.1596993  20.4602753  27.5734083
  62.4226993  20.0062753  27.6864083  63.7306993  20.0582753  28.0964083
  63.1346993  20.3332753  27.6674083  65.8916993  31.3082753  29.3614083
  66.0976993  31.6092753  30.1534083  65.8306993  32.0302753  28.8764083
  65.9126993  31.4592753  29.4064083  65.4256993  35.5222753  33.6074083
  64.6726993  35.5042753  33.1664083  65.5936993  36.3742753  33.6914083
  65.3396993  35.6452753  33.5544083  60.6626993  24.7892753  32.7774083
  60.3406993  24.2132753  32.2074083  60.3036993  25.5442753  32.5314083
  60.5626993  24.8152753  32.6574083  61.4586993  18.0412753  17.4044083
  61.5366993  18.2882753  16.5714083  60.7156993  18.4182753  17.6624083
  61.3606993  18.1332753  17.3194083  59.0976993  35.1452753  33.0254083
  59.1386993  35.2712753  33.8884083  59.7486993  34.5852753  32.8694083
  59.1996993  35.0812753  33.1304083  56.2766993  19.7952753  29.8474083
  55.9336993  19.0282753  29.6134083  55.5816993  20.3192753  29.9114083
  56.1236993  19.7592753  29.8224083  65.3226993  18.6512753  26.8244083
  65.9926993  19.1952753  26.9514083  64.8196993  19.0752753  26.2514083
  65.3476993  18.7942753  26.7584083  56.6906993  33.5282753  34.3854083
  57.2856993  33.9592753  34.8574083  56.3266993  34.1522753  33.8964083
  56.7246993  33.6842753  34.3824083  64.6816993  24.4592753  24.3174083
  65.2326993  23.8522753  24.6174083  64.2566993  24.7222753  25.0324083
  64.7006993  24.4082753  24.4664083  54.9296993  23.1092753  23.8034083
  54.5616993  23.4112753  24.5344083  55.4636993  22.4802753  24.0874083
  54.9536993  23.0612753  23.9534083  54.6176993  31.5172753  31.3144083
  54.0436993  31.9332753  31.8234083  55.3506993  31.9822753  31.4094083
  54.6416993  31.6472753  31.4034083  56.4036993  34.7842753  20.0894083
  56.2586993  34.9402753  19.2434083  57.2696993  34.8632753  20.1674083
  56.5106993  34.8192753  19.9764083  60.5706993  27.1812753  19.8174083
  60.6706993  27.3202753  18.9624083  61.3886993  27.1212753  20.1134083
  60.7056993  27.1922753  19.7344083  65.8056993  31.5102753  19.6194083
  65.5546993  31.3822753  20.4454083  65.4886993  30.8152753  19.1984083
  65.7216993  31.3892753  19.6794083  59.7096993  20.1562753  32.9334083
  59.9436993  19.5802753  32.3204083  58.8676993  19.9752753  33.0744083
  59.6196993  20.0442753  32.8634083  57.0906993  33.5992753  26.5664083
  57.0116993  32.7892753  26.2504083  56.6466993  34.0862753  25.9944083
  57.0136993  33.5512753  26.4354083  62.6916993  29.7182753  19.0494083
  63.4086993  29.3712753  18.6934083  62.6576993  30.5182753  18.7014083
  62.7926993  29.7852753  18.9454083  54.6626993  35.8432753  30.1474083
  55.1556993  35.7872753  30.8654083  54.8506993  35.1102753  29.7124083
  54.7636993  35.7262753  30.1894083  64.1006993  18.3592753   3.2881673
  63.8556993  18.8472753   2.6081673  64.9636993  18.2862753   3.1881673
  64.1916993  18.4202753   3.1731673  63.9096993  25.2752753   7.9591673
  63.3856993  25.8712753   8.3221673  64.3066993  24.9072753   8.6431673
  63.8906993  25.3092753   8.1141673  53.7786993  29.4152753   3.4151673
  53.3376993  29.5332753   4.1581673  53.4956993  28.6402753   3.1301673
  53.6716993  29.3182753   3.4831673  56.2876993  30.1112753   2.4941673
  56.8956993  29.9412753   3.0971673  55.5366993  29.9712753   2.9151673
  56.2666993  30.0652753   2.6451673  60.5696993  19.4462753   2.4431673
  60.4996993  20.1232753   1.8971673  61.3106993  19.0582753   2.1941673
  60.6686993  19.4892753   2.3251673  53.7186993  32.1502753   9.6701673
  53.8476993  31.8702753  10.4861673  53.1086993  31.6092753   9.3611673
  53.6476993  32.0292753   9.7451673  60.2926993  29.6752753  14.7371673
  60.0566993  29.6722753  15.5771673  59.5446993  29.5272753  14.3131673
  60.1466993  29.6522753  14.7981673  55.1646993  26.6712753   3.8721673
  54.7026993  26.2792753   3.2451673  55.8646993  26.1582753   3.9641673
  55.1996993  26.5382753   3.7931673  59.6726993  22.2812753   9.2191673
  60.3506993  22.2992753   8.6701673  59.6276993  21.4452753   9.4641673
  59.7656993  22.1602753   9.1741673  60.2746993  32.8672753  12.0001673
  60.4126993  33.6272753  11.5931673  61.0656993  32.5022753  12.0271673
  60.4116993  32.9262753  11.9441673  57.1656993  24.7712753   3.8951673
  57.9826993  24.5842753   4.1381673  56.6886993  24.1572753   4.2911673
  57.2156993  24.6532753   3.9901673  61.3696993  30.7522753   6.5051673
  61.7176993  29.9532753   6.5351673  62.0346993  31.2562753   6.2501673
  61.5196993  30.7082753   6.4721673  61.4266993  30.2012753   2.7161673
  61.7576993  29.5572753   3.2021673  61.6666993  29.9902753   1.9051673
  61.5106993  30.0752753   2.6681673  63.3946993  24.3322753  14.0551673
  62.5466993  24.2332753  13.8771673  63.4236993  25.0772753  14.5091673
  63.2736993  24.4282753  14.0961673  57.7626993  19.8652753   3.1611673
  57.4666993  20.3662753   2.5111673  58.6296993  19.9432753   3.1041673
  57.8466993  19.9512753   3.0571673  60.7416993  19.0072753   5.3841673
  60.8146993  19.8672753   5.5131673  60.7036993  18.9322753   4.5161673
  60.7466993  19.1232753   5.2751673  53.6206993  24.4322753   6.8851673
  53.3646993  25.2632753   6.8101673  52.9566993  24.0492753   7.3021673
  53.4846993  24.4982753   6.9361673  53.5306993  34.1422753   4.7851673
  52.9386993  34.7002753   4.4721673  53.9566993  33.8732753   4.0731673
  53.5066993  34.1842753   4.6341673  59.3706993  31.9862753   2.2651673
  58.7916993  31.7112753   2.8571673  59.9946993  31.3772753   2.2901673
  59.3776993  31.8562753   2.3561673  63.6816993  34.6662753   1.7771673
  63.8956993  35.1932753   2.4391673  64.4486993  34.4922753   1.3981673
  63.8266993  34.7182753   1.8191673  56.6496993  19.2492753   7.3761673
  56.1286993  18.6212753   7.0681673  57.2406993  18.8122753   7.8471673
  56.6606993  19.0912753   7.4001673  59.9556993  21.3822753  16.6741673
  60.0726993  20.9282753  15.9381673  60.2436993  22.1802753  16.4711673
  60.0156993  21.4332753  16.5351673  55.0756993  32.8122753   2.7161673
  55.7316993  32.2372753   2.7311673  55.4646993  33.5612753   2.4951673
  55.2306993  32.8372753   2.6861673  55.6886993  20.9792753  15.6581673
  54.9106993  20.5892753  15.5861673  56.1796993  20.5672753  15.0671673
  55.6456993  20.8602753  15.5601673  55.8936993  31.2992753   6.2161673
  56.3166993  30.9432753   5.5421673  56.2176993  30.8772753   6.9081673
  56.0036993  31.1842753   6.2191673  59.1246993  34.1512753   5.5121673
  59.9686993  34.2552753   5.3171673  58.8276993  34.9692753   5.5801673
  59.2056993  34.2872753   5.4931673  62.3376993  18.6222753  14.8261673
  62.5156993  17.8132753  14.5511673  62.1946993  19.0632753  14.0871673
  62.3426993  18.5682753  14.6761673  62.9316993  23.5482753   3.5991673
  63.2186993  23.3162753   2.8091673  63.6636993  23.6272753   4.0681673
  63.0816993  23.5252753   3.5521673  58.1226993  35.3702753  11.2521673
  58.4146993  35.3032753  12.0721673  57.4966993  34.7652753  11.2071673
  58.0736993  35.2712753  11.3671673  53.0366993  21.5272753  13.2441673
  53.0326993  22.1142753  13.8901673  53.6306993  21.8392753  12.6871673
  53.1236993  21.6602753  13.2571673  53.9736993  21.1222753   2.1591673
  53.8596993  20.2582753   2.1901673  53.4986993  21.4162753   2.8291673
  53.8866993  21.0382753   2.2621673  56.1156993  33.5322753  10.3741673
  55.4176993  33.0242753  10.5001673  56.3756993  33.3272753   9.5661673
  56.0506993  33.4272753  10.2731673  63.8266993  35.0252753  11.2841673
  64.5946993  34.9452753  10.8781673  63.2436993  34.9042753  10.6461673
  63.8536993  34.9952753  11.1301673  61.8756993  21.6382753   5.3171673
  61.9496993  22.2062753   4.6591673  61.9966993  22.1302753   6.0271673
  61.9036993  21.7952753   5.3251673  57.4766993  32.3832753  12.9411673
  58.3176993  32.4462753  12.7191673  57.4396993  32.7802753  13.7171673
  57.5956993  32.4512753  13.0231673  56.4836993  17.4612753   3.6651673
  57.0196993  18.1492753   3.6551673  56.4866993  17.1872753   2.8371673
  56.5626993  17.5222753   3.5411673  59.4396993  27.8942753   7.6901673
  59.6116993  27.6842753   8.5191673  58.7846993  27.3602753   7.4741673
  59.3686993  27.7842753   7.7811673  65.6676993  21.8082753  11.2051673
  65.5726993  22.1272753  12.0111673  65.0746993  21.1692753  11.1671673
  65.5656993  21.7602753  11.3191673  60.1896993  27.8322753  10.2801673
  60.2426993  28.6792753  10.4821673  59.9046993  27.4622753  11.0171673
  60.1556993  27.9022753  10.4181673  53.0106993  32.2032753  16.4911673
  53.7666993  32.5522753  16.7491673  53.1876993  31.3502753  16.4341673
  53.1486993  32.1282753  16.5211673  56.9316993  21.2712753   5.3191673
  57.2036993  20.8412753   4.6111673  56.7556993  20.6352753   5.8901673
  56.9456993  21.1142753   5.2991673  56.7556993  28.6982753   4.8681673
  57.6066993  28.6182753   4.6951673  56.3986993  28.0162753   4.4561673
  56.8286993  28.5852753   4.7811673  55.5226993  35.4232753   6.1051673
  54.8496993  34.9252753   5.8601673  55.9256993  35.6082753   5.3541673
  55.4826993  35.3772753   5.9581673  55.0726993  22.3732753   8.4011673
  55.9156993  22.5932753   8.3581673  54.6836993  22.9462753   7.8701673
  55.1396993  22.4902753   8.3161673  59.1236993  28.7052753   3.1031673
  59.8366993  29.2002753   3.1931673  59.3456993  28.1382753   2.4771673
  59.2616993  28.6942753   3.0241673  53.2796993  30.3482753   6.4231673
  52.6126993  30.8362753   6.6991673  53.9596993  30.8932753   6.4521673
  53.2816993  30.5002753   6.4681673  60.9266993  24.0582753  16.5191673
  60.4426993  24.6352753  16.9611673  60.8986993  24.3532753  15.6981673
  60.8506993  24.1872753  16.4631673  63.6466993  32.4082753   5.4301673
  63.1236993  33.0422753   5.1371673  63.9566993  32.0442753   4.7011673
  63.6146993  32.4482753   5.2791673  57.7216993  30.1962753   8.1901673
  58.1886993  30.4852753   8.8681673  58.2936993  29.7182753   7.7361673
  57.8756993  30.1682753   8.2231673  54.2876993  27.8662753   6.7341673
  54.7186993  27.7372753   5.9871673  54.0826993  28.7142753   6.7081673
  54.3206993  27.9722753   6.6201673  58.3716993  31.3822753   5.0161673
  58.4976993  32.2252753   5.2031673  59.0396993  30.9832753   5.4121673
  58.4896993  31.4482753   5.1021673  56.5016993  24.8652753  14.8781673
  55.9656993  24.3592753  15.3461673  56.5216993  24.4752753  14.0981673
  56.4246993  24.7322753  14.8321673  57.1536993  26.0922753   6.6171673
  56.3726993  26.0332753   6.2341673  57.2256993  25.3402753   7.0541673
  57.0486993  25.9732753   6.6251673  57.5836993  25.8292753  10.0851673
  57.6086993  25.1542753   9.5341673  56.9376993  26.3252753   9.7731673
  57.4926993  25.8022753   9.9581673  61.6836993  34.6062753   9.4771673
  61.4066993  33.9652753   8.9541673  61.4756993  35.3322753   9.0391673
  61.6126993  34.6192753   9.3351673  64.1236993  19.4482753  11.9101673
  64.2726993  18.6232753  11.6671673  64.5026993  19.5032753  12.6941673
  64.2016993  19.3342753  11.9901673  55.3826993  27.1842753  15.6441673
  55.3456993  27.6852753  14.9301673  55.7136993  26.4322753  15.3491673
  55.4256993  27.1462753  15.4951673  61.2816993  32.2342753  15.0791673
  61.6356993  32.0562753  15.8561673  60.8456993  31.5052753  14.8801673
  61.2696993  32.1002753  15.1651673  62.2536993  22.9812753   7.7171673
  62.7336993  23.6802753   7.9251673  62.6266993  22.3342753   8.1681673
  62.3796993  22.9892753   7.8141673  65.4596993  33.0862753   7.8161673
  64.8566993  32.7902753   7.2591673  66.0046993  33.5382753   7.3071673
  65.4506993  33.1092753   7.6581673  65.4726993  29.9372753   7.2161673
  64.6756993  30.1612753   7.4901673  65.7306993  29.3432753   7.8011673
  65.3926993  29.8822753   7.3431673  64.9236993  33.2842753  16.3391673
  65.0876993  33.5672753  17.1481673  65.1866993  33.9452753  15.8341673
  64.9866993  33.4242753  16.3841673  64.4636993  27.7412753  11.6621673
  64.3086993  28.3512753  12.2661673  64.9976993  27.1832753  12.0681673
  64.5196993  27.7492753  11.8111673  53.1546993  18.4602753   1.8631673
  53.2836993  17.7522753   1.3711673  52.7876993  18.1422753   2.5881673
  53.1196993  18.3082753   1.8981673  62.8476993  26.1412753   2.3201673
  62.9066993  26.7912753   2.8991673  62.6586993  25.4452753   2.8111673
  62.8286993  26.1342753   2.4781673  62.0706993  28.1882753   6.7511673
  61.2236993  27.9942753   6.8321673  62.3946993  28.0232753   7.5441673
  61.9926993  28.1352753   6.8801673  55.9186993  27.8812753   9.0671673
  56.6406993  28.3692753   9.0301673  55.6486993  27.8512753   8.2381673
  55.9856993  27.9492753   8.9391673  59.1486993  23.0522753   5.8021673
  59.9946993  22.8622753   5.9001673  58.7786993  22.2752753   5.6641673
  59.2186993  22.9092753   5.7961673  53.9696993  24.3902753   2.4571673
  54.4586993  24.0982753   3.1181673  54.0986993  23.7972753   1.8301673
  54.0606993  24.2592753   2.4621673  55.3136993  28.9332753  13.3451673
  54.8926993  28.4152753  12.7841673  54.9616993  29.7192753  13.2021673
  55.1996993  28.9732753  13.2411673  53.4296993  20.2552753   7.1891673
  53.4736993  20.5992753   6.3881673  54.1846993  20.4922753   7.5561673
  53.5476993  20.3412753   7.1251673  60.0526993  30.7442753   9.9631673
  59.7546993  31.3362753  10.5301673  60.1076993  31.1862753   9.2141673
  60.0166993  30.8972753   9.9361673  58.0316993  29.6942753  13.3611673
  57.2256993  29.4042753  13.5281673  57.9426993  30.5622753  13.3671673
  57.8996993  29.7792753  13.3861673  62.5686993  27.1672753   9.4541673
  63.0446993  27.5412753  10.0821673  61.7456993  27.3012753   9.7131673
  62.5176993  27.2422753   9.5851673  59.2786993  22.7702753  12.1951673
  59.4396993  22.0262753  12.6221673  59.2336993  22.5212753  11.3601673
  59.2956993  22.6232753  12.1351673  61.8326993  34.5602753   4.6821673
  62.3786993  35.2392753   4.7361673  61.4826993  34.6422753   3.8871673
  61.8616993  34.6732753   4.5721673  61.0306993  18.5782753  12.0751673
  61.7356993  18.8982753  11.6731673  61.2716993  17.7712753  12.3021673
  61.1696993  18.5062753  12.0491673  60.0156993  32.7882753   8.0711673
  59.3916993  33.3702753   7.8891673  60.2636993  32.5022753   7.2851673
  59.9596993  32.8322753   7.9281673  64.3246993  29.4222753  15.0601673
  65.0816993  29.7082753  14.7341673  63.7776993  29.4742753  14.3821673
  64.3556993  29.4722753  14.9111673  57.5396993  23.6312753   8.1361673
  57.9796993  23.5282753   7.3901673  58.0846993  23.3182753   8.7411673
  57.6846993  23.5702753   8.1151673  65.5556993  22.7332753  13.7281673
  64.9076993  23.2032753  14.0761673  66.1206993  22.6442753  14.3871673
  65.5436993  22.7892753  13.8771673  65.2436993  24.2702753  10.0261673
  65.5456993  24.6902753  10.7291673  65.2796993  23.4302753  10.2581673
  65.2936993  24.2082753  10.1641673  62.6686993  34.4372753  13.9511673
  63.1466993  33.8372753  13.5351673  62.3176993  33.9942753  14.6161673
  62.6876993  34.2832753  13.9881673  61.0866993  18.6162753   8.1831673
  60.2606993  18.4672753   8.4201673  61.0466993  18.6512753   7.3121673
  60.9586993  18.5992753   8.0891673  62.7276993  29.6562753  12.9711673
  61.9326993  29.5922753  13.3221673  62.7986993  30.5032753  12.7761673
  62.6206993  29.7712753  12.9941673  53.6516993  19.0142753  14.2181673
  53.5116993  19.8092753  13.8871673  52.8656993  18.7712753  14.5071673
  53.5146993  19.0962753  14.2121673  58.5576993  35.8632753   8.2881673
  58.5686993  35.9222753   9.1581673  58.1326993  35.1162753   8.1381673
  58.4966993  35.7612753   8.3941673  65.4726993  28.9112753   4.4871673
  65.5486993  29.2522753   5.2861673  65.6416993  28.0642753   4.6081673
  65.5086993  28.8362753   4.6231673  62.9946993  28.1852753   4.0521673
  62.6966993  27.8702753   4.8091673  63.6896993  28.6582753   4.2871673
  63.0536993  28.2082753   4.1991673  63.2166993  32.3032753  12.0791673
  63.9036993  32.1892753  12.6041673  63.3506993  33.0942753  11.7351673
  63.3376993  32.4032753  12.1061673  55.3216993  35.3612753  13.7301673
  54.6676993  34.7922753  13.8281673  54.9466993  36.1342753  13.8811673
  55.1696993  35.3912753  13.7671673  63.8396993  26.7672753  15.6531673
  64.1626993  27.4532753  15.2211673  63.1356993  27.0902753  16.0551673
  63.7826993  26.9162753  15.6481673  63.6246993  30.2312753   9.5121673
  62.9306993  30.6332753   9.8551673  64.3016993  30.6642753   9.8511673
  63.6216993  30.3542753   9.6131673  56.6926993  23.7692753  11.8591673
  57.0676993  24.3882753  11.3721673  57.3666993  23.2952753  12.1441673
  56.8476993  23.7912753  11.8291673  54.4676993  22.2172753  11.1341673
  54.5446993  22.0482753  10.2811673  55.2136993  22.6232753  11.3311673
  54.5886993  22.2522753  11.0371673  57.0216993  19.6272753  13.5451673
  56.9406993  18.7832753  13.7511673  56.7076993  19.6712753  12.7321673
  56.9636993  19.5092753  13.4551673  63.9466993  31.8222753   2.6811673
  63.7416993  32.6552753   2.5221673  63.1716993  31.4402753   2.8031673
  63.8016993  31.8892753   2.6761673  53.8646993  27.4432753  11.3581673
  54.1846993  27.6622753  10.5771673  53.7646993  26.5782753  11.3031673
  53.8966993  27.3482753  11.2351673  65.0076993  19.8032753  14.7121673
  65.0996993  20.5152753  15.2061673  64.3706993  19.3582753  15.1091673
  64.9266993  19.8422753  14.8441673  64.0016993  19.9932753   5.5661673
  63.3016993  20.5112753   5.5101673  64.0396993  19.6132753   4.7821673
  63.9036993  20.0142753   5.4421673  58.6276993  26.7352753  12.7431673
  58.2316993  27.5092753  12.8181673  58.2216993  26.3622753  12.0671673
  58.5096993  26.7942753  12.6541673  59.0566993  19.7122753  10.1931673
  58.1926993  19.7962753  10.2731673  59.2766993  19.1982753  10.8621673
  58.9616993  19.6492753  10.3041673  63.1596993  20.4602753   8.5671673
  62.4226993  20.0062753   8.6801673  63.7306993  20.0582753   9.0901673
  63.1346993  20.3332753   8.6611673  65.8916993  31.3082753  10.3551673
  66.0976993  31.6092753  11.1471673  65.8306993  32.0302753   9.8701673
  65.9126993  31.4592753  10.4001673  65.4256993  35.5222753  14.6011673
  64.6726993  35.5042753  14.1601673  65.5936993  36.3742753  14.6851673
  65.3396993  35.6452753  14.5481673  60.6626993  24.7892753  13.7711673
  60.3406993  24.2132753  13.2011673  60.3036993  25.5442753  13.5251673
  60.5626993  24.8152753  13.6511673  59.0976993  35.1452753  14.0191673
  59.1386993  35.2712753  14.8821673  59.7486993  34.5852753  13.8631673
  59.1996993  35.0812753  14.1241673  56.2766993  19.7952753  10.8411673
  55.9336993  19.0282753  10.6071673  55.5816993  20.3192753  10.9051673
  56.1236993  19.7592753  10.8161673  65.3226993  18.6512753   7.8181673
  65.9926993  19.1952753   7.9451673  64.8196993  19.0752753   7.2451673
  65.3476993  18.7942753   7.7521673  56.6906993  33.5282753  15.3791673
  57.2856993  33.9592753  15.8511673  56.3266993  34.1522753  14.8901673
  56.7246993  33.6842753  15.3761673  64.6816993  24.4592753   5.3111673
  65.2326993  23.8522753   5.6111673  64.2566993  24.7222753   6.0261673
  64.7006993  24.4082753   5.4601673  54.9296993  23.1092753   4.7971673
  54.5616993  23.4112753   5.5281673  55.4636993  22.4802753   5.0811673
  54.9536993  23.0612753   4.9471673  54.6176993  31.5172753  12.3081673
  54.0436993  31.9332753  12.8171673  55.3506993  31.9822753  12.4031673
  54.6416993  31.6472753  12.3971673  59.7096993  20.1562753  13.9271673
  59.9436993  19.5802753  13.3141673  58.8676993  19.9752753  14.0681673
  59.6196993  20.0442753  13.8571673  57.0906993  33.5992753   7.5601673
  57.0116993  32.7892753   7.2441673  56.6466993  34.0862753   6.9881673
  57.0136993  33.5512753   7.4291673  54.6626993  35.8432753  11.1411673
  55.1556993  35.7872753  11.8591673  54.8506993  35.1102753  10.7061673
  54.7636993  35.7262753  11.1831673  63.9096993   6.7971673  83.9841313
  63.3856993   7.3931673  84.3471313  64.3066993   6.4291673  84.6681313
  63.8906993   6.8311673  84.1391313  53.7786993  10.9371673  79.4401313
  53.3376993  11.0551673  80.1831313  53.4956993  10.1621673  79.1551313
  53.6716993  10.8401673  79.5081313  53.5216993   4.7291673  75.9471313
  52.7436993   4.8911673  75.5871313  53.5606993   3.8581673  75.9691313
  53.4126993   4.6241673  75.8971313  56.6606993   9.9921673  74.6191313
  56.2686993   9.6211673  73.9331313  56.5806993   9.3941673  75.2481313
  56.5906993   9.8491673  74.6101313  56.2876993  11.6331673  78.5191313
  56.8956993  11.4631673  79.1221313  55.5366993  11.4931673  78.9401313
  56.2666993  11.5871673  78.6701313  55.1786993  14.7241673  74.5961313
  55.6456993  14.8081673  73.8641313  55.6336993  14.1461673  75.0651313
  55.3146993  14.6511673  74.5571313  53.7186993  13.6721673  85.6951313
  53.8476993  13.3921673  86.5111313  53.1086993  13.1311673  85.3861313
  53.6476993  13.5511673  85.7701313  55.1646993   8.1931673  79.8971313
  54.7026993   7.8011673  79.2701313  55.8646993   7.6801673  79.9891313
  55.1996993   8.0601673  79.8181313  59.6726993   3.8031673  85.2441313
  60.3506993   3.8211673  84.6951313  59.6276993   2.9671673  85.4891313
  59.7656993   3.6821673  85.1991313  60.2746993  14.3891673  88.0251313
  60.4126993  15.1491673  87.6181313  61.0656993  14.0241673  88.0521313
  60.4116993  14.4481673  87.9691313  57.1656993   6.2931673  79.9201313
  57.9826993   6.1061673  80.1631313  56.6886993   5.6791673  80.3161313
  57.2156993   6.1751673  80.0151313  61.3696993  12.2741673  82.5301313
  61.7176993  11.4751673  82.5601313  62.0346993  12.7781673  82.2751313
  61.5196993  12.2301673  82.4971313  61.4266993  11.7231673  78.7411313
  61.7576993  11.0791673  79.2271313  61.6666993  11.5121673  77.9301313
  61.5106993  11.5971673  78.6931313  65.4146993   3.4551673  73.7081313
  64.9646993   4.1361673  74.0151313  65.5286993   2.9511673  74.4111313
  65.3656993   3.4811673  73.8571313  53.6206993   5.9541673  82.9101313
  53.3646993   6.7851673  82.8351313  52.9566993   5.5711673  83.3271313
  53.4846993   6.0201673  82.9611313  53.5306993  15.6641673  80.8101313
  52.9386993  16.2221673  80.4971313  53.9566993  15.3951673  80.0981313
  53.5066993  15.7061673  80.6591313  59.3706993  13.5081673  78.2901313
  58.7916993  13.2331673  78.8821313  59.9946993  12.8991673  78.3151313
  59.3776993  13.3781673  78.3811313  63.6816993  16.1881673  77.8021313
  63.8956993  16.7151673  78.4641313  64.4486993  16.0141673  77.4231313
  63.8266993  16.2401673  77.8441313  55.0756993  14.3341673  78.7411313
  55.7316993  13.7591673  78.7561313  55.4646993  15.0831673  78.5201313
  55.2306993  14.3591673  78.7111313  55.8936993  12.8211673  82.2411313
  56.3166993  12.4651673  81.5671313  56.2176993  12.3991673  82.9331313
  56.0036993  12.7061673  82.2441313  59.1246993  15.6731673  81.5371313
  59.9686993  15.7771673  81.3421313  58.8276993  16.4911673  81.6051313
  59.2056993  15.8091673  81.5181313  62.9316993   5.0701673  79.6241313
  63.2186993   4.8381673  78.8341313  63.6636993   5.1491673  80.0931313
  63.0816993   5.0471673  79.5771313  63.6536993   5.4091673  74.7451313
  63.9346993   6.1971673  74.9941313  62.8776993   5.5741673  74.3821313
  63.5806993   5.5501673  74.7281313  58.1226993  16.8921673  87.2771313
  58.4146993  16.8251673  88.0971313  57.4966993  16.2871673  87.2321313
  58.0736993  16.7931673  87.3921313  62.5126993  13.5801673  74.5611313
  62.3316993  14.1251673  75.2181313  63.2786993  13.8701673  74.2601313
  62.5986993  13.7041673  74.6141313  53.9736993   2.6441673  78.1841313
  53.8596993   1.7801673  78.2151313  53.4986993   2.9381673  78.8541313
  53.8866993   2.5601673  78.2871313  56.1156993  15.0541673  86.3991313
  55.4176993  14.5461673  86.5251313  56.3756993  14.8491673  85.5911313
  56.0506993  14.9491673  86.2981313  63.2776993   3.8521673  76.9291313
  62.7696993   3.1901673  76.6751313  63.3296993   4.3561673  76.2191313
  63.2106993   3.8291673  76.7871313  63.8266993  16.5471673  87.3091313
  64.5946993  16.4671673  86.9031313  63.2436993  16.4261673  86.6711313
  63.8536993  16.5171673  87.1551313  61.8756993   3.1601673  81.3421313
  61.9496993   3.7281673  80.6841313  61.9966993   3.6521673  82.0521313
  61.9036993   3.3171673  81.3501313  59.4396993   9.4161673  83.7151313
  59.6116993   9.2061673  84.5441313  58.7846993   8.8821673  83.4991313
  59.3686993   9.3061673  83.8061313  65.6676993   3.3301673  87.2301313
  65.5726993   3.6491673  88.0361313  65.0746993   2.6911673  87.1921313
  65.5656993   3.2821673  87.3441313  60.1896993   9.3541673  86.3051313
  60.2426993  10.2011673  86.5071313  59.9046993   8.9841673  87.0421313
  60.1556993   9.4241673  86.4431313  56.9316993   2.7931673  81.3441313
  57.2036993   2.3631673  80.6361313  56.7556993   2.1571673  81.9151313
  56.9456993   2.6361673  81.3241313  56.7556993  10.2201673  80.8931313
  57.6066993  10.1401673  80.7201313  56.3986993   9.5381673  80.4811313
  56.8286993  10.1071673  80.8061313  55.5226993  16.9451673  82.1301313
  54.8496993  16.4471673  81.8851313  55.9256993  17.1301673  81.3791313
  55.4826993  16.8991673  81.9831313  55.0726993   3.8951673  84.4261313
  55.9156993   4.1151673  84.3831313  54.6836993   4.4681673  83.8951313
  55.1396993   4.0121673  84.3411313  59.1236993  10.2271673  79.1281313
  59.8366993  10.7221673  79.2181313  59.3456993   9.6601673  78.5021313
  59.2616993  10.2161673  79.0491313  53.2796993  11.8701673  82.4481313
  52.6126993  12.3581673  82.7241313  53.9596993  12.4151673  82.4771313
  53.2816993  12.0221673  82.4931313  53.3456993   8.5541673  77.5511313
  53.1606993   7.7151673  77.7031313  54.0046993   8.5181673  76.9811313
  53.4156993   8.4251673  77.4891313  63.6466993  13.9301673  81.4551313
  63.1236993  14.5641673  81.1621313  63.9566993  13.5661673  80.7261313
  63.6146993  13.9701673  81.3041313  53.5176993  12.7181673  77.1261313
  54.0696993  13.2871673  77.4901313  53.2856993  12.2031673  77.7911313
  53.5646993  12.7261673  77.2781313  57.7216993  11.7181673  84.2151313
  58.1886993  12.0071673  84.8931313  58.2936993  11.2401673  83.7611313
  57.8756993  11.6901673  84.2481313  53.3476993  11.1671673  74.7541313
  54.1036993  10.7351673  74.8121313  53.3626993  11.6991673  75.4451313
  53.4616993  11.1821673  74.8651313  54.2876993   9.3881673  82.7591313
  54.7186993   9.2591673  82.0121313  54.0826993  10.2361673  82.7331313
  54.3206993   9.4941673  82.6451313  60.6336993   2.9521673  76.4091313
  60.6316993   2.8351673  75.5441313  60.4526993   3.8001673  76.5011313
  60.6066993   3.0601673  76.2951313  58.3716993  12.9041673  81.0411313
  58.4976993  13.7471673  81.2281313  59.0396993  12.5051673  81.4371313
  58.4896993  12.9701673  81.1271313  56.9866993   5.7841673  76.0431313
  56.8586993   5.3361673  76.7811313  56.4046993   5.4421673  75.4911313
  56.8816993   5.6671673  76.0711313  57.1536993   7.6141673  82.6421313
  56.3726993   7.5551673  82.2591313  57.2256993   6.8621673  83.0791313
  57.0486993   7.4951673  82.6501313  57.5836993   7.3511673  86.1101313
  57.6086993   6.6761673  85.5591313  56.9376993   7.8471673  85.7981313
  57.4926993   7.3241673  85.9831313  61.6836993  16.1281673  85.5021313
  61.4066993  15.4871673  84.9791313  61.4756993  16.8541673  85.0641313
  61.6126993  16.1411673  85.3601313  62.2536993   4.5031673  83.7421313
  62.7336993   5.2021673  83.9501313  62.6266993   3.8561673  84.1931313
  62.3796993   4.5111673  83.8391313  64.4426993   7.6721673  76.0161313
  64.4346993   8.3941673  75.5261313  63.8036993   7.8071673  76.5931313
  64.3476993   7.7991673  76.0291313  65.4596993  14.6081673  83.8411313
  64.8566993  14.3121673  83.2841313  66.0046993  15.0601673  83.3321313
  65.4506993  14.6311673  83.6831313  65.4726993  11.4591673  83.2411313
  64.6756993  11.6831673  83.5151313  65.7306993  10.8651673  83.8261313
  65.3926993  11.4041673  83.3681313  59.3646993  16.2711673  77.6891313
  59.2176993  15.4951673  78.0601313  60.0536993  16.1241673  77.1741313
  59.4446993  16.1341673  77.6681313  61.6566993  15.7871673  76.0911313
  62.2786993  15.9501673  76.6811313  61.6926993  16.4781673  75.5591313
  61.7536993  15.9131673  76.1001313  56.1576993   8.3211673  76.9201313
  56.4816993   7.5421673  76.6981313  56.8036993   8.6891673  77.3751313
  56.3006993   8.2601673  76.9541313  64.4636993   9.2631673  87.6871313
  64.3086993   9.8731673  88.2911313  64.9976993   8.7051673  88.0931313
  64.5196993   9.2711673  87.8361313  62.8476993   7.6631673  78.3451313
  62.9066993   8.3131673  78.9241313  62.6586993   6.9671673  78.8361313
  62.8286993   7.6561673  78.5031313  57.3436993   2.1801673  74.8571313
  56.8326993   2.2331673  74.1511313  58.1276993   2.4201673  74.5611313
  57.3836993   2.2231673  74.7091313  62.0706993   9.7101673  82.7761313
  61.2236993   9.5161673  82.8571313  62.3946993   9.5451673  83.5691313
  61.9926993   9.6571673  82.9051313  58.8226993  16.4401673  73.6621313
  59.2616993  15.7431673  73.9501313  59.0296993  17.0641673  74.2351313
  58.9186993  16.4291673  73.7891313  55.9186993   9.4031673  85.0921313
  56.6406993   9.8911673  85.0551313  55.6486993   9.3731673  84.2631313
  55.9856993   9.4711673  84.9641313  59.1486993   4.5741673  81.8271313
  59.9946993   4.3841673  81.9251313  58.7786993   3.7971673  81.6891313
  59.2186993   4.4311673  81.8211313  53.9696993   5.9121673  78.4821313
  54.4586993   5.6201673  79.1431313  54.0986993   5.3191673  77.8551313
  54.0606993   5.7811673  78.4871313  58.4946993   7.3461673  73.9681313
  57.8846993   6.9411673  74.4421313  58.1086993   7.4641673  73.1951313
  58.3476993   7.3031673  73.9241313  59.9496993   5.8071673  76.6781313
  60.2216993   6.6331673  76.7451313  59.0866993   5.8821673  76.5821313
  59.8626993   5.9401673  76.6731313  53.4296993   1.7771673  83.2141313
  53.4736993   2.1211673  82.4131313  54.1846993   2.0141673  83.5811313
  53.5476993   1.8631673  83.1501313  65.3706993  11.1161673  74.6841313
  66.0546993  10.6021673  74.5151313  64.9536993  11.1621673  73.9191313
  65.4096993  11.0471673  74.5461313  60.0526993  12.2661673  85.9881313
  59.7546993  12.8581673  86.5551313  60.1076993  12.7081673  85.2391313
  60.0166993  12.4191673  85.9611313  62.5686993   8.6891673  85.4791313
  63.0446993   9.0631673  86.1071313  61.7456993   8.8231673  85.7381313
  62.5176993   8.7641673  85.6101313  59.2786993   4.2921673  88.2201313
  59.4396993   3.5481673  88.6471313  59.2336993   4.0431673  87.3851313
  59.2956993   4.1451673  88.1601313  61.8326993  16.0821673  80.7071313
  62.3786993  16.7611673  80.7611313  61.4826993  16.1641673  79.9121313
  61.8616993  16.1951673  80.5971313  60.0156993  14.3101673  84.0961313
  59.3916993  14.8921673  83.9141313  60.2636993  14.0241673  83.3101313
  59.9596993  14.3541673  83.9531313  61.6096993   9.0861673  74.0111313
  60.8046993   8.9091673  73.7261313  61.5766993   9.9371673  74.2031313
  61.4856993   9.1851673  73.9981313  57.5396993   5.1531673  84.1611313
  57.9796993   5.0501673  83.4151313  58.0846993   4.8401673  84.7661313
  57.6846993   5.0921673  84.1401313  65.2436993   5.7921673  86.0511313
  65.5456993   6.2121673  86.7541313  65.2796993   4.9521673  86.2831313
  65.2936993   5.7301673  86.1891313  58.5576993  17.3851673  84.3131313
  58.5686993  17.4441673  85.1831313  58.1326993  16.6381673  84.1631313
  58.4966993  17.2831673  84.4191313  56.7156993   3.2801673  77.4681313
  56.8416993   2.9511673  76.6701313  55.9036993   3.0311673  77.6671313
  56.6146993   3.1951673  77.3801313  65.4726993  10.4331673  80.5121313
  65.5486993  10.7741673  81.3111313  65.6416993   9.5861673  80.6331313
  65.5086993  10.3581673  80.6481313  62.9946993   9.7071673  80.0771313
  62.6966993   9.3921673  80.8341313  63.6896993  10.1801673  80.3121313
  63.0536993   9.7301673  80.2241313  63.2166993  13.8251673  88.1041313
  63.9036993  13.7111673  88.6291313  63.3506993  14.6161673  87.7601313
  63.3376993  13.9251673  88.1311313  63.6246993  11.7531673  85.5371313
  62.9306993  12.1551673  85.8801313  64.3016993  12.1861673  85.8761313
  63.6216993  11.8761673  85.6381313  56.6926993   5.2911673  87.8841313
  57.0676993   5.9101673  87.3971313  57.3666993   4.8171673  88.1691313
  56.8476993   5.3131673  87.8541313  54.4676993   3.7391673  87.1591313
  54.5446993   3.5701673  86.3061313  55.2136993   4.1451673  87.3561313
  54.5886993   3.7741673  87.0621313  63.9466993  13.3441673  78.7061313
  63.7416993  14.1771673  78.5471313  63.1716993  12.9621673  78.8281313
  63.8016993  13.4111673  78.7011313  53.8646993   8.9651673  87.3831313
  54.1846993   9.1841673  86.6021313  53.7646993   8.1001673  87.3281313
  53.8966993   8.8701673  87.2601313  55.3206993   4.9011673  74.0011313
  54.6486993   4.9151673  74.5571313  55.4156993   4.0531673  73.8171313
  55.2356993   4.7781673  74.0561313  59.3086993  13.6061673  75.1151313
  59.7496993  13.6861673  75.8631313  58.5036993  13.3901673  75.3731313
  59.2546993  13.5861673  75.2641313  58.6276993   8.2571673  88.7681313
  58.2316993   9.0311673  88.8431313  58.2216993   7.8841673  88.0921313
  58.5096993   8.3161673  88.6791313  56.6376993  12.6761673  75.7161313
  56.3936993  12.3691673  76.4961313  56.6046993  11.9731673  75.2001313
  56.5966993  12.5271673  75.7551313  59.4566993  10.9211673  74.4591313
  58.6386993  10.6531673  74.5991313  59.4286993  11.7731673  74.6441313
  59.3316993  11.0081673  74.5071313  65.8916993  12.8301673  86.3801313
  66.0976993  13.1311673  87.1721313  65.8306993  13.5521673  85.8951313
  65.9126993  12.9811673  86.4251313  64.6816993   5.9811673  81.3361313
  65.2326993   5.3741673  81.6361313  64.2566993   6.2441673  82.0511313
  64.7006993   5.9301673  81.4851313  54.9296993   4.6311673  80.8221313
  54.5616993   4.9331673  81.5531313  55.4636993   4.0021673  81.1061313
  54.9536993   4.5831673  80.9721313  54.6176993  13.0391673  88.3331313
  54.0436993  13.4551673  88.8421313  55.3506993  13.5041673  88.4281313
  54.6416993  13.1691673  88.4221313  56.4036993  16.3061673  77.1081313
  56.2586993  16.4621673  76.2621313  57.2696993  16.3851673  77.1861313
  56.5106993  16.3411673  76.9951313  60.5706993   8.7031673  76.8361313
  60.6706993   8.8421673  75.9811313  61.3886993   8.6431673  77.1321313
  60.7056993   8.7141673  76.7531313  65.8056993  13.0321673  76.6381313
  65.5546993  12.9041673  77.4641313  65.4886993  12.3371673  76.2171313
  65.7216993  12.9111673  76.6981313  57.0906993  15.1211673  83.5851313
  57.0116993  14.3111673  83.2691313  56.6466993  15.6081673  83.0131313
  57.0136993  15.0731673  83.4541313  62.6916993  11.2401673  76.0681313
  63.4086993  10.8931673  75.7121313  62.6576993  12.0401673  75.7201313
  62.7926993  11.3071673  75.9641313  54.6626993  17.3651673  87.1661313
  55.1556993  17.3091673  87.8841313  54.8506993  16.6321673  86.7311313
  54.7636993  17.2481673  87.2081313  63.9096993   6.7971673  64.9778903
  63.3856993   7.3931673  65.3408903  64.3066993   6.4291673  65.6618903
  63.8906993   6.8311673  65.1328903  53.7786993  10.9371673  60.4338903
  53.3376993  11.0551673  61.1768903  53.4956993  10.1621673  60.1488903
  53.6716993  10.8401673  60.5018903  53.5216993   4.7291673  56.9408903
  52.7436993   4.8911673  56.5808903  53.5606993   3.8581673  56.9628903
  53.4126993   4.6241673  56.8908903  56.6606993   9.9921673  55.6128903
  56.2686993   9.6211673  54.9268903  56.5806993   9.3941673  56.2418903
  56.5906993   9.8491673  55.6038903  56.2876993  11.6331673  59.5128903
  56.8956993  11.4631673  60.1158903  55.5366993  11.4931673  59.9338903
  56.2666993  11.5871673  59.6638903  55.1786993  14.7241673  55.5898903
  55.6456993  14.8081673  54.8578903  55.6336993  14.1461673  56.0588903
  55.3146993  14.6511673  55.5508903  53.7186993  13.6721673  66.6888903
  53.8476993  13.3921673  67.5048903  53.1086993  13.1311673  66.3798903
  53.6476993  13.5511673  66.7638903  60.2926993  11.1971673  71.7558903
  60.0566993  11.1941673  72.5958903  59.5446993  11.0491673  71.3318903
  60.1466993  11.1741673  71.8168903  55.1646993   8.1931673  60.8908903
  54.7026993   7.8011673  60.2638903  55.8646993   7.6801673  60.9828903
  55.1996993   8.0601673  60.8118903  59.6726993   3.8031673  66.2378903
  60.3506993   3.8211673  65.6888903  59.6276993   2.9671673  66.4828903
  59.7656993   3.6821673  66.1928903  60.2746993  14.3891673  69.0188903
  60.4126993  15.1491673  68.6118903  61.0656993  14.0241673  69.0458903
  60.4116993  14.4481673  68.9628903  57.1656993   6.2931673  60.9138903
  57.9826993   6.1061673  61.1568903  56.6886993   5.6791673  61.3098903
  57.2156993   6.1751673  61.0088903  61.3696993  12.2741673  63.5238903
  61.7176993  11.4751673  63.5538903  62.0346993  12.7781673  63.2688903
  61.5196993  12.2301673  63.4908903  61.4266993  11.7231673  59.7348903
  61.7576993  11.0791673  60.2208903  61.6666993  11.5121673  58.9238903
  61.5106993  11.5971673  59.6868903  63.3946993   5.8541673  71.0738903
  62.5466993   5.7551673  70.8958903  63.4236993   6.5991673  71.5278903
  63.2736993   5.9501673  71.1148903  65.4146993   3.4551673  54.7018903
  64.9646993   4.1361673  55.0088903  65.5286993   2.9511673  55.4048903
  65.3656993   3.4811673  54.8508903  53.6206993   5.9541673  63.9038903
  53.3646993   6.7851673  63.8288903  52.9566993   5.5711673  64.3208903
  53.4846993   6.0201673  63.9548903  53.5306993  15.6641673  61.8038903
  52.9386993  16.2221673  61.4908903  53.9566993  15.3951673  61.0918903
  53.5066993  15.7061673  61.6528903  59.3706993  13.5081673  59.2838903
  58.7916993  13.2331673  59.8758903  59.9946993  12.8991673  59.3088903
  59.3776993  13.3781673  59.3748903  63.6816993  16.1881673  58.7958903
  63.8956993  16.7151673  59.4578903  64.4486993  16.0141673  58.4168903
  63.8266993  16.2401673  58.8378903  59.9556993   2.9041673  73.6928903
  60.0726993   2.4501673  72.9568903  60.2436993   3.7021673  73.4898903
  60.0156993   2.9551673  73.5538903  55.0756993  14.3341673  59.7348903
  55.7316993  13.7591673  59.7498903  55.4646993  15.0831673  59.5138903
  55.2306993  14.3591673  59.7048903  55.6886993   2.5011673  72.6768903
  54.9106993   2.1111673  72.6048903  56.1796993   2.0891673  72.0858903
  55.6456993   2.3821673  72.5788903  55.8936993  12.8211673  63.2348903
  56.3166993  12.4651673  62.5608903  56.2176993  12.3991673  63.9268903
  56.0036993  12.7061673  63.2378903  59.1246993  15.6731673  62.5308903
  59.9686993  15.7771673  62.3358903  58.8276993  16.4911673  62.5988903
  59.2056993  15.8091673  62.5118903  62.9316993   5.0701673  60.6178903
  63.2186993   4.8381673  59.8278903  63.6636993   5.1491673  61.0868903
  63.0816993   5.0471673  60.5708903  63.6536993   5.4091673  55.7388903
  63.9346993   6.1971673  55.9878903  62.8776993   5.5741673  55.3758903
  63.5806993   5.5501673  55.7218903  58.1226993  16.8921673  68.2708903
  58.4146993  16.8251673  69.0908903  57.4966993  16.2871673  68.2258903
  58.0736993  16.7931673  68.3858903  53.0366993   3.0491673  70.2628903
  53.0326993   3.6361673  70.9088903  53.6306993   3.3611673  69.7058903
  53.1236993   3.1821673  70.2758903  62.5126993  13.5801673  55.5548903
  62.3316993  14.1251673  56.2118903  63.2786993  13.8701673  55.2538903
  62.5986993  13.7041673  55.6078903  53.9736993   2.6441673  59.1778903
  53.8596993   1.7801673  59.2088903  53.4986993   2.9381673  59.8478903
  53.8866993   2.5601673  59.2808903  56.1156993  15.0541673  67.3928903
  55.4176993  14.5461673  67.5188903  56.3756993  14.8491673  66.5848903
  56.0506993  14.9491673  67.2918903  63.2776993   3.8521673  57.9228903
  62.7696993   3.1901673  57.6688903  63.3296993   4.3561673  57.2128903
  63.2106993   3.8291673  57.7808903  63.8266993  16.5471673  68.3028903
  64.5946993  16.4671673  67.8968903  63.2436993  16.4261673  67.6648903
  63.8536993  16.5171673  68.1488903  61.8756993   3.1601673  62.3358903
  61.9496993   3.7281673  61.6778903  61.9966993   3.6521673  63.0458903
  61.9036993   3.3171673  62.3438903  57.4766993  13.9051673  69.9598903
  58.3176993  13.9681673  69.7378903  57.4396993  14.3021673  70.7358903
  57.5956993  13.9731673  70.0418903  59.4396993   9.4161673  64.7088903
  59.6116993   9.2061673  65.5378903  58.7846993   8.8821673  64.4928903
  59.3686993   9.3061673  64.7998903  65.6676993   3.3301673  68.2238903
  65.5726993   3.6491673  69.0298903  65.0746993   2.6911673  68.1858903
  65.5656993   3.2821673  68.3378903  60.1896993   9.3541673  67.2988903
  60.2426993  10.2011673  67.5008903  59.9046993   8.9841673  68.0358903
  60.1556993   9.4241673  67.4368903  53.0106993  13.7251673  73.5098903
  53.7666993  14.0741673  73.7678903  53.1876993  12.8721673  73.4528903
  53.1486993  13.6501673  73.5398903  56.9316993   2.7931673  62.3378903
  57.2036993   2.3631673  61.6298903  56.7556993   2.1571673  62.9088903
  56.9456993   2.6361673  62.3178903  56.7556993  10.2201673  61.8868903
  57.6066993  10.1401673  61.7138903  56.3986993   9.5381673  61.4748903
  56.8286993  10.1071673  61.7998903  55.5226993  16.9451673  63.1238903
  54.8496993  16.4471673  62.8788903  55.9256993  17.1301673  62.3728903
  55.4826993  16.8991673  62.9768903  55.0726993   3.8951673  65.4198903
  55.9156993   4.1151673  65.3768903  54.6836993   4.4681673  64.8888903
  55.1396993   4.0121673  65.3348903  59.1236993  10.2271673  60.1218903
  59.8366993  10.7221673  60.2118903  59.3456993   9.6601673  59.4958903
  59.2616993  10.2161673  60.0428903  53.2796993  11.8701673  63.4418903
  52.6126993  12.3581673  63.7178903  53.9596993  12.4151673  63.4708903
  53.2816993  12.0221673  63.4868903  60.9266993   5.5801673  73.5378903
  60.4426993   6.1571673  73.9798903  60.8986993   5.8751673  72.7168903
  60.8506993   5.7091673  73.4818903  53.3456993   8.5541673  58.5448903
  53.1606993   7.7151673  58.6968903  54.0046993   8.5181673  57.9748903
  53.4156993   8.4251673  58.4828903  63.6466993  13.9301673  62.4488903
  63.1236993  14.5641673  62.1558903  63.9566993  13.5661673  61.7198903
  63.6146993  13.9701673  62.2978903  53.5176993  12.7181673  58.1198903
  54.0696993  13.2871673  58.4838903  53.2856993  12.2031673  58.7848903
  53.5646993  12.7261673  58.2718903  57.7216993  11.7181673  65.2088903
  58.1886993  12.0071673  65.8868903  58.2936993  11.2401673  64.7548903
  57.8756993  11.6901673  65.2418903  53.3476993  11.1671673  55.7478903
  54.1036993  10.7351673  55.8058903  53.3626993  11.6991673  56.4388903
  53.4616993  11.1821673  55.8588903  54.2876993   9.3881673  63.7528903
  54.7186993   9.2591673  63.0058903  54.0826993  10.2361673  63.7268903
  54.3206993   9.4941673  63.6388903  60.6336993   2.9521673  57.4028903
  60.6316993   2.8351673  56.5378903  60.4526993   3.8001673  57.4948903
  60.6066993   3.0601673  57.2888903  58.3716993  12.9041673  62.0348903
  58.4976993  13.7471673  62.2218903  59.0396993  12.5051673  62.4308903
  58.4896993  12.9701673  62.1208903  56.5016993   6.3871673  71.8968903
  55.9656993   5.8811673  72.3648903  56.5216993   5.9971673  71.1168903
  56.4246993   6.2541673  71.8508903  56.9866993   5.7841673  57.0368903
  56.8586993   5.3361673  57.7748903  56.4046993   5.4421673  56.4848903
  56.8816993   5.6671673  57.0648903  57.1536993   7.6141673  63.6358903
  56.3726993   7.5551673  63.2528903  57.2256993   6.8621673  64.0728903
  57.0486993   7.4951673  63.6438903  57.5836993   7.3511673  67.1038903
  57.6086993   6.6761673  66.5528903  56.9376993   7.8471673  66.7918903
  57.4926993   7.3241673  66.9768903  61.6836993  16.1281673  66.4958903
  61.4066993  15.4871673  65.9728903  61.4756993  16.8541673  66.0578903
  61.6126993  16.1411673  66.3538903  55.3826993   8.7061673  72.6628903
  55.3456993   9.2071673  71.9488903  55.7136993   7.9541673  72.3678903
  55.4256993   8.6681673  72.5138903  61.2816993  13.7561673  72.0978903
  61.6356993  13.5781673  72.8748903  60.8456993  13.0271673  71.8988903
  61.2696993  13.6221673  72.1838903  62.2536993   4.5031673  64.7358903
  62.7336993   5.2021673  64.9438903  62.6266993   3.8561673  65.1868903
  62.3796993   4.5111673  64.8328903  64.4426993   7.6721673  57.0098903
  64.4346993   8.3941673  56.5198903  63.8036993   7.8071673  57.5868903
  64.3476993   7.7991673  57.0228903  65.4596993  14.6081673  64.8348903
  64.8566993  14.3121673  64.2778903  66.0046993  15.0601673  64.3258903
  65.4506993  14.6311673  64.6768903  65.4726993  11.4591673  64.2348903
  64.6756993  11.6831673  64.5088903  65.7306993  10.8651673  64.8198903
  65.3926993  11.4041673  64.3618903  59.3646993  16.2711673  58.6828903
  59.2176993  15.4951673  59.0538903  60.0536993  16.1241673  58.1678903
  59.4446993  16.1341673  58.6618903  61.6566993  15.7871673  57.0848903
  62.2786993  15.9501673  57.6748903  61.6926993  16.4781673  56.5528903
  61.7536993  15.9131673  57.0938903  64.9236993  14.8061673  73.3578903
  65.0876993  15.0891673  74.1668903  65.1866993  15.4671673  72.8528903
  64.9866993  14.9461673  73.4028903  56.1576993   8.3211673  57.9138903
  56.4816993   7.5421673  57.6918903  56.8036993   8.6891673  58.3688903
  56.3006993   8.2601673  57.9478903  64.4636993   9.2631673  68.6808903
  64.3086993   9.8731673  69.2848903  64.9976993   8.7051673  69.0868903
  64.5196993   9.2711673  68.8298903  62.8476993   7.6631673  59.3388903
  62.9066993   8.3131673  59.9178903  62.6586993   6.9671673  59.8298903
  62.8286993   7.6561673  59.4968903  57.3436993   2.1801673  55.8508903
  56.8326993   2.2331673  55.1448903  58.1276993   2.4201673  55.5548903
  57.3836993   2.2231673  55.7028903  62.0706993   9.7101673  63.7698903
  61.2236993   9.5161673  63.8508903  62.3946993   9.5451673  64.5628903
  61.9926993   9.6571673  63.8988903  58.8226993  16.4401673  54.6558903
  59.2616993  15.7431673  54.9438903  59.0296993  17.0641673  55.2288903
  58.9186993  16.4291673  54.7828903  55.9186993   9.4031673  66.0858903
  56.6406993   9.8911673  66.0488903  55.6486993   9.3731673  65.2568903
  55.9856993   9.4711673  65.9578903  59.1486993   4.5741673  62.8208903
  59.9946993   4.3841673  62.9188903  58.7786993   3.7971673  62.6828903
  59.2186993   4.4311673  62.8148903  53.9696993   5.9121673  59.4758903
  54.4586993   5.6201673  60.1368903  54.0986993   5.3191673  58.8488903
  54.0606993   5.7811673  59.4808903  58.4946993   7.3461673  54.9618903
  57.8846993   6.9411673  55.4358903  58.1086993   7.4641673  54.1888903
  58.3476993   7.3031673  54.9178903  55.3136993  10.4551673  70.3638903
  54.8926993   9.9371673  69.8028903  54.9616993  11.2411673  70.2208903
  55.1996993  10.4951673  70.2598903  59.9496993   5.8071673  57.6718903
  60.2216993   6.6331673  57.7388903  59.0866993   5.8821673  57.5758903
  59.8626993   5.9401673  57.6668903  53.4296993   1.7771673  64.2078903
  53.4736993   2.1211673  63.4068903  54.1846993   2.0141673  64.5748903
  53.5476993   1.8631673  64.1438903  65.3706993  11.1161673  55.6778903
  66.0546993  10.6021673  55.5088903  64.9536993  11.1621673  54.9128903
  65.4096993  11.0471673  55.5398903  60.0526993  12.2661673  66.9818903
  59.7546993  12.8581673  67.5488903  60.1076993  12.7081673  66.2328903
  60.0166993  12.4191673  66.9548903  58.0316993  11.2161673  70.3798903
  57.2256993  10.9261673  70.5468903  57.9426993  12.0841673  70.3858903
  57.8996993  11.3011673  70.4048903  62.5686993   8.6891673  66.4728903
  63.0446993   9.0631673  67.1008903  61.7456993   8.8231673  66.7318903
  62.5176993   8.7641673  66.6038903  59.2786993   4.2921673  69.2138903
  59.4396993   3.5481673  69.6408903  59.2336993   4.0431673  68.3788903
  59.2956993   4.1451673  69.1538903  61.8326993  16.0821673  61.7008903
  62.3786993  16.7611673  61.7548903  61.4826993  16.1641673  60.9058903
  61.8616993  16.1951673  61.5908903  60.0156993  14.3101673  65.0898903
  59.3916993  14.8921673  64.9078903  60.2636993  14.0241673  64.3038903
  59.9596993  14.3541673  64.9468903  64.3246993  10.9441673  72.0788903
  65.0816993  11.2301673  71.7528903  63.7776993  10.9961673  71.4008903
  64.3556993  10.9941673  71.9298903  61.6096993   9.0861673  55.0048903
  60.8046993   8.9091673  54.7198903  61.5766993   9.9371673  55.1968903
  61.4856993   9.1851673  54.9918903  57.5396993   5.1531673  65.1548903
  57.9796993   5.0501673  64.4088903  58.0846993   4.8401673  65.7598903
  57.6846993   5.0921673  65.1338903  65.5556993   4.2551673  70.7468903
  64.9076993   4.7251673  71.0948903  66.1206993   4.1661673  71.4058903
  65.5436993   4.3111673  70.8958903  65.2436993   5.7921673  67.0448903
  65.5456993   6.2121673  67.7478903  65.2796993   4.9521673  67.2768903
  65.2936993   5.7301673  67.1828903  62.6686993  15.9591673  70.9698903
  63.1466993  15.3591673  70.5538903  62.3176993  15.5161673  71.6348903
  62.6876993  15.8051673  71.0068903  62.7276993  11.1781673  69.9898903
  61.9326993  11.1141673  70.3408903  62.7986993  12.0251673  69.7948903
  62.6206993  11.2931673  70.0128903  58.5576993  17.3851673  65.3068903
  58.5686993  17.4441673  66.1768903  58.1326993  16.6381673  65.1568903
  58.4966993  17.2831673  65.4128903  56.7156993   3.2801673  58.4618903
  56.8416993   2.9511673  57.6638903  55.9036993   3.0311673  58.6608903
  56.6146993   3.1951673  58.3738903  65.4726993  10.4331673  61.5058903
  65.5486993  10.7741673  62.3048903  65.6416993   9.5861673  61.6268903
  65.5086993  10.3581673  61.6418903  62.9946993   9.7071673  61.0708903
  62.6966993   9.3921673  61.8278903  63.6896993  10.1801673  61.3058903
  63.0536993   9.7301673  61.2178903  63.2166993  13.8251673  69.0978903
  63.9036993  13.7111673  69.6228903  63.3506993  14.6161673  68.7538903
  63.3376993  13.9251673  69.1248903  55.3216993  16.8831673  70.7488903
  54.6676993  16.3141673  70.8468903  54.9466993  17.6561673  70.8998903
  55.1696993  16.9131673  70.7858903  63.8396993   8.2891673  72.6718903
  64.1626993   8.9751673  72.2398903  63.1356993   8.6121673  73.0738903
  63.7826993   8.4381673  72.6668903  63.6246993  11.7531673  66.5308903
  62.9306993  12.1551673  66.8738903  64.3016993  12.1861673  66.8698903
  63.6216993  11.8761673  66.6318903  56.6926993   5.2911673  68.8778903
  57.0676993   5.9101673  68.3908903  57.3666993   4.8171673  69.1628903
  56.8476993   5.3131673  68.8478903  54.4676993   3.7391673  68.1528903
  54.5446993   3.5701673  67.2998903  55.2136993   4.1451673  68.3498903
  54.5886993   3.7741673  68.0558903  63.9466993  13.3441673  59.6998903
  63.7416993  14.1771673  59.5408903  63.1716993  12.9621673  59.8218903
  63.8016993  13.4111673  59.6948903  53.8646993   8.9651673  68.3768903
  54.1846993   9.1841673  67.5958903  53.7646993   8.1001673  68.3218903
  53.8966993   8.8701673  68.2538903  55.3206993   4.9011673  54.9948903
  54.6486993   4.9151673  55.5508903  55.4156993   4.0531673  54.8108903
  55.2356993   4.7781673  55.0498903  59.3086993  13.6061673  56.1088903
  59.7496993  13.6861673  56.8568903  58.5036993  13.3901673  56.3668903
  59.2546993  13.5861673  56.2578903  58.6276993   8.2571673  69.7618903
  58.2316993   9.0311673  69.8368903  58.2216993   7.8841673  69.0858903
  58.5096993   8.3161673  69.6728903  56.6376993  12.6761673  56.7098903
  56.3936993  12.3691673  57.4898903  56.6046993  11.9731673  56.1938903
  56.5966993  12.5271673  56.7488903  59.4566993  10.9211673  55.4528903
  58.6386993  10.6531673  55.5928903  59.4286993  11.7731673  55.6378903
  59.3316993  11.0081673  55.5008903  65.8916993  12.8301673  67.3738903
  66.0976993  13.1311673  68.1658903  65.8306993  13.5521673  66.8888903
  65.9126993  12.9811673  67.4188903  65.4256993  17.0441673  71.6198903
  64.6726993  17.0261673  71.1788903  65.5936993  17.8961673  71.7038903
  65.3396993  17.1671673  71.5668903  60.6626993   6.3111673  70.7898903
  60.3406993   5.7351673  70.2198903  60.3036993   7.0661673  70.5438903
  60.5626993   6.3371673  70.6698903  59.0976993  16.6671673  71.0378903
  59.1386993  16.7931673  71.9008903  59.7486993  16.1071673  70.8818903
  59.1996993  16.6031673  71.1428903  56.6906993  15.0501673  72.3978903
  57.2856993  15.4811673  72.8698903  56.3266993  15.6741673  71.9088903
  56.7246993  15.2061673  72.3948903  64.6816993   5.9811673  62.3298903
  65.2326993   5.3741673  62.6298903  64.2566993   6.2441673  63.0448903
  64.7006993   5.9301673  62.4788903  54.9296993   4.6311673  61.8158903
  54.5616993   4.9331673  62.5468903  55.4636993   4.0021673  62.0998903
  54.9536993   4.5831673  61.9658903  54.6176993  13.0391673  69.3268903
  54.0436993  13.4551673  69.8358903  55.3506993  13.5041673  69.4218903
  54.6416993  13.1691673  69.4158903  56.4036993  16.3061673  58.1018903
  56.2586993  16.4621673  57.2558903  57.2696993  16.3851673  58.1798903
  56.5106993  16.3411673  57.9888903  60.5706993   8.7031673  57.8298903
  60.6706993   8.8421673  56.9748903  61.3886993   8.6431673  58.1258903
  60.7056993   8.7141673  57.7468903  65.8056993  13.0321673  57.6318903
  65.5546993  12.9041673  58.4578903  65.4886993  12.3371673  57.2108903
  65.7216993  12.9111673  57.6918903  57.0906993  15.1211673  64.5788903
  57.0116993  14.3111673  64.2628903  56.6466993  15.6081673  64.0068903
  57.0136993  15.0731673  64.4478903  62.6916993  11.2401673  57.0618903
  63.4086993  10.8931673  56.7058903  62.6576993  12.0401673  56.7138903
  62.7926993  11.3071673  56.9578903  54.6626993  17.3651673  68.1598903
  55.1556993  17.3091673  68.8778903  54.8506993  16.6321673  67.7248903
  54.7636993  17.2481673  68.2018903  63.9096993   6.7971673  45.9716493
  63.3856993   7.3931673  46.3346493  64.3066993   6.4291673  46.6556493
  63.8906993   6.8311673  46.1266493  53.7786993  10.9371673  41.4276493
  53.3376993  11.0551673  42.1706493  53.4956993  10.1621673  41.1426493
  53.6716993  10.8401673  41.4956493  53.5216993   4.7291673  37.9346493
  52.7436993   4.8911673  37.5746493  53.5606993   3.8581673  37.9566493
  53.4126993   4.6241673  37.8846493  56.6606993   9.9921673  36.6066493
  56.2686993   9.6211673  35.9206493  56.5806993   9.3941673  37.2356493
  56.5906993   9.8491673  36.5976493  56.2876993  11.6331673  40.5066493
  56.8956993  11.4631673  41.1096493  55.5366993  11.4931673  40.9276493
  56.2666993  11.5871673  40.6576493  55.1786993  14.7241673  36.5836493
  55.6456993  14.8081673  35.8516493  55.6336993  14.1461673  37.0526493
  55.3146993  14.6511673  36.5446493  53.7186993  13.6721673  47.6826493
  53.8476993  13.3921673  48.4986493  53.1086993  13.1311673  47.3736493
  53.6476993  13.5511673  47.7576493  60.2926993  11.1971673  52.7496493
  60.0566993  11.1941673  53.5896493  59.5446993  11.0491673  52.3256493
  60.1466993  11.1741673  52.8106493  55.1646993   8.1931673  41.8846493
  54.7026993   7.8011673  41.2576493  55.8646993   7.6801673  41.9766493
  55.1996993   8.0601673  41.8056493  59.6726993   3.8031673  47.2316493
  60.3506993   3.8211673  46.6826493  59.6276993   2.9671673  47.4766493
  59.7656993   3.6821673  47.1866493  60.2746993  14.3891673  50.0126493
  60.4126993  15.1491673  49.6056493  61.0656993  14.0241673  50.0396493
  60.4116993  14.4481673  49.9566493  57.1656993   6.2931673  41.9076493
  57.9826993   6.1061673  42.1506493  56.6886993   5.6791673  42.3036493
  57.2156993   6.1751673  42.0026493  61.3696993  12.2741673  44.5176493
  61.7176993  11.4751673  44.5476493  62.0346993  12.7781673  44.2626493
  61.5196993  12.2301673  44.4846493  61.4266993  11.7231673  40.7286493
  61.7576993  11.0791673  41.2146493  61.6666993  11.5121673  39.9176493
  61.5106993  11.5971673  40.6806493  63.3946993   5.8541673  52.0676493
  62.5466993   5.7551673  51.8896493  63.4236993   6.5991673  52.5216493
  63.2736993   5.9501673  52.1086493  65.4146993   3.4551673  35.6956493
  64.9646993   4.1361673  36.0026493  65.5286993   2.9511673  36.3986493
  65.3656993   3.4811673  35.8446493  53.6206993   5.9541673  44.8976493
  53.3646993   6.7851673  44.8226493  52.9566993   5.5711673  45.3146493
  53.4846993   6.0201673  44.9486493  53.5306993  15.6641673  42.7976493
  52.9386993  16.2221673  42.4846493  53.9566993  15.3951673  42.0856493
  53.5066993  15.7061673  42.6466493  59.3706993  13.5081673  40.2776493
  58.7916993  13.2331673  40.8696493  59.9946993  12.8991673  40.3026493
  59.3776993  13.3781673  40.3686493  63.6816993  16.1881673  39.7896493
  63.8956993  16.7151673  40.4516493  64.4486993  16.0141673  39.4106493
  63.8266993  16.2401673  39.8316493  59.9556993   2.9041673  54.6866493
  60.0726993   2.4501673  53.9506493  60.2436993   3.7021673  54.4836493
  60.0156993   2.9551673  54.5476493  55.0756993  14.3341673  40.7286493
  55.7316993  13.7591673  40.7436493  55.4646993  15.0831673  40.5076493
  55.2306993  14.3591673  40.6986493  55.6886993   2.5011673  53.6706493
  54.9106993   2.1111673  53.5986493  56.1796993   2.0891673  53.0796493
  55.6456993   2.3821673  53.5726493  55.8936993  12.8211673  44.2286493
  56.3166993  12.4651673  43.5546493  56.2176993  12.3991673  44.9206493
  56.0036993  12.7061673  44.2316493  59.1246993  15.6731673  43.5246493
  59.9686993  15.7771673  43.3296493  58.8276993  16.4911673  43.5926493
  59.2056993  15.8091673  43.5056493  62.9316993   5.0701673  41.6116493
  63.2186993   4.8381673  40.8216493  63.6636993   5.1491673  42.0806493
  63.0816993   5.0471673  41.5646493  63.6536993   5.4091673  36.7326493
  63.9346993   6.1971673  36.9816493  62.8776993   5.5741673  36.3696493
  63.5806993   5.5501673  36.7156493  58.1226993  16.8921673  49.2646493
  58.4146993  16.8251673  50.0846493  57.4966993  16.2871673  49.2196493
  58.0736993  16.7931673  49.3796493  53.0366993   3.0491673  51.2566493
  53.0326993   3.6361673  51.9026493  53.6306993   3.3611673  50.6996493
  53.1236993   3.1821673  51.2696493  62.5126993  13.5801673  36.5486493
  62.3316993  14.1251673  37.2056493  63.2786993  13.8701673  36.2476493
  62.5986993  13.7041673  36.6016493  53.9736993   2.6441673  40.1716493
  53.8596993   1.7801673  40.2026493  53.4986993   2.9381673  40.8416493
  53.8866993   2.5601673  40.2746493  56.1156993  15.0541673  48.3866493
  55.4176993  14.5461673  48.5126493  56.3756993  14.8491673  47.5786493
  56.0506993  14.9491673  48.2856493  63.2776993   3.8521673  38.9166493
  62.7696993   3.1901673  38.6626493  63.3296993   4.3561673  38.2066493
  63.2106993   3.8291673  38.7746493  63.8266993  16.5471673  49.2966493
  64.5946993  16.4671673  48.8906493  63.2436993  16.4261673  48.6586493
  63.8536993  16.5171673  49.1426493  61.8756993   3.1601673  43.3296493
  61.9496993   3.7281673  42.6716493  61.9966993   3.6521673  44.0396493
  61.9036993   3.3171673  43.3376493  57.4766993  13.9051673  50.9536493
  58.3176993  13.9681673  50.7316493  57.4396993  14.3021673  51.7296493
  57.5956993  13.9731673  51.0356493  59.4396993   9.4161673  45.7026493
  59.6116993   9.2061673  46.5316493  58.7846993   8.8821673  45.4866493
  59.3686993   9.3061673  45.7936493  65.6676993   3.3301673  49.2176493
  65.5726993   3.6491673  50.0236493  65.0746993   2.6911673  49.1796493
  65.5656993   3.2821673  49.3316493  60.1896993   9.3541673  48.2926493
  60.2426993  10.2011673  48.4946493  59.9046993   8.9841673  49.0296493
  60.1556993   9.4241673  48.4306493  53.0106993  13.7251673  54.5036493
  53.7666993  14.0741673  54.7616493  53.1876993  12.8721673  54.4466493
  53.1486993  13.6501673  54.5336493  56.9316993   2.7931673  43.3316493
  57.2036993   2.3631673  42.6236493  56.7556993   2.1571673  43.9026493
  56.9456993   2.6361673  43.3116493  56.7556993  10.2201673  42.8806493
  57.6066993  10.1401673  42.7076493  56.3986993   9.5381673  42.4686493
  56.8286993  10.1071673  42.7936493  55.5226993  16.9451673  44.1176493
  54.8496993  16.4471673  43.8726493  55.9256993  17.1301673  43.3666493
  55.4826993  16.8991673  43.9706493  55.0726993   3.8951673  46.4136493
  55.9156993   4.1151673  46.3706493  54.6836993   4.4681673  45.8826493
  55.1396993   4.0121673  46.3286493  59.1236993  10.2271673  41.1156493
  59.8366993  10.7221673  41.2056493  59.3456993   9.6601673  40.4896493
  59.2616993  10.2161673  41.0366493  53.2796993  11.8701673  44.4356493
  52.6126993  12.3581673  44.7116493  53.9596993  12.4151673  44.4646493
  53.2816993  12.0221673  44.4806493  60.9266993   5.5801673  54.5316493
  60.4426993   6.1571673  54.9736493  60.8986993   5.8751673  53.7106493
  60.8506993   5.7091673  54.4756493  53.3456993   8.5541673  39.5386493
  53.1606993   7.7151673  39.6906493  54.0046993   8.5181673  38.9686493
  53.4156993   8.4251673  39.4766493  63.6466993  13.9301673  43.4426493
  63.1236993  14.5641673  43.1496493  63.9566993  13.5661673  42.7136493
  63.6146993  13.9701673  43.2916493  53.5176993  12.7181673  39.1136493
  54.0696993  13.2871673  39.4776493  53.2856993  12.2031673  39.7786493
  53.5646993  12.7261673  39.2656493  57.7216993  11.7181673  46.2026493
  58.1886993  12.0071673  46.8806493  58.2936993  11.2401673  45.7486493
  57.8756993  11.6901673  46.2356493  53.3476993  11.1671673  36.7416493
  54.1036993  10.7351673  36.7996493  53.3626993  11.6991673  37.4326493
  53.4616993  11.1821673  36.8526493  54.2876993   9.3881673  44.7466493
  54.7186993   9.2591673  43.9996493  54.0826993  10.2361673  44.7206493
  54.3206993   9.4941673  44.6326493  60.6336993   2.9521673  38.3966493
  60.6316993   2.8351673  37.5316493  60.4526993   3.8001673  38.4886493
  60.6066993   3.0601673  38.2826493  58.3716993  12.9041673  43.0286493
  58.4976993  13.7471673  43.2156493  59.0396993  12.5051673  43.4246493
  58.4896993  12.9701673  43.1146493  56.5016993   6.3871673  52.8906493
  55.9656993   5.8811673  53.3586493  56.5216993   5.9971673  52.1106493
  56.4246993   6.2541673  52.8446493  56.9866993   5.7841673  38.0306493
  56.8586993   5.3361673  38.7686493  56.4046993   5.4421673  37.4786493
  56.8816993   5.6671673  38.0586493  57.1536993   7.6141673  44.6296493
  56.3726993   7.5551673  44.2466493  57.2256993   6.8621673  45.0666493
  57.0486993   7.4951673  44.6376493  57.5836993   7.3511673  48.0976493
  57.6086993   6.6761673  47.5466493  56.9376993   7.8471673  47.7856493
  57.4926993   7.3241673  47.9706493  61.6836993  16.1281673  47.4896493
  61.4066993  15.4871673  46.9666493  61.4756993  16.8541673  47.0516493
  61.6126993  16.1411673  47.3476493  55.3826993   8.7061673  53.6566493
  55.3456993   9.2071673  52.9426493  55.7136993   7.9541673  53.3616493
  55.4256993   8.6681673  53.5076493  61.2816993  13.7561673  53.0916493
  61.6356993  13.5781673  53.8686493  60.8456993  13.0271673  52.8926493
  61.2696993  13.6221673  53.1776493  62.2536993   4.5031673  45.7296493
  62.7336993   5.2021673  45.9376493  62.6266993   3.8561673  46.1806493
  62.3796993   4.5111673  45.8266493  64.4426993   7.6721673  38.0036493
  64.4346993   8.3941673  37.5136493  63.8036993   7.8071673  38.5806493
  64.3476993   7.7991673  38.0166493  65.4596993  14.6081673  45.8286493
  64.8566993  14.3121673  45.2716493  66.0046993  15.0601673  45.3196493
  65.4506993  14.6311673  45.6706493  65.4726993  11.4591673  45.2286493
  64.6756993  11.6831673  45.5026493  65.7306993  10.8651673  45.8136493
  65.3926993  11.4041673  45.3556493  59.3646993  16.2711673  39.6766493
  59.2176993  15.4951673  40.0476493  60.0536993  16.1241673  39.1616493
  59.4446993  16.1341673  39.6556493  61.6566993  15.7871673  38.0786493
  62.2786993  15.9501673  38.6686493  61.6926993  16.4781673  37.5466493
  61.7536993  15.9131673  38.0876493  64.9236993  14.8061673  54.3516493
  65.0876993  15.0891673  55.1606493  65.1866993  15.4671673  53.8466493
  64.9866993  14.9461673  54.3966493  56.1576993   8.3211673  38.9076493
  56.4816993   7.5421673  38.6856493  56.8036993   8.6891673  39.3626493
  56.3006993   8.2601673  38.9416493  64.4636993   9.2631673  49.6746493
  64.3086993   9.8731673  50.2786493  64.9976993   8.7051673  50.0806493
  64.5196993   9.2711673  49.8236493  62.8476993   7.6631673  40.3326493
  62.9066993   8.3131673  40.9116493  62.6586993   6.9671673  40.8236493
  62.8286993   7.6561673  40.4906493  57.3436993   2.1801673  36.8446493
  56.8326993   2.2331673  36.1386493  58.1276993   2.4201673  36.5486493
  57.3836993   2.2231673  36.6966493  62.0706993   9.7101673  44.7636493
  61.2236993   9.5161673  44.8446493  62.3946993   9.5451673  45.5566493
  61.9926993   9.6571673  44.8926493  58.8226993  16.4401673  35.6496493
  59.2616993  15.7431673  35.9376493  59.0296993  17.0641673  36.2226493
  58.9186993  16.4291673  35.7766493  55.9186993   9.4031673  47.0796493
  56.6406993   9.8911673  47.0426493  55.6486993   9.3731673  46.2506493
  55.9856993   9.4711673  46.9516493  59.1486993   4.5741673  43.8146493
  59.9946993   4.3841673  43.9126493  58.7786993   3.7971673  43.6766493
  59.2186993   4.4311673  43.8086493  53.9696993   5.9121673  40.4696493
  54.4586993   5.6201673  41.1306493  54.0986993   5.3191673  39.8426493
  54.0606993   5.7811673  40.4746493  58.4946993   7.3461673  35.9556493
  57.8846993   6.9411673  36.4296493  58.1086993   7.4641673  35.1826493
  58.3476993   7.3031673  35.9116493  55.3136993  10.4551673  51.3576493
  54.8926993   9.9371673  50.7966493  54.9616993  11.2411673  51.2146493
  55.1996993  10.4951673  51.2536493  59.9496993   5.8071673  38.6656493
  60.2216993   6.6331673  38.7326493  59.0866993   5.8821673  38.5696493
  59.8626993   5.9401673  38.6606493  53.4296993   1.7771673  45.2016493
  53.4736993   2.1211673  44.4006493  54.1846993   2.0141673  45.5686493
  53.5476993   1.8631673  45.1376493  65.3706993  11.1161673  36.6716493
  66.0546993  10.6021673  36.5026493  64.9536993  11.1621673  35.9066493
  65.4096993  11.0471673  36.5336493  60.0526993  12.2661673  47.9756493
  59.7546993  12.8581673  48.5426493  60.1076993  12.7081673  47.2266493
  60.0166993  12.4191673  47.9486493  58.0316993  11.2161673  51.3736493
  57.2256993  10.9261673  51.5406493  57.9426993  12.0841673  51.3796493
  57.8996993  11.3011673  51.3986493  62.5686993   8.6891673  47.4666493
  63.0446993   9.0631673  48.0946493  61.7456993   8.8231673  47.7256493
  62.5176993   8.7641673  47.5976493  59.2786993   4.2921673  50.2076493
  59.4396993   3.5481673  50.6346493  59.2336993   4.0431673  49.3726493
  59.2956993   4.1451673  50.1476493  61.8326993  16.0821673  42.6946493
  62.3786993  16.7611673  42.7486493  61.4826993  16.1641673  41.8996493
  61.8616993  16.1951673  42.5846493  60.0156993  14.3101673  46.0836493
  59.3916993  14.8921673  45.9016493  60.2636993  14.0241673  45.2976493
  59.9596993  14.3541673  45.9406493  64.3246993  10.9441673  53.0726493
  65.0816993  11.2301673  52.7466493  63.7776993  10.9961673  52.3946493
  64.3556993  10.9941673  52.9236493  61.6096993   9.0861673  35.9986493
  60.8046993   8.9091673  35.7136493  61.5766993   9.9371673  36.1906493
  61.4856993   9.1851673  35.9856493  57.5396993   5.1531673  46.1486493
  57.9796993   5.0501673  45.4026493  58.0846993   4.8401673  46.7536493
  57.6846993   5.0921673  46.1276493  65.5556993   4.2551673  51.7406493
  64.9076993   4.7251673  52.0886493  66.1206993   4.1661673  52.3996493
  65.5436993   4.3111673  51.8896493  65.2436993   5.7921673  48.0386493
  65.5456993   6.2121673  48.7416493  65.2796993   4.9521673  48.2706493
  65.2936993   5.7301673  48.1766493  62.6686993  15.9591673  51.9636493
  63.1466993  15.3591673  51.5476493  62.3176993  15.5161673  52.6286493
  62.6876993  15.8051673  52.0006493  62.7276993  11.1781673  50.9836493
  61.9326993  11.1141673  51.3346493  62.7986993  12.0251673  50.7886493
  62.6206993  11.2931673  51.0066493  58.5576993  17.3851673  46.3006493
  58.5686993  17.4441673  47.1706493  58.1326993  16.6381673  46.1506493
  58.4966993  17.2831673  46.4066493  56.7156993   3.2801673  39.4556493
  56.8416993   2.9511673  38.6576493  55.9036993   3.0311673  39.6546493
  56.6146993   3.1951673  39.3676493  65.4726993  10.4331673  42.4996493
  65.5486993  10.7741673  43.2986493  65.6416993   9.5861673  42.6206493
  65.5086993  10.3581673  42.6356493  62.9946993   9.7071673  42.0646493
  62.6966993   9.3921673  42.8216493  63.6896993  10.1801673  42.2996493
  63.0536993   9.7301673  42.2116493  63.2166993  13.8251673  50.0916493
  63.9036993  13.7111673  50.6166493  63.3506993  14.6161673  49.7476493
  63.3376993  13.9251673  50.1186493  55.3216993  16.8831673  51.7426493
  54.6676993  16.3141673  51.8406493  54.9466993  17.6561673  51.8936493
  55.1696993  16.9131673  51.7796493  63.8396993   8.2891673  53.6656493
  64.1626993   8.9751673  53.2336493  63.1356993   8.6121673  54.0676493
  63.7826993   8.4381673  53.6606493  63.6246993  11.7531673  47.5246493
  62.9306993  12.1551673  47.8676493  64.3016993  12.1861673  47.8636493
  63.6216993  11.8761673  47.6256493  56.6926993   5.2911673  49.8716493
  57.0676993   5.9101673  49.3846493  57.3666993   4.8171673  50.1566493
  56.8476993   5.3131673  49.8416493  54.4676993   3.7391673  49.1466493
  54.5446993   3.5701673  48.2936493  55.2136993   4.1451673  49.3436493
  54.5886993   3.7741673  49.0496493  63.9466993  13.3441673  40.6936493
  63.7416993  14.1771673  40.5346493  63.1716993  12.9621673  40.8156493
  63.8016993  13.4111673  40.6886493  53.8646993   8.9651673  49.3706493
  54.1846993   9.1841673  48.5896493  53.7646993   8.1001673  49.3156493
  53.8966993   8.8701673  49.2476493  55.3206993   4.9011673  35.9886493
  54.6486993   4.9151673  36.5446493  55.4156993   4.0531673  35.8046493
  55.2356993   4.7781673  36.0436493  59.3086993  13.6061673  37.1026493
  59.7496993  13.6861673  37.8506493  58.5036993  13.3901673  37.3606493
  59.2546993  13.5861673  37.2516493  58.6276993   8.2571673  50.7556493
  58.2316993   9.0311673  50.8306493  58.2216993   7.8841673  50.0796493
  58.5096993   8.3161673  50.6666493  56.6376993  12.6761673  37.7036493
  56.3936993  12.3691673  38.4836493  56.6046993  11.9731673  37.1876493
  56.5966993  12.5271673  37.7426493  59.4566993  10.9211673  36.4466493
  58.6386993  10.6531673  36.5866493  59.4286993  11.7731673  36.6316493
  59.3316993  11.0081673  36.4946493  65.8916993  12.8301673  48.3676493
  66.0976993  13.1311673  49.1596493  65.8306993  13.5521673  47.8826493
  65.9126993  12.9811673  48.4126493  65.4256993  17.0441673  52.6136493
  64.6726993  17.0261673  52.1726493  65.5936993  17.8961673  52.6976493
  65.3396993  17.1671673  52.5606493  60.6626993   6.3111673  51.7836493
  60.3406993   5.7351673  51.2136493  60.3036993   7.0661673  51.5376493
  60.5626993   6.3371673  51.6636493  59.0976993  16.6671673  52.0316493
  59.1386993  16.7931673  52.8946493  59.7486993  16.1071673  51.8756493
  59.1996993  16.6031673  52.1366493  56.6906993  15.0501673  53.3916493
  57.2856993  15.4811673  53.8636493  56.3266993  15.6741673  52.9026493
  56.7246993  15.2061673  53.3886493  64.6816993   5.9811673  43.3236493
  65.2326993   5.3741673  43.6236493  64.2566993   6.2441673  44.0386493
  64.7006993   5.9301673  43.4726493  54.9296993   4.6311673  42.8096493
  54.5616993   4.9331673  43.5406493  55.4636993   4.0021673  43.0936493
  54.9536993   4.5831673  42.9596493  54.6176993  13.0391673  50.3206493
  54.0436993  13.4551673  50.8296493  55.3506993  13.5041673  50.4156493
  54.6416993  13.1691673  50.4096493  56.4036993  16.3061673  39.0956493
  56.2586993  16.4621673  38.2496493  57.2696993  16.3851673  39.1736493
  56.5106993  16.3411673  38.9826493  60.5706993   8.7031673  38.8236493
  60.6706993   8.8421673  37.9686493  61.3886993   8.6431673  39.1196493
  60.7056993   8.7141673  38.7406493  65.8056993  13.0321673  38.6256493
  65.5546993  12.9041673  39.4516493  65.4886993  12.3371673  38.2046493
  65.7216993  12.9111673  38.6856493  57.0906993  15.1211673  45.5726493
  57.0116993  14.3111673  45.2566493  56.6466993  15.6081673  45.0006493
  57.0136993  15.0731673  45.4416493  62.6916993  11.2401673  38.0556493
  63.4086993  10.8931673  37.6996493  62.6576993  12.0401673  37.7076493
  62.7926993  11.3071673  37.9516493  54.6626993  17.3651673  49.1536493
  55.1556993  17.3091673  49.8716493  54.8506993  16.6321673  48.7186493
  54.7636993  17.2481673  49.1956493  63.9096993   6.7971673  26.9654083
  63.3856993   7.3931673  27.3284083  64.3066993   6.4291673  27.6494083
  63.8906993   6.8311673  27.1204083  53.7786993  10.9371673  22.4214083
  53.3376993  11.0551673  23.1644083  53.4956993  10.1621673  22.1364083
  53.6716993  10.8401673  22.4894083  53.5216993   4.7291673  18.9284083
  52.7436993   4.8911673  18.5684083  53.5606993   3.8581673  18.9504083
  53.4126993   4.6241673  18.8784083  56.6606993   9.9921673  17.6004083
  56.2686993   9.6211673  16.9144083  56.5806993   9.3941673  18.2294083
  56.5906993   9.8491673  17.5914083  56.2876993  11.6331673  21.5004083
  56.8956993  11.4631673  22.1034083  55.5366993  11.4931673  21.9214083
  56.2666993  11.5871673  21.6514083  55.1786993  14.7241673  17.5774083
  55.6456993  14.8081673  16.8454083  55.6336993  14.1461673  18.0464083
  55.3146993  14.6511673  17.5384083  53.7186993  13.6721673  28.6764083
  53.8476993  13.3921673  29.4924083  53.1086993  13.1311673  28.3674083
  53.6476993  13.5511673  28.7514083  60.2926993  11.1971673  33.7434083
  60.0566993  11.1941673  34.5834083  59.5446993  11.0491673  33.3194083
  60.1466993  11.1741673  33.8044083  55.1646993   8.1931673  22.8784083
  54.7026993   7.8011673  22.2514083  55.8646993   7.6801673  22.9704083
  55.1996993   8.0601673  22.7994083  59.6726993   3.8031673  28.2254083
  60.3506993   3.8211673  27.6764083  59.6276993   2.9671673  28.4704083
  59.7656993   3.6821673  28.1804083  60.2746993  14.3891673  31.0064083
  60.4126993  15.1491673  30.5994083  61.0656993  14.0241673  31.0334083
  60.4116993  14.4481673  30.9504083  57.1656993   6.2931673  22.9014083
  57.9826993   6.1061673  23.1444083  56.6886993   5.6791673  23.2974083
  57.2156993   6.1751673  22.9964083  61.3696993  12.2741673  25.5114083
  61.7176993  11.4751673  25.5414083  62.0346993  12.7781673  25.2564083
  61.5196993  12.2301673  25.4784083  61.4266993  11.7231673  21.7224083
  61.7576993  11.0791673  22.2084083  61.6666993  11.5121673  20.9114083
  61.5106993  11.5971673  21.6744083  63.3946993   5.8541673  33.0614083
  62.5466993   5.7551673  32.8834083  63.4236993   6.5991673  33.5154083
  63.2736993   5.9501673  33.1024083  65.4146993   3.4551673  16.6894083
  64.9646993   4.1361673  16.9964083  65.5286993   2.9511673  17.3924083
  65.3656993   3.4811673  16.8384083  53.6206993   5.9541673  25.8914083
  53.3646993   6.7851673  25.8164083  52.9566993   5.5711673  26.3084083
  53.4846993   6.0201673  25.9424083  53.5306993  15.6641673  23.7914083
  52.9386993  16.2221673  23.4784083  53.9566993  15.3951673  23.0794083
  53.5066993  15.7061673  23.6404083  59.3706993  13.5081673  21.2714083
  58.7916993  13.2331673  21.8634083  59.9946993  12.8991673  21.2964083
  59.3776993  13.3781673  21.3624083  63.6816993  16.1881673  20.7834083
  63.8956993  16.7151673  21.4454083  64.4486993  16.0141673  20.4044083
  63.8266993  16.2401673  20.8254083  59.9556993   2.9041673  35.6804083
  60.0726993   2.4501673  34.9444083  60.2436993   3.7021673  35.4774083
  60.0156993   2.9551673  35.5414083  55.0756993  14.3341673  21.7224083
  55.7316993  13.7591673  21.7374083  55.4646993  15.0831673  21.5014083
  55.2306993  14.3591673  21.6924083  55.6886993   2.5011673  34.6644083
  54.9106993   2.1111673  34.5924083  56.1796993   2.0891673  34.0734083
  55.6456993   2.3821673  34.5664083  55.8936993  12.8211673  25.2224083
  56.3166993  12.4651673  24.5484083  56.2176993  12.3991673  25.9144083
  56.0036993  12.7061673  25.2254083  59.1246993  15.6731673  24.5184083
  59.9686993  15.7771673  24.3234083  58.8276993  16.4911673  24.5864083
  59.2056993  15.8091673  24.4994083  62.9316993   5.0701673  22.6054083
  63.2186993   4.8381673  21.8154083  63.6636993   5.1491673  23.0744083
  63.0816993   5.0471673  22.5584083  63.6536993   5.4091673  17.7264083
  63.9346993   6.1971673  17.9754083  62.8776993   5.5741673  17.3634083
  63.5806993   5.5501673  17.7094083  58.1226993  16.8921673  30.2584083
  58.4146993  16.8251673  31.0784083  57.4966993  16.2871673  30.2134083
  58.0736993  16.7931673  30.3734083  53.0366993   3.0491673  32.2504083
  53.0326993   3.6361673  32.8964083  53.6306993   3.3611673  31.6934083
  53.1236993   3.1821673  32.2634083  62.5126993  13.5801673  17.5424083
  62.3316993  14.1251673  18.1994083  63.2786993  13.8701673  17.2414083
  62.5986993  13.7041673  17.5954083  53.9736993   2.6441673  21.1654083
  53.8596993   1.7801673  21.1964083  53.4986993   2.9381673  21.8354083
  53.8866993   2.5601673  21.2684083  56.1156993  15.0541673  29.3804083
  55.4176993  14.5461673  29.5064083  56.3756993  14.8491673  28.5724083
  56.0506993  14.9491673  29.2794083  63.2776993   3.8521673  19.9104083
  62.7696993   3.1901673  19.6564083  63.3296993   4.3561673  19.2004083
  63.2106993   3.8291673  19.7684083  63.8266993  16.5471673  30.2904083
  64.5946993  16.4671673  29.8844083  63.2436993  16.4261673  29.6524083
  63.8536993  16.5171673  30.1364083  61.8756993   3.1601673  24.3234083
  61.9496993   3.7281673  23.6654083  61.9966993   3.6521673  25.0334083
  61.9036993   3.3171673  24.3314083  57.4766993  13.9051673  31.9474083
  58.3176993  13.9681673  31.7254083  57.4396993  14.3021673  32.7234083
  57.5956993  13.9731673  32.0294083  59.4396993   9.4161673  26.6964083
  59.6116993   9.2061673  27.5254083  58.7846993   8.8821673  26.4804083
  59.3686993   9.3061673  26.7874083  65.6676993   3.3301673  30.2114083
  65.5726993   3.6491673  31.0174083  65.0746993   2.6911673  30.1734083
  65.5656993   3.2821673  30.3254083  60.1896993   9.3541673  29.2864083
  60.2426993  10.2011673  29.4884083  59.9046993   8.9841673  30.0234083
  60.1556993   9.4241673  29.4244083  53.0106993  13.7251673  35.4974083
  53.7666993  14.0741673  35.7554083  53.1876993  12.8721673  35.4404083
  53.1486993  13.6501673  35.5274083  56.9316993   2.7931673  24.3254083
  57.2036993   2.3631673  23.6174083  56.7556993   2.1571673  24.8964083
  56.9456993   2.6361673  24.3054083  56.7556993  10.2201673  23.8744083
  57.6066993  10.1401673  23.7014083  56.3986993   9.5381673  23.4624083
  56.8286993  10.1071673  23.7874083  55.5226993  16.9451673  25.1114083
  54.8496993  16.4471673  24.8664083  55.9256993  17.1301673  24.3604083
  55.4826993  16.8991673  24.9644083  55.0726993   3.8951673  27.4074083
  55.9156993   4.1151673  27.3644083  54.6836993   4.4681673  26.8764083
  55.1396993   4.0121673  27.3224083  59.1236993  10.2271673  22.1094083
  59.8366993  10.7221673  22.1994083  59.3456993   9.6601673  21.4834083
  59.2616993  10.2161673  22.0304083  53.2796993  11.8701673  25.4294083
  52.6126993  12.3581673  25.7054083  53.9596993  12.4151673  25.4584083
  53.2816993  12.0221673  25.4744083  60.9266993   5.5801673  35.5254083
  60.4426993   6.1571673  35.9674083  60.8986993   5.8751673  34.7044083
  60.8506993   5.7091673  35.4694083  53.3456993   8.5541673  20.5324083
  53.1606993   7.7151673  20.6844083  54.0046993   8.5181673  19.9624083
  53.4156993   8.4251673  20.4704083  63.6466993  13.9301673  24.4364083
  63.1236993  14.5641673  24.1434083  63.9566993  13.5661673  23.7074083
  63.6146993  13.9701673  24.2854083  53.5176993  12.7181673  20.1074083
  54.0696993  13.2871673  20.4714083  53.2856993  12.2031673  20.7724083
  53.5646993  12.7261673  20.2594083  57.7216993  11.7181673  27.1964083
  58.1886993  12.0071673  27.8744083  58.2936993  11.2401673  26.7424083
  57.8756993  11.6901673  27.2294083  53.3476993  11.1671673  17.7354083
  54.1036993  10.7351673  17.7934083  53.3626993  11.6991673  18.4264083
  53.4616993  11.1821673  17.8464083  54.2876993   9.3881673  25.7404083
  54.7186993   9.2591673  24.9934083  54.0826993  10.2361673  25.7144083
  54.3206993   9.4941673  25.6264083  60.6336993   2.9521673  19.3904083
  60.6316993   2.8351673  18.5254083  60.4526993   3.8001673  19.4824083
  60.6066993   3.0601673  19.2764083  58.3716993  12.9041673  24.0224083
  58.4976993  13.7471673  24.2094083  59.0396993  12.5051673  24.4184083
  58.4896993  12.9701673  24.1084083  56.5016993   6.3871673  33.8844083
  55.9656993   5.8811673  34.3524083  56.5216993   5.9971673  33.1044083
  56.4246993   6.2541673  33.8384083  56.9866993   5.7841673  19.0244083
  56.8586993   5.3361673  19.7624083  56.4046993   5.4421673  18.4724083
  56.8816993   5.6671673  19.0524083  57.1536993   7.6141673  25.6234083
  56.3726993   7.5551673  25.2404083  57.2256993   6.8621673  26.0604083
  57.0486993   7.4951673  25.6314083  57.5836993   7.3511673  29.0914083
  57.6086993   6.6761673  28.5404083  56.9376993   7.8471673  28.7794083
  57.4926993   7.3241673  28.9644083  61.6836993  16.1281673  28.4834083
  61.4066993  15.4871673  27.9604083  61.4756993  16.8541673  28.0454083
  61.6126993  16.1411673  28.3414083  55.3826993   8.7061673  34.6504083
  55.3456993   9.2071673  33.9364083  55.7136993   7.9541673  34.3554083
  55.4256993   8.6681673  34.5014083  61.2816993  13.7561673  34.0854083
  61.6356993  13.5781673  34.8624083  60.8456993  13.0271673  33.8864083
  61.2696993  13.6221673  34.1714083  62.2536993   4.5031673  26.7234083
  62.7336993   5.2021673  26.9314083  62.6266993   3.8561673  27.1744083
  62.3796993   4.5111673  26.8204083  64.4426993   7.6721673  18.9974083
  64.4346993   8.3941673  18.5074083  63.8036993   7.8071673  19.5744083
  64.3476993   7.7991673  19.0104083  65.4596993  14.6081673  26.8224083
  64.8566993  14.3121673  26.2654083  66.0046993  15.0601673  26.3134083
  65.4506993  14.6311673  26.6644083  65.4726993  11.4591673  26.2224083
  64.6756993  11.6831673  26.4964083  65.7306993  10.8651673  26.8074083
  65.3926993  11.4041673  26.3494083  59.3646993  16.2711673  20.6704083
  59.2176993  15.4951673  21.0414083  60.0536993  16.1241673  20.1554083
  59.4446993  16.1341673  20.6494083  61.6566993  15.7871673  19.0724083
  62.2786993  15.9501673  19.6624083  61.6926993  16.4781673  18.5404083
  61.7536993  15.9131673  19.0814083  64.9236993  14.8061673  35.3454083
  65.0876993  15.0891673  36.1544083  65.1866993  15.4671673  34.8404083
  64.9866993  14.9461673  35.3904083  56.1576993   8.3211673  19.9014083
  56.4816993   7.5421673  19.6794083  56.8036993   8.6891673  20.3564083
  56.3006993   8.2601673  19.9354083  64.4636993   9.2631673  30.6684083
  64.3086993   9.8731673  31.2724083  64.9976993   8.7051673  31.0744083
  64.5196993   9.2711673  30.8174083  62.8476993   7.6631673  21.3264083
  62.9066993   8.3131673  21.9054083  62.6586993   6.9671673  21.8174083
  62.8286993   7.6561673  21.4844083  57.3436993   2.1801673  17.8384083
  56.8326993   2.2331673  17.1324083  58.1276993   2.4201673  17.5424083
  57.3836993   2.2231673  17.6904083  62.0706993   9.7101673  25.7574083
  61.2236993   9.5161673  25.8384083  62.3946993   9.5451673  26.5504083
  61.9926993   9.6571673  25.8864083  58.8226993  16.4401673  16.6434083
  59.2616993  15.7431673  16.9314083  59.0296993  17.0641673  17.2164083
  58.9186993  16.4291673  16.7704083  55.9186993   9.4031673  28.0734083
  56.6406993   9.8911673  28.0364083  55.6486993   9.3731673  27.2444083
  55.9856993   9.4711673  27.9454083  59.1486993   4.5741673  24.8084083
  59.9946993   4.3841673  24.9064083  58.7786993   3.7971673  24.6704083
  59.2186993   4.4311673  24.8024083  53.9696993   5.9121673  21.4634083
  54.4586993   5.6201673  22.1244083  54.0986993   5.3191673  20.8364083
  54.0606993   5.7811673  21.4684083  58.4946993   7.3461673  16.9494083
  57.8846993   6.9411673  17.4234083  58.1086993   7.4641673  16.1764083
  58.3476993   7.3031673  16.9054083  55.3136993  10.4551673  32.3514083
  54.8926993   9.9371673  31.7904083  54.9616993  11.2411673  32.2084083
  55.1996993  10.4951673  32.2474083  59.9496993   5.8071673  19.6594083
  60.2216993   6.6331673  19.7264083  59.0866993   5.8821673  19.5634083
  59.8626993   5.9401673  19.6544083  53.4296993   1.7771673  26.1954083
  53.4736993   2.1211673  25.3944083  54.1846993   2.0141673  26.5624083
  53.5476993   1.8631673  26.1314083  65.3706993  11.1161673  17.6654083
  66.0546993  10.6021673  17.4964083  64.9536993  11.1621673  16.9004083
  65.4096993  11.0471673  17.5274083  60.0526993  12.2661673  28.9694083
  59.7546993  12.8581673  29.5364083  60.1076993  12.7081673  28.2204083
  60.0166993  12.4191673  28.9424083  58.0316993  11.2161673  32.3674083
  57.2256993  10.9261673  32.5344083  57.9426993  12.0841673  32.3734083
  57.8996993  11.3011673  32.3924083  62.5686993   8.6891673  28.4604083
  63.0446993   9.0631673  29.0884083  61.7456993   8.8231673  28.7194083
  62.5176993   8.7641673  28.5914083  59.2786993   4.2921673  31.2014083
  59.4396993   3.5481673  31.6284083  59.2336993   4.0431673  30.3664083
  59.2956993   4.1451673  31.1414083  61.8326993  16.0821673  23.6884083
  62.3786993  16.7611673  23.7424083  61.4826993  16.1641673  22.8934083
  61.8616993  16.1951673  23.5784083  60.0156993  14.3101673  27.0774083
  59.3916993  14.8921673  26.8954083  60.2636993  14.0241673  26.2914083
  59.9596993  14.3541673  26.9344083  64.3246993  10.9441673  34.0664083
  65.0816993  11.2301673  33.7404083  63.7776993  10.9961673  33.3884083
  64.3556993  10.9941673  33.9174083  61.6096993   9.0861673  16.9924083
  60.8046993   8.9091673  16.7074083  61.5766993   9.9371673  17.1844083
  61.4856993   9.1851673  16.9794083  57.5396993   5.1531673  27.1424083
  57.9796993   5.0501673  26.3964083  58.0846993   4.8401673  27.7474083
  57.6846993   5.0921673  27.1214083  65.5556993   4.2551673  32.7344083
  64.9076993   4.7251673  33.0824083  66.1206993   4.1661673  33.3934083
  65.5436993   4.3111673  32.8834083  65.2436993   5.7921673  29.0324083
  65.5456993   6.2121673  29.7354083  65.2796993   4.9521673  29.2644083
  65.2936993   5.7301673  29.1704083  62.6686993  15.9591673  32.9574083
  63.1466993  15.3591673  32.5414083  62.3176993  15.5161673  33.6224083
  62.6876993  15.8051673  32.9944083  62.7276993  11.1781673  31.9774083
  61.9326993  11.1141673  32.3284083  62.7986993  12.0251673  31.7824083
  62.6206993  11.2931673  32.0004083  58.5576993  17.3851673  27.2944083
  58.5686993  17.4441673  28.1644083  58.1326993  16.6381673  27.1444083
  58.4966993  17.2831673  27.4004083  56.7156993   3.2801673  20.4494083
  56.8416993   2.9511673  19.6514083  55.9036993   3.0311673  20.6484083
  56.6146993   3.1951673  20.3614083  65.4726993  10.4331673  23.4934083
  65.5486993  10.7741673  24.2924083  65.6416993   9.5861673  23.6144083
  65.5086993  10.3581673  23.6294083  62.9946993   9.7071673  23.0584083
  62.6966993   9.3921673  23.8154083  63.6896993  10.1801673  23.2934083
  63.0536993   9.7301673  23.2054083  63.2166993  13.8251673  31.0854083
  63.9036993  13.7111673  31.6104083  63.3506993  14.6161673  30.7414083
  63.3376993  13.9251673  31.1124083  55.3216993  16.8831673  32.7364083
  54.6676993  16.3141673  32.8344083  54.9466993  17.6561673  32.8874083
  55.1696993  16.9131673  32.7734083  63.8396993   8.2891673  34.6594083
  64.1626993   8.9751673  34.2274083  63.1356993   8.6121673  35.0614083
  63.7826993   8.4381673  34.6544083  63.6246993  11.7531673  28.5184083
  62.9306993  12.1551673  28.8614083  64.3016993  12.1861673  28.8574083
  63.6216993  11.8761673  28.6194083  56.6926993   5.2911673  30.8654083
  57.0676993   5.9101673  30.3784083  57.3666993   4.8171673  31.1504083
  56.8476993   5.3131673  30.8354083  54.4676993   3.7391673  30.1404083
  54.5446993   3.5701673  29.2874083  55.2136993   4.1451673  30.3374083
  54.5886993   3.7741673  30.0434083  63.9466993  13.3441673  21.6874083
  63.7416993  14.1771673  21.5284083  63.1716993  12.9621673  21.8094083
  63.8016993  13.4111673  21.6824083  53.8646993   8.9651673  30.3644083
  54.1846993   9.1841673  29.5834083  53.7646993   8.1001673  30.3094083
  53.8966993   8.8701673  30.2414083  55.3206993   4.9011673  16.9824083
  54.6486993   4.9151673  17.5384083  55.4156993   4.0531673  16.7984083
  55.2356993   4.7781673  17.0374083  59.3086993  13.6061673  18.0964083
  59.7496993  13.6861673  18.8444083  58.5036993  13.3901673  18.3544083
  59.2546993  13.5861673  18.2454083  58.6276993   8.2571673  31.7494083
  58.2316993   9.0311673  31.8244083  58.2216993   7.8841673  31.0734083
  58.5096993   8.3161673  31.6604083  56.6376993  12.6761673  18.6974083
  56.3936993  12.3691673  19.4774083  56.6046993  11.9731673  18.1814083
  56.5966993  12.5271673  18.7364083  59.4566993  10.9211673  17.4404083
  58.6386993  10.6531673  17.5804083  59.4286993  11.7731673  17.6254083
  59.3316993  11.0081673  17.4884083  65.8916993  12.8301673  29.3614083
  66.0976993  13.1311673  30.1534083  65.8306993  13.5521673  28.8764083
  65.9126993  12.9811673  29.4064083  65.4256993  17.0441673  33.6074083
  64.6726993  17.0261673  33.1664083  65.5936993  17.8961673  33.6914083
  65.3396993  17.1671673  33.5544083  60.6626993   6.3111673  32.7774083
  60.3406993   5.7351673  32.2074083  60.3036993   7.0661673  32.5314083
  60.5626993   6.3371673  32.6574083  59.0976993  16.6671673  33.0254083
  59.1386993  16.7931673  33.8884083  59.7486993  16.1071673  32.8694083
  59.1996993  16.6031673  33.1304083  56.6906993  15.0501673  34.3854083
  57.2856993  15.4811673  34.8574083  56.3266993  15.6741673  33.8964083
  56.7246993  15.2061673  34.3824083  64.6816993   5.9811673  24.3174083
  65.2326993   5.3741673  24.6174083  64.2566993   6.2441673  25.0324083
  64.7006993   5.9301673  24.4664083  54.9296993   4.6311673  23.8034083
  54.5616993   4.9331673  24.5344083  55.4636993   4.0021673  24.0874083
  54.9536993   4.5831673  23.9534083  54.6176993  13.0391673  31.3144083
  54.0436993  13.4551673  31.8234083  55.3506993  13.5041673  31.4094083
  54.6416993  13.1691673  31.4034083  56.4036993  16.3061673  20.0894083
  56.2586993  16.4621673  19.2434083  57.2696993  16.3851673  20.1674083
  56.5106993  16.3411673  19.9764083  60.5706993   8.7031673  19.8174083
  60.6706993   8.8421673  18.9624083  61.3886993   8.6431673  20.1134083
  60.7056993   8.7141673  19.7344083  65.8056993  13.0321673  19.6194083
  65.5546993  12.9041673  20.4454083  65.4886993  12.3371673  19.1984083
  65.7216993  12.9111673  19.6794083  57.0906993  15.1211673  26.5664083
  57.0116993  14.3111673  26.2504083  56.6466993  15.6081673  25.9944083
  57.0136993  15.0731673  26.4354083  62.6916993  11.2401673  19.0494083
  63.4086993  10.8931673  18.6934083  62.6576993  12.0401673  18.7014083
  62.7926993  11.3071673  18.9454083  54.6626993  17.3651673  30.1474083
  55.1556993  17.3091673  30.8654083  54.8506993  16.6321673  29.7124083
  54.7636993  17.2481673  30.1894083  63.9096993   6.7971673   7.9591673
  63.3856993   7.3931673   8.3221673  64.3066993   6.4291673   8.6431673
  63.8906993   6.8311673   8.1141673  53.7786993  10.9371673   3.4151673
  53.3376993  11.0551673   4.1581673  53.4956993  10.1621673   3.1301673
  53.6716993  10.8401673   3.4831673  56.2876993  11.6331673   2.4941673
  56.8956993  11.4631673   3.0971673  55.5366993  11.4931673   2.9151673
  56.2666993  11.5871673   2.6451673  53.7186993  13.6721673   9.6701673
  53.8476993  13.3921673  10.4861673  53.1086993  13.1311673   9.3611673
  53.6476993  13.5511673   9.7451673  60.2926993  11.1971673  14.7371673
  60.0566993  11.1941673  15.5771673  59.5446993  11.0491673  14.3131673
  60.1466993  11.1741673  14.7981673  55.1646993   8.1931673   3.8721673
  54.7026993   7.8011673   3.2451673  55.8646993   7.6801673   3.9641673
  55.1996993   8.0601673   3.7931673  59.6726993   3.8031673   9.2191673
  60.3506993   3.8211673   8.6701673  59.6276993   2.9671673   9.4641673
  59.7656993   3.6821673   9.1741673  60.2746993  14.3891673  12.0001673
  60.4126993  15.1491673  11.5931673  61.0656993  14.0241673  12.0271673
  60.4116993  14.4481673  11.9441673  57.1656993   6.2931673   3.8951673
  57.9826993   6.1061673   4.1381673  56.6886993   5.6791673   4.2911673
  57.2156993   6.1751673   3.9901673  61.3696993  12.2741673   6.5051673
  61.7176993  11.4751673   6.5351673  62.0346993  12.7781673   6.2501673
  61.5196993  12.2301673   6.4721673  61.4266993  11.7231673   2.7161673
  61.7576993  11.0791673   3.2021673  61.6666993  11.5121673   1.9051673
  61.5106993  11.5971673   2.6681673  63.3946993   5.8541673  14.0551673
  62.5466993   5.7551673  13.8771673  63.4236993   6.5991673  14.5091673
  63.2736993   5.9501673  14.0961673  53.6206993   5.9541673   6.8851673
  53.3646993   6.7851673   6.8101673  52.9566993   5.5711673   7.3021673
  53.4846993   6.0201673   6.9361673  53.5306993  15.6641673   4.7851673
  52.9386993  16.2221673   4.4721673  53.9566993  15.3951673   4.0731673
  53.5066993  15.7061673   4.6341673  59.3706993  13.5081673   2.2651673
  58.7916993  13.2331673   2.8571673  59.9946993  12.8991673   2.2901673
  59.3776993  13.3781673   2.3561673  63.6816993  16.1881673   1.7771673
  63.8956993  16.7151673   2.4391673  64.4486993  16.0141673   1.3981673
  63.8266993  16.2401673   1.8191673  59.9556993   2.9041673  16.6741673
  60.0726993   2.4501673  15.9381673  60.2436993   3.7021673  16.4711673
  60.0156993   2.9551673  16.5351673  55.0756993  14.3341673   2.7161673
  55.7316993  13.7591673   2.7311673  55.4646993  15.0831673   2.4951673
  55.2306993  14.3591673   2.6861673  55.6886993   2.5011673  15.6581673
  54.9106993   2.1111673  15.5861673  56.1796993   2.0891673  15.0671673
  55.6456993   2.3821673  15.5601673  55.8936993  12.8211673   6.2161673
  56.3166993  12.4651673   5.5421673  56.2176993  12.3991673   6.9081673
  56.0036993  12.7061673   6.2191673  59.1246993  15.6731673   5.5121673
  59.9686993  15.7771673   5.3171673  58.8276993  16.4911673   5.5801673
  59.2056993  15.8091673   5.4931673  62.9316993   5.0701673   3.5991673
  63.2186993   4.8381673   2.8091673  63.6636993   5.1491673   4.0681673
  63.0816993   5.0471673   3.5521673  58.1226993  16.8921673  11.2521673
  58.4146993  16.8251673  12.0721673  57.4966993  16.2871673  11.2071673
  58.0736993  16.7931673  11.3671673  53.0366993   3.0491673  13.2441673
  53.0326993   3.6361673  13.8901673  53.6306993   3.3611673  12.6871673
  53.1236993   3.1821673  13.2571673  53.9736993   2.6441673   2.1591673
  53.8596993   1.7801673   2.1901673  53.4986993   2.9381673   2.8291673
  53.8866993   2.5601673   2.2621673  56.1156993  15.0541673  10.3741673
  55.4176993  14.5461673  10.5001673  56.3756993  14.8491673   9.5661673
  56.0506993  14.9491673  10.2731673  63.8266993  16.5471673  11.2841673
  64.5946993  16.4671673  10.8781673  63.2436993  16.4261673  10.6461673
  63.8536993  16.5171673  11.1301673  61.8756993   3.1601673   5.3171673
  61.9496993   3.7281673   4.6591673  61.9966993   3.6521673   6.0271673
  61.9036993   3.3171673   5.3251673  57.4766993  13.9051673  12.9411673
  58.3176993  13.9681673  12.7191673  57.4396993  14.3021673  13.7171673
  57.5956993  13.9731673  13.0231673  59.4396993   9.4161673   7.6901673
  59.6116993   9.2061673   8.5191673  58.7846993   8.8821673   7.4741673
  59.3686993   9.3061673   7.7811673  65.6676993   3.3301673  11.2051673
  65.5726993   3.6491673  12.0111673  65.0746993   2.6911673  11.1671673
  65.5656993   3.2821673  11.3191673  60.1896993   9.3541673  10.2801673
  60.2426993  10.2011673  10.4821673  59.9046993   8.9841673  11.0171673
  60.1556993   9.4241673  10.4181673  53.0106993  13.7251673  16.4911673
  53.7666993  14.0741673  16.7491673  53.1876993  12.8721673  16.4341673
  53.1486993  13.6501673  16.5211673  56.9316993   2.7931673   5.3191673
  57.2036993   2.3631673   4.6111673  56.7556993   2.1571673   5.8901673
  56.9456993   2.6361673   5.2991673  56.7556993  10.2201673   4.8681673
  57.6066993  10.1401673   4.6951673  56.3986993   9.5381673   4.4561673
  56.8286993  10.1071673   4.7811673  55.5226993  16.9451673   6.1051673
  54.8496993  16.4471673   5.8601673  55.9256993  17.1301673   5.3541673
  55.4826993  16.8991673   5.9581673  55.0726993   3.8951673   8.4011673
  55.9156993   4.1151673   8.3581673  54.6836993   4.4681673   7.8701673
  55.1396993   4.0121673   8.3161673  59.1236993  10.2271673   3.1031673
  59.8366993  10.7221673   3.1931673  59.3456993   9.6601673   2.4771673
  59.2616993  10.2161673   3.0241673  53.2796993  11.8701673   6.4231673
  52.6126993  12.3581673   6.6991673  53.9596993  12.4151673   6.4521673
  53.2816993  12.0221673   6.4681673  60.9266993   5.5801673  16.5191673
  60.4426993   6.1571673  16.9611673  60.8986993   5.8751673  15.6981673
  60.8506993   5.7091673  16.4631673  63.6466993  13.9301673   5.4301673
  63.1236993  14.5641673   5.1371673  63.9566993  13.5661673   4.7011673
  63.6146993  13.9701673   5.2791673  57.7216993  11.7181673   8.1901673
  58.1886993  12.0071673   8.8681673  58.2936993  11.2401673   7.7361673
  57.8756993  11.6901673   8.2231673  54.2876993   9.3881673   6.7341673
  54.7186993   9.2591673   5.9871673  54.0826993  10.2361673   6.7081673
  54.3206993   9.4941673   6.6201673  58.3716993  12.9041673   5.0161673
  58.4976993  13.7471673   5.2031673  59.0396993  12.5051673   5.4121673
  58.4896993  12.9701673   5.1021673  56.5016993   6.3871673  14.8781673
  55.9656993   5.8811673  15.3461673  56.5216993   5.9971673  14.0981673
  56.4246993   6.2541673  14.8321673  57.1536993   7.6141673   6.6171673
  56.3726993   7.5551673   6.2341673  57.2256993   6.8621673   7.0541673
  57.0486993   7.4951673   6.6251673  57.5836993   7.3511673  10.0851673
  57.6086993   6.6761673   9.5341673  56.9376993   7.8471673   9.7731673
  57.4926993   7.3241673   9.9581673  61.6836993  16.1281673   9.4771673
  61.4066993  15.4871673   8.9541673  61.4756993  16.8541673   9.0391673
  61.6126993  16.1411673   9.3351673  55.3826993   8.7061673  15.6441673
  55.3456993   9.2071673  14.9301673  55.7136993   7.9541673  15.3491673
  55.4256993   8.6681673  15.4951673  61.2816993  13.7561673  15.0791673
  61.6356993  13.5781673  15.8561673  60.8456993  13.0271673  14.8801673
  61.2696993  13.6221673  15.1651673  62.2536993   4.5031673   7.7171673
  62.7336993   5.2021673   7.9251673  62.6266993   3.8561673   8.1681673
  62.3796993   4.5111673   7.8141673  65.4596993  14.6081673   7.8161673
  64.8566993  14.3121673   7.2591673  66.0046993  15.0601673   7.3071673
  65.4506993  14.6311673   7.6581673  65.4726993  11.4591673   7.2161673
  64.6756993  11.6831673   7.4901673  65.7306993  10.8651673   7.8011673
  65.3926993  11.4041673   7.3431673  64.9236993  14.8061673  16.3391673
  65.0876993  15.0891673  17.1481673  65.1866993  15.4671673  15.8341673
  64.9866993  14.9461673  16.3841673  64.4636993   9.2631673  11.6621673
  64.3086993   9.8731673  12.2661673  64.9976993   8.7051673  12.0681673
  64.5196993   9.2711673  11.8111673  62.8476993   7.6631673   2.3201673
  62.9066993   8.3131673   2.8991673  62.6586993   6.9671673   2.8111673
  62.8286993   7.6561673   2.4781673  62.0706993   9.7101673   6.7511673
  61.2236993   9.5161673   6.8321673  62.3946993   9.5451673   7.5441673
  61.9926993   9.6571673   6.8801673  55.9186993   9.4031673   9.0671673
  56.6406993   9.8911673   9.0301673  55.6486993   9.3731673   8.2381673
  55.9856993   9.4711673   8.9391673  59.1486993   4.5741673   5.8021673
  59.9946993   4.3841673   5.9001673  58.7786993   3.7971673   5.6641673
  59.2186993   4.4311673   5.7961673  53.9696993   5.9121673   2.4571673
  54.4586993   5.6201673   3.1181673  54.0986993   5.3191673   1.8301673
  54.0606993   5.7811673   2.4621673  55.3136993  10.4551673  13.3451673
  54.8926993   9.9371673  12.7841673  54.9616993  11.2411673  13.2021673
  55.1996993  10.4951673  13.2411673  53.4296993   1.7771673   7.1891673
  53.4736993   2.1211673   6.3881673  54.1846993   2.0141673   7.5561673
  53.5476993   1.8631673   7.1251673  60.0526993  12.2661673   9.9631673
  59.7546993  12.8581673  10.5301673  60.1076993  12.7081673   9.2141673
  60.0166993  12.4191673   9.9361673  58.0316993  11.2161673  13.3611673
  57.2256993  10.9261673  13.5281673  57.9426993  12.0841673  13.3671673
  57.8996993  11.3011673  13.3861673  62.5686993   8.6891673   9.4541673
  63.0446993   9.0631673  10.0821673  61.7456993   8.8231673   9.7131673
  62.5176993   8.7641673   9.5851673  59.2786993   4.2921673  12.1951673
  59.4396993   3.5481673  12.6221673  59.2336993   4.0431673  11.3601673
  59.2956993   4.1451673  12.1351673  61.8326993  16.0821673   4.6821673
  62.3786993  16.7611673   4.7361673  61.4826993  16.1641673   3.8871673
  61.8616993  16.1951673   4.5721673  60.0156993  14.3101673   8.0711673
  59.3916993  14.8921673   7.8891673  60.2636993  14.0241673   7.2851673
  59.9596993  14.3541673   7.9281673  64.3246993  10.9441673  15.0601673
  65.0816993  11.2301673  14.7341673  63.7776993  10.9961673  14.3821673
  64.3556993  10.9941673  14.9111673  57.5396993   5.1531673   8.1361673
  57.9796993   5.0501673   7.3901673  58.0846993   4.8401673   8.7411673
  57.6846993   5.0921673   8.1151673  65.5556993   4.2551673  13.7281673
  64.9076993   4.7251673  14.0761673  66.1206993   4.1661673  14.3871673
  65.5436993   4.3111673  13.8771673  65.2436993   5.7921673  10.0261673
  65.5456993   6.2121673  10.7291673  65.2796993   4.9521673  10.2581673
  65.2936993   5.7301673  10.1641673  62.6686993  15.9591673  13.9511673
  63.1466993  15.3591673  13.5351673  62.3176993  15.5161673  14.6161673
  62.6876993  15.8051673  13.9881673  62.7276993  11.1781673  12.9711673
  61.9326993  11.1141673  13.3221673  62.7986993  12.0251673  12.7761673
  62.6206993  11.2931673  12.9941673  58.5576993  17.3851673   8.2881673
  58.5686993  17.4441673   9.1581673  58.1326993  16.6381673   8.1381673
  58.4966993  17.2831673   8.3941673  65.4726993  10.4331673   4.4871673
  65.5486993  10.7741673   5.2861673  65.6416993   9.5861673   4.6081673
  65.5086993  10.3581673   4.6231673  62.9946993   9.7071673   4.0521673
  62.6966993   9.3921673   4.8091673  63.6896993  10.1801673   4.2871673
  63.0536993   9.7301673   4.1991673  63.2166993  13.8251673  12.0791673
  63.9036993  13.7111673  12.6041673  63.3506993  14.6161673  11.7351673
  63.3376993  13.9251673  12.1061673  55.3216993  16.8831673  13.7301673
  54.6676993  16.3141673  13.8281673  54.9466993  17.6561673  13.8811673
  55.1696993  16.9131673  13.7671673  63.8396993   8.2891673  15.6531673
  64.1626993   8.9751673  15.2211673  63.1356993   8.6121673  16.0551673
  63.7826993   8.4381673  15.6481673  63.6246993  11.7531673   9.5121673
  62.9306993  12.1551673   9.8551673  64.3016993  12.1861673   9.8511673
  63.6216993  11.8761673   9.6131673  56.6926993   5.2911673  11.8591673
  57.0676993   5.9101673  11.3721673  57.3666993   4.8171673  12.1441673
  56.8476993   5.3131673  11.8291673  54.4676993   3.7391673  11.1341673
  54.5446993   3.5701673  10.2811673  55.2136993   4.1451673  11.3311673
  54.5886993   3.7741673  11.0371673  63.9466993  13.3441673   2.6811673
  63.7416993  14.1771673   2.5221673  63.1716993  12.9621673   2.8031673
  63.8016993  13.4111673   2.6761673  53.8646993   8.9651673  11.3581673
  54.1846993   9.1841673  10.5771673  53.7646993   8.1001673  11.3031673
  53.8966993   8.8701673  11.2351673  58.6276993   8.2571673  12.7431673
  58.2316993   9.0311673  12.8181673  58.2216993   7.8841673  12.0671673
  58.5096993   8.3161673  12.6541673  65.8916993  12.8301673  10.3551673
  66.0976993  13.1311673  11.1471673  65.8306993  13.5521673   9.8701673
  65.9126993  12.9811673  10.4001673  65.4256993  17.0441673  14.6011673
  64.6726993  17.0261673  14.1601673  65.5936993  17.8961673  14.6851673
  65.3396993  17.1671673  14.5481673  60.6626993   6.3111673  13.7711673
  60.3406993   5.7351673  13.2011673  60.3036993   7.0661673  13.5251673
  60.5626993   6.3371673  13.6511673  59.0976993  16.6671673  14.0191673
  59.1386993  16.7931673  14.8821673  59.7486993  16.1071673  13.8631673
  59.1996993  16.6031673  14.1241673  56.6906993  15.0501673  15.3791673
  57.2856993  15.4811673  15.8511673  56.3266993  15.6741673  14.8901673
  56.7246993  15.2061673  15.3761673  64.6816993   5.9811673   5.3111673
  65.2326993   5.3741673   5.6111673  64.2566993   6.2441673   6.0261673
  64.7006993   5.9301673   5.4601673  54.9296993   4.6311673   4.7971673
  54.5616993   4.9331673   5.5281673  55.4636993   4.0021673   5.0811673
  54.9536993   4.5831673   4.9471673  54.6176993  13.0391673  12.3081673
  54.0436993  13.4551673  12.8171673  55.3506993  13.5041673  12.4031673
  54.6416993  13.1691673  12.3971673  57.0906993  15.1211673   7.5601673
  57.0116993  14.3111673   7.2441673  56.6466993  15.6081673   6.9881673
  57.0136993  15.0731673   7.4291673  54.6626993  17.3651673  11.1411673
  55.1556993  17.3091673  11.8591673  54.8506993  16.6321673  10.7061673
  54.7636993  17.2481673  11.1831673  45.2358553  55.3154913  79.3131313
  44.9908553  55.8034913  78.6331313  46.0988553  55.2424913  79.2131313
  45.3268553  55.3764913  79.1981313  45.0448553  62.2314913  83.9841313
  44.5208553  62.8274913  84.3471313  45.4418553  61.8634913  84.6681313
  45.0258553  62.2654913  84.1391313  34.9138553  66.3714913  79.4401313
  34.4728553  66.4894913  80.1831313  34.6308553  65.5964913  79.1551313
  34.8068553  66.2744913  79.5081313  51.1888553  69.6724913  76.9551313
  51.8898553  69.1534913  76.9511313  50.6018553  69.2274913  76.4861313
  51.2058553  69.5294913  76.8851313  34.6568553  60.1634913  75.9471313
  33.8788553  60.3254913  75.5871313  34.6958553  59.2924913  75.9691313
  34.5478553  60.0584913  75.8971313  37.7958553  65.4264913  74.6191313
  37.4038553  65.0554913  73.9331313  37.7158553  64.8284913  75.2481313
  37.7258553  65.2834913  74.6101313  47.7158553  63.2984913  80.6601313
  47.7958553  63.3024913  79.7911313  47.1318553  62.6664913  80.8091313
  47.6408553  63.2054913  80.5541313  37.4228553  67.0674913  78.5191313
  38.0308553  66.8974913  79.1221313  36.6718553  66.9274913  78.9401313
  37.4018553  67.0214913  78.6701313  41.7048553  56.4024913  78.4681313
  41.6348553  57.0794913  77.9221313  42.4458553  56.0144913  78.2191313
  41.8038553  56.4454913  78.3501313  36.3138553  70.1584913  74.5961313
  36.7808553  70.2424913  73.8641313  36.7688553  69.5804913  75.0651313
  36.4498553  70.0854913  74.5571313  34.8538553  69.1064913  85.6951313
  34.9828553  68.8264913  86.5111313  34.2438553  68.5654913  85.3861313
  34.7828553  68.9854913  85.7701313  36.2998553  63.6274913  79.8971313
  35.8378553  63.2354913  79.2701313  36.9998553  63.1144913  79.9891313
  36.3348553  63.4944913  79.8181313  40.8078553  59.2374913  85.2441313
  41.4858553  59.2554913  84.6951313  40.7628553  58.4014913  85.4891313
  40.9008553  59.1164913  85.1991313  38.3008553  61.7274913  79.9201313
  39.1178553  61.5404913  80.1631313  37.8238553  61.1134913  80.3161313
  38.3508553  61.6094913  80.0151313  42.5048553  67.7084913  82.5301313
  42.8528553  66.9094913  82.5601313  43.1698553  68.2124913  82.2751313
  42.6548553  67.6644913  82.4971313  42.5618553  67.1574913  78.7411313
  42.8928553  66.5134913  79.2271313  42.8018553  66.9464913  77.9301313
  42.6458553  67.0314913  78.6931313  38.8978553  56.8214913  79.1861313
  38.6018553  57.3224913  78.5361313  39.7648553  56.8994913  79.1291313
  38.9818553  56.9074913  79.0821313  41.8768553  55.9634913  81.4091313
  41.9498553  56.8234913  81.5381313  41.8388553  55.8884913  80.5411313
  41.8818553  56.0794913  81.3001313  46.5498553  58.8894913  73.7081313
  46.0998553  59.5704913  74.0151313  46.6638553  58.3854913  74.4111313
  46.5008553  58.9154913  73.8571313  34.7558553  61.3884913  82.9101313
  34.4998553  62.2194913  82.8351313  34.0918553  61.0054913  83.3271313
  34.6198553  61.4544913  82.9611313  40.5058553  68.9424913  78.2901313
  39.9268553  68.6674913  78.8821313  41.1298553  68.3334913  78.3151313
  40.5128553  68.8124913  78.3811313  37.7848553  56.2054913  83.4011313
  37.2638553  55.5774913  83.0931313  38.3758553  55.7684913  83.8721313
  37.7958553  56.0474913  83.4251313  36.2108553  69.7684913  78.7411313
  36.8668553  69.1934913  78.7561313  36.5998553  70.5174913  78.5201313
  36.3658553  69.7934913  78.7111313  51.9438553  58.8624913  80.0031313
  51.5978553  59.5404913  80.4291313  51.3078553  58.2644913  80.0191313
  51.7988553  58.8744913  80.0681313  37.0288553  68.2554913  82.2411313
  37.4518553  67.8994913  81.5671313  37.3528553  67.8334913  82.9331313
  37.1388553  68.1404913  82.2441313  44.0668553  60.5044913  79.6241313
  44.3538553  60.2724913  78.8341313  44.7988553  60.5834913  80.0931313
  44.2168553  60.4814913  79.5771313  44.7888553  60.8434913  74.7451313
  45.0698553  61.6314913  74.9941313  44.0128553  61.0084913  74.3821313
  44.7158553  60.9844913  74.7281313  51.6188553  57.1854913  85.3721313
  52.3758553  57.2574913  84.9441313  51.6818553  56.4124913  85.7711313
  51.7398553  57.0824913  85.3671313  43.6478553  69.0144913  74.5611313
  43.4668553  69.5594913  75.2181313  44.4138553  69.3044913  74.2601313
  43.7338553  69.1384913  74.6141313  47.1548553  56.9104913  75.6151313
  47.6948553  56.2284913  75.6911313  47.2168553  57.3084913  76.3891313
  47.2438553  56.8684913  75.7411313  35.1088553  58.0784913  78.1841313
  34.9948553  57.2144913  78.2151313  34.6338553  58.3724913  78.8541313
  35.0218553  57.9944913  78.2871313  37.2508553  70.4884913  86.3991313
  36.5528553  69.9804913  86.5251313  37.5108553  70.2834913  85.5911313
  37.1858553  70.3834913  86.2981313  44.4128553  59.2864913  76.9291313
  43.9048553  58.6244913  76.6751313  44.4648553  59.7904913  76.2191313
  44.3458553  59.2634913  76.7871313  44.4128553  56.2274913  76.8201313
  43.9578553  55.8254913  76.1941313  45.1858553  56.3824913  76.4451313
  44.4598553  56.1914913  76.6721313  43.0108553  58.5944913  81.3421313
  43.0848553  59.1624913  80.6841313  43.1318553  59.0864913  82.0521313
  43.0388553  58.7514913  81.3501313  48.2358553  68.4294913  79.7541313
  48.9368553  67.9474913  79.9431313  47.5758553  67.8604913  79.7991313
  48.2418553  68.2744913  79.7881313  37.6188553  54.4174913  79.6901313
  38.1548553  55.1054913  79.6801313  37.6218553  54.1434913  78.8621313
  37.6978553  54.4784913  79.5661313  40.5748553  64.8504913  83.7151313
  40.7468553  64.6404913  84.5441313  39.9198553  64.3164913  83.4991313
  40.5038553  64.7404913  83.8061313  46.8028553  58.7644913  87.2301313
  46.7078553  59.0834913  88.0361313  46.2098553  58.1254913  87.1921313
  46.7008553  58.7164913  87.3441313  41.3248553  64.7884913  86.3051313
  41.3778553  65.6354913  86.5071313  41.0398553  64.4184913  87.0421313
  41.2908553  64.8584913  86.4431313  47.5018553  65.4834913  85.4351313
  46.9878553  65.0714913  86.0061313  47.3758553  66.3274913  85.6161313
  47.4078553  65.5474913  85.5461313  48.0588553  54.7084913  80.0661313
  48.1078553  54.3904913  80.8771313  48.3818553  54.0644913  79.5731313
  48.1138553  54.5664913  80.1131313  38.0668553  58.2274913  81.3441313
  38.3388553  57.7974913  80.6361313  37.8908553  57.5914913  81.9151313
  38.0808553  58.0704913  81.3241313  50.7548553  65.9224913  75.5621313
  50.8738553  65.6354913  76.3771313  51.5618553  65.9434913  75.2321313
  50.8908553  65.8834913  75.6341313  37.8908553  65.6544913  80.8931313
  38.7418553  65.5744913  80.7201313  37.5338553  64.9724913  80.4811313
  37.9638553  65.5414913  80.8061313  36.2078553  59.3294913  84.4261313
  37.0508553  59.5494913  84.3831313  35.8188553  59.9024913  83.8951313
  36.2748553  59.4464913  84.3411313  48.6498553  62.4594913  75.1471313
  48.4298553  63.1904913  74.7251313  48.2018553  62.5104913  75.8941313
  48.5508553  62.5744913  75.1951313  40.2588553  65.6614913  79.1281313
  40.9718553  66.1564913  79.2181313  40.4808553  65.0944913  78.5021313
  40.3968553  65.6504913  79.0491313  52.8368553  57.3204913  74.6001313
  52.1748553  56.7524913  74.6231313  52.6438553  57.8324913  73.9201313
  52.7108553  57.3124913  74.5031313  34.4148553  67.3044913  82.4481313
  33.7478553  67.7924913  82.7241313  35.0948553  67.8494913  82.4771313
  34.4168553  67.4564913  82.4931313  53.1598553  61.6984913  87.1561313
  53.3748553  60.8984913  86.8801313  52.3098553  61.7584913  86.9671313
  53.0658553  61.5894913  87.0871313  34.4808553  63.9884913  77.5511313
  34.2958553  63.1494913  77.7031313  35.1398553  63.9524913  76.9811313
  34.5508553  63.8594913  77.4891313  50.8388553  56.8784913  76.8791313
  51.5848553  56.4714913  77.0781313  51.1018553  57.5934913  76.4541313
  50.9878553  56.9244913  76.8461313  44.7818553  69.3644913  81.4551313
  44.2588553  69.9984913  81.1621313  45.0918553  69.0004913  80.7261313
  44.7498553  69.4044913  81.3041313  34.6528553  68.1524913  77.1261313
  35.2048553  68.7214913  77.4901313  34.4208553  67.6374913  77.7911313
  34.6998553  68.1604913  77.2781313  38.8568553  67.1524913  84.2151313
  39.3238553  67.4414913  84.8931313  39.4288553  66.6744913  83.7611313
  39.0108553  67.1244913  84.2481313  47.2928553  59.1664913  81.9521313
  47.6368553  59.3184913  82.7391313  46.8398553  58.4284913  82.0651313
  47.2768553  59.0794913  82.0851313  34.4828553  66.6014913  74.7541313
  35.2388553  66.1694913  74.8121313  34.4978553  67.1334913  75.4451313
  34.5968553  66.6164913  74.8651313  35.4228553  64.8224913  82.7591313
  35.8538553  64.6934913  82.0121313  35.2178553  65.6704913  82.7331313
  35.4558553  64.9284913  82.6451313  41.7688553  58.3864913  76.4091313
  41.7668553  58.2694913  75.5441313  41.5878553  59.2344913  76.5011313
  41.7418553  58.4944913  76.2951313  39.5068553  68.3384913  81.0411313
  39.6328553  69.1814913  81.2281313  40.1748553  67.9394913  81.4371313
  39.6248553  68.4044913  81.1271313  38.1218553  61.2184913  76.0431313
  37.9938553  60.7704913  76.7811313  37.5398553  60.8764913  75.4911313
  38.0168553  61.1014913  76.0711313  38.2888553  63.0484913  82.6421313
  37.5078553  62.9894913  82.2591313  38.3608553  62.2964913  83.0791313
  38.1838553  62.9294913  82.6501313  38.7188553  62.7854913  86.1101313
  38.7438553  62.1104913  85.5591313  38.0728553  63.2814913  85.7981313
  38.6278553  62.7584913  85.9831313  48.6138553  60.4984913  84.5061313
  47.9518553  60.8264913  84.9691313  48.8008553  61.1324913  83.9371313
  48.5438553  60.6404913  84.4901313  45.2588553  56.4044913  87.9351313
  45.4078553  55.5794913  87.6921313  45.6378553  56.4594913  88.7191313
  45.3368553  56.2904913  88.0151313  46.8068553  58.4674913  78.0171313
  47.2968553  59.1844913  77.9401313  46.0168553  58.7284913  77.7541313
  46.7628553  58.6114913  77.9671313  43.3888553  59.9374913  83.7421313
  43.8688553  60.6364913  83.9501313  43.7618553  59.2904913  84.1931313
  43.5148553  59.9454913  83.8391313  45.5778553  63.1064913  76.0161313
  45.5698553  63.8284913  75.5261313  44.9388553  63.2414913  76.5931313
  45.4828553  63.2334913  76.0291313  50.5498553  66.9764913  79.9971313
  50.9058553  66.6264913  80.7121313  50.5418553  66.3154913  79.4271313
  50.6018553  66.8264913  80.0181313  46.5948553  70.0424913  83.8411313
  45.9918553  69.7464913  83.2841313  47.1398553  70.4944913  83.3321313
  46.5858553  70.0654913  83.6831313  46.6078553  66.8934913  83.2411313
  45.8108553  67.1174913  83.5151313  46.8658553  66.2994913  83.8261313
  46.5278553  66.8384913  83.3681313  40.1708553  55.4484913  75.6771313
  40.2678553  55.3414913  76.5381313  39.4628553  55.9544913  75.6121313
  40.0808553  55.5074913  75.7951313  49.8678553  64.8914913  88.0871313
  49.9228553  65.0164913  87.2251313  50.6208553  65.2114913  88.3891313
  49.9868553  64.9564913  88.0041313  37.2928553  63.7554913  76.9201313
  37.6168553  62.9764913  76.6981313  37.9388553  64.1234913  77.3751313
  37.4358553  63.6944913  76.9541313  45.5988553  64.6974913  87.6871313
  45.4438553  65.3074913  88.2911313  46.1328553  64.1394913  88.0931313
  45.6548553  64.7054913  87.8361313  34.2898553  55.4164913  77.8881313
  34.4188553  54.7084913  77.3961313  33.9228553  55.0984913  78.6131313
  34.2548553  55.2644913  77.9231313  43.9828553  63.0974913  78.3451313
  44.0418553  63.7474913  78.9241313  43.7938553  62.4014913  78.8361313
  43.9638553  63.0904913  78.5031313  49.2088553  67.4264913  84.2141313
  48.7298553  67.7244913  83.5481313  48.8528553  66.6504913  84.3921313
  49.0858553  67.3554913  84.1421313  38.4788553  57.6144913  74.8571313
  37.9678553  57.6674913  74.1511313  39.2628553  57.8544913  74.5611313
  38.5188553  57.6574913  74.7091313  43.2058553  65.1444913  82.7761313
  42.3588553  64.9504913  82.8571313  43.5298553  64.9794913  83.5691313
  43.1278553  65.0914913  82.9051313  37.0538553  64.8374913  85.0921313
  37.7758553  65.3254913  85.0551313  36.7838553  64.8074913  84.2631313
  37.1208553  64.9054913  84.9641313  40.2838553  60.0084913  81.8271313
  41.1298553  59.8184913  81.9251313  39.9138553  59.2314913  81.6891313
  40.3538553  59.8654913  81.8211313  35.1048553  61.3464913  78.4821313
  35.5938553  61.0544913  79.1431313  35.2338553  60.7534913  77.8551313
  35.1958553  61.2154913  78.4871313  50.1398553  64.3684913  85.3331313
  50.1328553  63.5924913  85.7311313  49.2988553  64.6024913  85.3261313
  50.0148553  64.2884913  85.3911313  39.6298553  62.7804913  73.9681313
  39.0198553  62.3754913  74.4421313  39.2438553  62.8984913  73.1951313
  39.4828553  62.7374913  73.9241313  51.3958553  64.4394913  82.7701313
  51.1098553  64.8404913  83.4901313  52.2558553  64.3774913  82.8971313
  51.4808553  64.4894913  82.8951313  41.0848553  61.2414913  76.6781313
  41.3568553  62.0674913  76.7451313  40.2218553  61.3164913  76.5821313
  40.9978553  61.3744913  76.6731313  34.5648553  57.2114913  83.2141313
  34.6088553  57.5554913  82.4131313  35.3198553  57.4484913  83.5811313
  34.6828553  57.2974913  83.1501313  52.5268553  70.0724913  83.2991313
  52.8168553  70.3294913  82.5181313  53.2218553  70.1684913  83.8181313
  52.6728553  70.1244913  83.2601313  49.1318553  68.6754913  75.2811313
  49.4658553  67.8694913  75.3161313  48.3768553  68.6034913  75.7111313
  49.0698553  68.5454913  75.3501313  49.6138553  60.5094913  80.9401313
  48.8688553  60.1864913  81.2581313  49.6158553  61.3354913  81.2201313
  49.5038553  60.5834913  81.0281313  52.0538553  66.4694913  88.6921313
  52.6818553  65.9204913  88.4361313  51.9928553  67.0344913  88.0301313
  52.1378553  66.4724913  88.5561313  46.5058553  66.5504913  74.6841313
  47.1898553  66.0364913  74.5151313  46.0888553  66.5964913  73.9191313
  46.5448553  66.4814913  74.5461313  41.1878553  67.7004913  85.9881313
  40.8898553  68.2924913  86.5551313  41.2428553  68.1424913  85.2391313
  41.1518553  67.8534913  85.9611313  48.5258553  56.8394913  88.4011313
  49.2698553  57.2914913  88.3381313  47.9598553  57.3094913  87.9321313
  48.5528553  56.9764913  88.3231313  43.7038553  64.1234913  85.4791313
  44.1798553  64.4974913  86.1071313  42.8808553  64.2574913  85.7381313
  43.6528553  64.1984913  85.6101313  40.4138553  59.7264913  88.2201313
  40.5748553  58.9824913  88.6471313  40.3688553  59.4774913  87.3851313
  40.4308553  59.5794913  88.1601313  49.8108553  54.8194913  86.0711313
  49.5308553  55.6444913  86.0271313  50.5268553  54.8724913  86.5671313
  49.8758553  54.9494913  86.1381313  42.1658553  55.5344913  88.1001313
  42.8708553  55.8544913  87.6981313  42.4068553  54.7274913  88.3271313
  42.3048553  55.4624913  88.0741313  41.1508553  69.7444913  84.0961313
  40.5268553  70.3264913  83.9141313  41.3988553  69.4584913  83.3101313
  41.0948553  69.7884913  83.9531313  51.2318553  61.0744913  74.9281313
  51.6098553  61.7514913  74.5281313  50.3898553  61.2984913  74.9591313
  51.1628553  61.2074913  74.8731313  42.7448553  64.5204913  74.0111313
  41.9398553  64.3434913  73.7261313  42.7118553  65.3714913  74.2031313
  42.6208553  64.6194913  73.9981313  38.6748553  60.5874913  84.1611313
  39.1148553  60.4844913  83.4151313  39.2198553  60.2744913  84.7661313
  38.8198553  60.5264913  84.1401313  46.3788553  61.2264913  86.0511313
  46.6808553  61.6464913  86.7541313  46.4148553  60.3864913  86.2831313
  46.4288553  61.1644913  86.1891313  48.9268553  60.6734913  78.3031313
  49.1338553  60.4724913  79.1271313  49.6828553  60.9414913  77.9611313
  49.0688553  60.6834913  78.3741313  42.2218553  55.5724913  84.2081313
  41.3958553  55.4234913  84.4451313  42.1818553  55.6074913  83.3371313
  42.0938553  55.5554913  84.1141313  49.9488553  56.7564913  79.7771313
  49.2348553  56.2854913  79.9481313  49.7868553  57.0974913  78.9911313
  49.8198553  56.7374913  79.6861313  50.3918553  64.7004913  78.1571313
  50.8678553  63.9714913  78.1091313  49.5708553  64.4144913  78.0811313
  50.3408553  64.5504913  78.1381313  37.8508553  58.7144913  77.4681313
  37.9768553  58.3854913  76.6701313  37.0388553  58.4654913  77.6671313
  37.7498553  58.6294913  77.3801313  46.6078553  65.8674913  80.5121313
  46.6838553  66.2084913  81.3111313  46.7768553  65.0204913  80.6331313
  46.6438553  65.7924913  80.6481313  44.1298553  65.1414913  80.0771313
  43.8318553  64.8264913  80.8341313  44.8248553  65.6144913  80.3121313
  44.1888553  65.1644913  80.2241313  44.3518553  69.2594913  88.1041313
  45.0388553  69.1454913  88.6291313  44.4858553  70.0504913  87.7601313
  44.4728553  69.3594913  88.1311313  47.0408553  62.5334913  88.4911313
  46.7858553  61.8144913  88.9131313  47.8618553  62.6494913  88.7611313
  47.1248553  62.4444913  88.5931313  44.7598553  67.1874913  85.5371313
  44.0658553  67.5894913  85.8801313  45.4368553  67.6204913  85.8761313
  44.7568553  67.3104913  85.6381313  37.8278553  60.7254913  87.8841313
  38.2028553  61.3444913  87.3971313  38.5018553  60.2514913  88.1691313
  37.9828553  60.7474913  87.8541313  35.6028553  59.1734913  87.1591313
  35.6798553  59.0044913  86.3061313  36.3488553  59.5794913  87.3561313
  35.7238553  59.2084913  87.0621313  51.1618553  61.8134913  77.5991313
  51.2648553  61.7554913  76.7351313  51.9028553  61.4814913  77.9171313
  51.2868553  61.7564913  77.5181313  45.0818553  68.7784913  78.7061313
  44.8768553  69.6114913  78.5471313  44.3068553  68.3964913  78.8281313
  44.9368553  68.8454913  78.7011313  50.2638553  61.9594913  86.9551313
  50.2618553  61.0964913  87.0791313  50.3308553  62.2834913  87.7621313
  50.2738553  61.8794913  87.0921313  34.9998553  64.3994913  87.3831313
  35.3198553  64.6184913  86.6021313  34.8998553  63.5344913  87.3281313
  35.0318553  64.3044913  87.2601313  36.4558553  60.3354913  74.0011313
  35.7838553  60.3494913  74.5571313  36.5508553  59.4874913  73.8171313
  36.3708553  60.2124913  74.0561313  45.1368553  56.9494913  81.5911313
  44.4368553  57.4674913  81.5351313  45.1748553  56.5694913  80.8071313
  45.0388553  56.9704913  81.4671313  40.4438553  69.0404913  75.1151313
  40.8848553  69.1204913  75.8631313  39.6388553  68.8244913  75.3731313
  40.3898553  69.0204913  75.2641313  48.7348553  57.4654913  84.3911313
  49.5898553  57.5644913  84.5361313  48.3658553  58.0184913  84.9561313
  48.8068553  57.5624913  84.4961313  39.7628553  63.6914913  88.7681313
  39.3668553  64.4654913  88.8431313  39.3568553  63.3184913  88.0921313
  39.6448553  63.7504913  88.6791313  49.0388553  62.7454913  82.8821313
  49.7048553  63.2864913  83.0421313  48.6938553  63.0564913  82.1431313
  49.0858553  62.8714913  82.7971313  37.7728553  68.1104913  75.7161313
  37.5288553  67.8034913  76.4961313  37.7398553  67.4074913  75.2001313
  37.7318553  67.9614913  75.7551313  40.5918553  66.3554913  74.4591313
  39.7738553  66.0874913  74.5991313  40.5638553  67.2074913  74.6441313
  40.4668553  66.4424913  74.5071313  40.1918553  56.6684913  86.2181313
  39.3278553  56.7524913  86.2981313  40.4118553  56.1544913  86.8871313
  40.0968553  56.6054913  86.3291313  52.2098553  55.3034913  87.5471313
  52.1578553  55.2594913  88.4171313  52.8968553  54.8004913  87.3571313
  52.3038553  55.2234913  87.6471313  44.2948553  57.4164913  84.5921313
  43.5578553  56.9624913  84.7051313  44.8658553  57.0144913  85.1151313
  44.2698553  57.2894913  84.6861313  47.0268553  68.2644913  86.3801313
  47.2328553  68.5654913  87.1721313  46.9658553  68.9864913  85.8951313
  47.0478553  68.4154913  86.4251313  42.5938553  54.9974913  74.4231313
  42.6718553  55.2444913  73.5901313  41.8508553  55.3744913  74.6811313
  42.4958553  55.0894913  74.3381313  51.8388553  66.9034913  85.8381313
  51.8068553  66.0414913  85.7031313  51.1458553  67.2054913  85.4041313
  51.7318553  66.8204913  85.7541313  49.9438553  70.1634913  84.6351313
  50.4708553  70.0804913  83.9441313  49.5528553  69.3854913  84.6891313
  49.9638553  70.0364913  84.5411313  37.4118553  56.7514913  86.8661313
  37.0688553  55.9844913  86.6321313  36.7168553  57.2754913  86.9301313
  37.2588553  56.7154913  86.8411313  46.4578553  55.6074913  83.8431313
  47.1278553  56.1514913  83.9701313  45.9548553  56.0314913  83.2701313
  46.4828553  55.7504913  83.7771313  45.8168553  61.4154913  81.3361313
  46.3678553  60.8084913  81.6361313  45.3918553  61.6784913  82.0511313
  45.8358553  61.3644913  81.4851313  36.0648553  60.0654913  80.8221313
  35.6968553  60.3674913  81.5531313  36.5988553  59.4364913  81.1061313
  36.0888553  60.0174913  80.9721313  35.7528553  68.4734913  88.3331313
  35.1788553  68.8894913  88.8421313  36.4858553  68.9384913  88.4281313
  35.7768553  68.6034913  88.4221313  47.7868553  63.2464913  77.8981313
  47.8548553  62.3964913  78.0791313  46.9638553  63.3324913  77.6201313
  47.6748553  63.1334913  77.8841313  41.7058553  64.1374913  76.8361313
  41.8058553  64.2764913  75.9811313  42.5238553  64.0774913  77.1321313
  41.8408553  64.1484913  76.7531313  46.9408553  68.4664913  76.6381313
  46.6898553  68.3384913  77.4641313  46.6238553  67.7714913  76.2171313
  46.8568553  68.3454913  76.6981313  51.5848553  60.1244913  84.7581313
  50.7518553  60.3744913  84.6861313  51.5288553  59.2844913  84.9871313
  51.4538553  60.0374913  84.7811313  43.8268553  66.6744913  76.0681313
  44.5438553  66.3274913  75.7121313  43.7928553  67.4744913  75.7201313
  43.9278553  66.7414913  75.9641313  45.2358553  55.3154913  60.3068903
  44.9908553  55.8034913  59.6268903  46.0988553  55.2424913  60.2068903
  45.3268553  55.3764913  60.1918903  45.0448553  62.2314913  64.9778903
  44.5208553  62.8274913  65.3408903  45.4418553  61.8634913  65.6618903
  45.0258553  62.2654913  65.1328903  34.9138553  66.3714913  60.4338903
  34.4728553  66.4894913  61.1768903  34.6308553  65.5964913  60.1488903
  34.8068553  66.2744913  60.5018903  51.1888553  69.6724913  57.9488903
  51.8898553  69.1534913  57.9448903  50.6018553  69.2274913  57.4798903
  51.2058553  69.5294913  57.8788903  34.6568553  60.1634913  56.9408903
  33.8788553  60.3254913  56.5808903  34.6958553  59.2924913  56.9628903
  34.5478553  60.0584913  56.8908903  37.7958553  65.4264913  55.6128903
  37.4038553  65.0554913  54.9268903  37.7158553  64.8284913  56.2418903
  37.7258553  65.2834913  55.6038903  47.7158553  63.2984913  61.6538903
  47.7958553  63.3024913  60.7848903  47.1318553  62.6664913  61.8028903
  47.6408553  63.2054913  61.5478903  37.4228553  67.0674913  59.5128903
  38.0308553  66.8974913  60.1158903  36.6718553  66.9274913  59.9338903
  37.4018553  67.0214913  59.6638903  41.7048553  56.4024913  59.4618903
  41.6348553  57.0794913  58.9158903  42.4458553  56.0144913  59.2128903
  41.8038553  56.4454913  59.3438903  36.3138553  70.1584913  55.5898903
  36.7808553  70.2424913  54.8578903  36.7688553  69.5804913  56.0588903
  36.4498553  70.0854913  55.5508903  34.8538553  69.1064913  66.6888903
  34.9828553  68.8264913  67.5048903  34.2438553  68.5654913  66.3798903
  34.7828553  68.9854913  66.7638903  41.4278553  66.6314913  71.7558903
  41.1918553  66.6284913  72.5958903  40.6798553  66.4834913  71.3318903
  41.2818553  66.6084913  71.8168903  36.2998553  63.6274913  60.8908903
  35.8378553  63.2354913  60.2638903  36.9998553  63.1144913  60.9828903
  36.3348553  63.4944913  60.8118903  40.8078553  59.2374913  66.2378903
  41.4858553  59.2554913  65.6888903  40.7628553  58.4014913  66.4828903
  40.9008553  59.1164913  66.1928903  38.3008553  61.7274913  60.9138903
  39.1178553  61.5404913  61.1568903  37.8238553  61.1134913  61.3098903
  38.3508553  61.6094913  61.0088903  42.5048553  67.7084913  63.5238903
  42.8528553  66.9094913  63.5538903  43.1698553  68.2124913  63.2688903
  42.6548553  67.6644913  63.4908903  42.5618553  67.1574913  59.7348903
  42.8928553  66.5134913  60.2208903  42.8018553  66.9464913  58.9238903
  42.6458553  67.0314913  59.6868903  44.5298553  61.2884913  71.0738903
  43.6818553  61.1894913  70.8958903  44.5588553  62.0334913  71.5278903
  44.4088553  61.3844913  71.1148903  38.8978553  56.8214913  60.1798903
  38.6018553  57.3224913  59.5298903  39.7648553  56.8994913  60.1228903
  38.9818553  56.9074913  60.0758903  49.0878553  54.2484913  70.1878903
  48.9298553  55.0174913  69.8058903  48.3158553  54.0284913  70.5318903
  48.9498553  54.3294913  70.1828903  41.8768553  55.9634913  62.4028903
  41.9498553  56.8234913  62.5318903  41.8388553  55.8884913  61.5348903
  41.8818553  56.0794913  62.2938903  46.5498553  58.8894913  54.7018903
  46.0998553  59.5704913  55.0088903  46.6638553  58.3854913  55.4048903
  46.5008553  58.9154913  54.8508903  34.7558553  61.3884913  63.9038903
  34.4998553  62.2194913  63.8288903  34.0918553  61.0054913  64.3208903
  34.6198553  61.4544913  63.9548903  40.5058553  68.9424913  59.2838903
  39.9268553  68.6674913  59.8758903  41.1298553  68.3334913  59.3088903
  40.5128553  68.8124913  59.3748903  37.7848553  56.2054913  64.3948903
  37.2638553  55.5774913  64.0868903  38.3758553  55.7684913  64.8658903
  37.7958553  56.0474913  64.4188903  41.0908553  58.3384913  73.6928903
  41.2078553  57.8844913  72.9568903  41.3788553  59.1364913  73.4898903
  41.1508553  58.3894913  73.5538903  36.2108553  69.7684913  59.7348903
  36.8668553  69.1934913  59.7498903  36.5998553  70.5174913  59.5138903
  36.3658553  69.7934913  59.7048903  51.9438553  58.8624913  60.9968903
  51.5978553  59.5404913  61.4228903  51.3078553  58.2644913  61.0128903
  51.7988553  58.8744913  61.0618903  36.8238553  57.9354913  72.6768903
  36.0458553  57.5454913  72.6048903  37.3148553  57.5234913  72.0858903
  36.7808553  57.8164913  72.5788903  37.0288553  68.2554913  63.2348903
  37.4518553  67.8994913  62.5608903  37.3528553  67.8334913  63.9268903
  37.1388553  68.1404913  63.2378903  43.4728553  55.5784913  71.8448903
  43.6508553  54.7694913  71.5698903  43.3298553  56.0194913  71.1058903
  43.4778553  55.5244913  71.6948903  44.0668553  60.5044913  60.6178903
  44.3538553  60.2724913  59.8278903  44.7988553  60.5834913  61.0868903
  44.2168553  60.4814913  60.5708903  44.7888553  60.8434913  55.7388903
  45.0698553  61.6314913  55.9878903  44.0128553  61.0084913  55.3758903
  44.7158553  60.9844913  55.7218903  51.6188553  57.1854913  66.3658903
  52.3758553  57.2574913  65.9378903  51.6818553  56.4124913  66.7648903
  51.7398553  57.0824913  66.3608903  34.1718553  58.4834913  70.2628903
  34.1678553  59.0704913  70.9088903  34.7658553  58.7954913  69.7058903
  34.2588553  58.6164913  70.2758903  46.5098553  68.8174913  70.8048903
  46.4758553  69.1994913  71.5888903  47.3638553  68.7754913  70.6338903
  46.6308553  68.8674913  70.8958903  43.6478553  69.0144913  55.5548903
  43.4668553  69.5594913  56.2118903  44.4138553  69.3044913  55.2538903
  43.7338553  69.1384913  55.6078903  47.1548553  56.9104913  56.6088903
  47.6948553  56.2284913  56.6848903  47.2168553  57.3084913  57.3828903
  47.2438553  56.8684913  56.7348903  35.1088553  58.0784913  59.1778903
  34.9948553  57.2144913  59.2088903  34.6338553  58.3724913  59.8478903
  35.0218553  57.9944913  59.2808903  37.2508553  70.4884913  67.3928903
  36.5528553  69.9804913  67.5188903  37.5108553  70.2834913  66.5848903
  37.1858553  70.3834913  67.2918903  44.4128553  59.2864913  57.9228903
  43.9048553  58.6244913  57.6688903  44.4648553  59.7904913  57.2128903
  44.3458553  59.2634913  57.7808903  44.4128553  56.2274913  57.8138903
  43.9578553  55.8254913  57.1878903  45.1858553  56.3824913  57.4388903
  44.4598553  56.1914913  57.6658903  43.0108553  58.5944913  62.3358903
  43.0848553  59.1624913  61.6778903  43.1318553  59.0864913  63.0458903
  43.0388553  58.7514913  62.3438903  48.2358553  68.4294913  60.7478903
  48.9368553  67.9474913  60.9368903  47.5758553  67.8604913  60.7928903
  48.2418553  68.2744913  60.7818903  38.6118553  69.3394913  69.9598903
  39.4528553  69.4024913  69.7378903  38.5748553  69.7364913  70.7358903
  38.7308553  69.4074913  70.0418903  37.6188553  54.4174913  60.6838903
  38.1548553  55.1054913  60.6738903  37.6218553  54.1434913  59.8558903
  37.6978553  54.4784913  60.5598903  40.5748553  64.8504913  64.7088903
  40.7468553  64.6404913  65.5378903  39.9198553  64.3164913  64.4928903
  40.5038553  64.7404913  64.7998903  46.8028553  58.7644913  68.2238903
  46.7078553  59.0834913  69.0298903  46.2098553  58.1254913  68.1858903
  46.7008553  58.7164913  68.3378903  41.3248553  64.7884913  67.2988903
  41.3778553  65.6354913  67.5008903  41.0398553  64.4184913  68.0358903
  41.2908553  64.8584913  67.4368903  47.5018553  65.4834913  66.4288903
  46.9878553  65.0714913  66.9998903  47.3758553  66.3274913  66.6098903
  47.4078553  65.5474913  66.5398903  48.0588553  54.7084913  61.0598903
  48.1078553  54.3904913  61.8708903  48.3818553  54.0644913  60.5668903
  48.1138553  54.5664913  61.1068903  34.1458553  69.1594913  73.5098903
  34.9018553  69.5084913  73.7678903  34.3228553  68.3064913  73.4528903
  34.2838553  69.0844913  73.5398903  50.5228553  58.9444913  69.3678903
  51.2948553  58.7194913  69.7048903  50.0478553  59.1614913  70.0678903
  50.5668553  58.9434913  69.5208903  38.0668553  58.2274913  62.3378903
  38.3388553  57.7974913  61.6298903  37.8908553  57.5914913  62.9088903
  38.0808553  58.0704913  62.3178903  50.7548553  65.9224913  56.5558903
  50.8738553  65.6354913  57.3708903  51.5618553  65.9434913  56.2258903
  50.8908553  65.8834913  56.6278903  37.8908553  65.6544913  61.8868903
  38.7418553  65.5744913  61.7138903  37.5338553  64.9724913  61.4748903
  37.9638553  65.5414913  61.7998903  36.2078553  59.3294913  65.4198903
  37.0508553  59.5494913  65.3768903  35.8188553  59.9024913  64.8888903
  36.2748553  59.4464913  65.3348903  48.6498553  62.4594913  56.1408903
  48.4298553  63.1904913  55.7188903  48.2018553  62.5104913  56.8878903
  48.5508553  62.5744913  56.1888903  40.2588553  65.6614913  60.1218903
  40.9718553  66.1564913  60.2118903  40.4808553  65.0944913  59.4958903
  40.3968553  65.6504913  60.0428903  52.8368553  57.3204913  55.5938903
  52.1748553  56.7524913  55.6168903  52.6438553  57.8324913  54.9138903
  52.7108553  57.3124913  55.4968903  34.4148553  67.3044913  63.4418903
  33.7478553  67.7924913  63.7178903  35.0948553  67.8494913  63.4708903
  34.4168553  67.4564913  63.4868903  42.0618553  61.0144913  73.5378903
  41.5778553  61.5914913  73.9798903  42.0338553  61.3094913  72.7168903
  41.9858553  61.1434913  73.4818903  53.1598553  61.6984913  68.1498903
  53.3748553  60.8984913  67.8738903  52.3098553  61.7584913  67.9608903
  53.0658553  61.5894913  68.0808903  34.4808553  63.9884913  58.5448903
  34.2958553  63.1494913  58.6968903  35.1398553  63.9524913  57.9748903
  34.5508553  63.8594913  58.4828903  50.8388553  56.8784913  57.8728903
  51.5848553  56.4714913  58.0718903  51.1018553  57.5934913  57.4478903
  50.9878553  56.9244913  57.8398903  44.7818553  69.3644913  62.4488903
  44.2588553  69.9984913  62.1558903  45.0918553  69.0004913  61.7198903
  44.7498553  69.4044913  62.2978903  34.6528553  68.1524913  58.1198903
  35.2048553  68.7214913  58.4838903  34.4208553  67.6374913  58.7848903
  34.6998553  68.1604913  58.2718903  38.8568553  67.1524913  65.2088903
  39.3238553  67.4414913  65.8868903  39.4288553  66.6744913  64.7548903
  39.0108553  67.1244913  65.2418903  47.2928553  59.1664913  62.9458903
  47.6368553  59.3184913  63.7328903  46.8398553  58.4284913  63.0588903
  47.2768553  59.0794913  63.0788903  34.4828553  66.6014913  55.7478903
  35.2388553  66.1694913  55.8058903  34.4978553  67.1334913  56.4388903
  34.5968553  66.6164913  55.8588903  35.4228553  64.8224913  63.7528903
  35.8538553  64.6934913  63.0058903  35.2178553  65.6704913  63.7268903
  35.4558553  64.9284913  63.6388903  41.7688553  58.3864913  57.4028903
  41.7668553  58.2694913  56.5378903  41.5878553  59.2344913  57.4948903
  41.7418553  58.4944913  57.2888903  39.5068553  68.3384913  62.0348903
  39.6328553  69.1814913  62.2218903  40.1748553  67.9394913  62.4308903
  39.6248553  68.4044913  62.1208903  37.6368553  61.8214913  71.8968903
  37.1008553  61.3154913  72.3648903  37.6568553  61.4314913  71.1168903
  37.5598553  61.6884913  71.8508903  38.1218553  61.2184913  57.0368903
  37.9938553  60.7704913  57.7748903  37.5398553  60.8764913  56.4848903
  38.0168553  61.1014913  57.0648903  38.2888553  63.0484913  63.6358903
  37.5078553  62.9894913  63.2528903  38.3608553  62.2964913  64.0728903
  38.1838553  62.9294913  63.6438903  38.7188553  62.7854913  67.1038903
  38.7438553  62.1104913  66.5528903  38.0728553  63.2814913  66.7918903
  38.6278553  62.7584913  66.9768903  48.6138553  60.4984913  65.4998903
  47.9518553  60.8264913  65.9628903  48.8008553  61.1324913  64.9308903
  48.5438553  60.6404913  65.4838903  45.2588553  56.4044913  68.9288903
  45.4078553  55.5794913  68.6858903  45.6378553  56.4594913  69.7128903
  45.3368553  56.2904913  69.0088903  46.8068553  58.4674913  59.0108903
  47.2968553  59.1844913  58.9338903  46.0168553  58.7284913  58.7478903
  46.7628553  58.6114913  58.9608903  36.5178553  64.1404913  72.6628903
  36.4808553  64.6414913  71.9488903  36.8488553  63.3884913  72.3678903
  36.5608553  64.1024913  72.5138903  48.1208553  66.3454913  70.9208903
  48.6048553  67.0634913  71.0188903  48.5148553  65.9184913  70.2698903
  48.2508553  66.3884913  70.8388903  42.4168553  69.1904913  72.0978903
  42.7708553  69.0124913  72.8748903  41.9808553  68.4614913  71.8988903
  42.4048553  69.0564913  72.1838903  43.3888553  59.9374913  64.7358903
  43.8688553  60.6364913  64.9438903  43.7618553  59.2904913  65.1868903
  43.5148553  59.9454913  64.8328903  45.5778553  63.1064913  57.0098903
  45.5698553  63.8284913  56.5198903  44.9388553  63.2414913  57.5868903
  45.4828553  63.2334913  57.0228903  50.5498553  66.9764913  60.9908903
  50.9058553  66.6264913  61.7058903  50.5418553  66.3154913  60.4208903
  50.6018553  66.8264913  61.0118903  46.5948553  70.0424913  64.8348903
  45.9918553  69.7464913  64.2778903  47.1398553  70.4944913  64.3258903
  46.5858553  70.0654913  64.6768903  46.6078553  66.8934913  64.2348903
  45.8108553  67.1174913  64.5088903  46.8658553  66.2994913  64.8198903
  46.5278553  66.8384913  64.3618903  40.1708553  55.4484913  56.6708903
  40.2678553  55.3414913  57.5318903  39.4628553  55.9544913  56.6058903
  40.0808553  55.5074913  56.7888903  49.8678553  64.8914913  69.0808903
  49.9228553  65.0164913  68.2188903  50.6208553  65.2114913  69.3828903
  49.9868553  64.9564913  68.9978903  50.8998553  55.1894913  72.0678903
  50.2628553  54.7894913  71.6258903  50.9258553  54.7584913  72.8258903
  50.8098553  55.0674913  72.1138903  37.2928553  63.7554913  57.9138903
  37.6168553  62.9764913  57.6918903  37.9388553  64.1234913  58.3688903
  37.4358553  63.6944913  57.9478903  45.5988553  64.6974913  68.6808903
  45.4438553  65.3074913  69.2848903  46.1328553  64.1394913  69.0868903
  45.6548553  64.7054913  68.8298903  34.2898553  55.4164913  58.8818903
  34.4188553  54.7084913  58.3898903  33.9228553  55.0984913  59.6068903
  34.2548553  55.2644913  58.9168903  43.9828553  63.0974913  59.3388903
  44.0418553  63.7474913  59.9178903  43.7938553  62.4014913  59.8298903
  43.9638553  63.0904913  59.4968903  49.2088553  67.4264913  65.2078903
  48.7298553  67.7244913  64.5418903  48.8528553  66.6504913  65.3858903
  49.0858553  67.3554913  65.1358903  38.4788553  57.6144913  55.8508903
  37.9678553  57.6674913  55.1448903  39.2628553  57.8544913  55.5548903
  38.5188553  57.6574913  55.7028903  43.2058553  65.1444913  63.7698903
  42.3588553  64.9504913  63.8508903  43.5298553  64.9794913  64.5628903
  43.1278553  65.0914913  63.8988903  37.0538553  64.8374913  66.0858903
  37.7758553  65.3254913  66.0488903  36.7838553  64.8074913  65.2568903
  37.1208553  64.9054913  65.9578903  40.2838553  60.0084913  62.8208903
  41.1298553  59.8184913  62.9188903  39.9138553  59.2314913  62.6828903
  40.3538553  59.8654913  62.8148903  35.1048553  61.3464913  59.4758903
  35.5938553  61.0544913  60.1368903  35.2338553  60.7534913  58.8488903
  35.1958553  61.2154913  59.4808903  50.1398553  64.3684913  66.3268903
  50.1328553  63.5924913  66.7248903  49.2988553  64.6024913  66.3198903
  50.0148553  64.2884913  66.3848903  39.6298553  62.7804913  54.9618903
  39.0198553  62.3754913  55.4358903  39.2438553  62.8984913  54.1888903
  39.4828553  62.7374913  54.9178903  36.4488553  65.8894913  70.3638903
  36.0278553  65.3714913  69.8028903  36.0968553  66.6754913  70.2208903
  36.3348553  65.9294913  70.2598903  51.3958553  64.4394913  63.7638903
  51.1098553  64.8404913  64.4838903  52.2558553  64.3774913  63.8908903
  51.4808553  64.4894913  63.8888903  41.0848553  61.2414913  57.6718903
  41.3568553  62.0674913  57.7388903  40.2218553  61.3164913  57.5758903
  40.9978553  61.3744913  57.6668903  49.0578553  58.3634913  72.3038903
  48.5328553  58.8224913  72.8278903  48.6968553  57.5684913  72.2978903
  48.9268553  58.3134913  72.3798903  34.5648553  57.2114913  64.2078903
  34.6088553  57.5554913  63.4068903  35.3198553  57.4484913  64.5748903
  34.6828553  57.2974913  64.1438903  52.5268553  70.0724913  64.2928903
  52.8168553  70.3294913  63.5118903  53.2218553  70.1684913  64.8118903
  52.6728553  70.1244913  64.2538903  47.5498553  61.9324913  72.3798903
  47.6228553  62.0364913  73.2428903  46.9158553  62.4904913  72.1588903
  47.4668553  62.0304913  72.4748903  49.8178553  62.2514913  70.7448903
  50.1368553  63.0374913  70.9478903  49.4478553  61.9814913  71.4878903
  49.8108553  62.3274913  70.8848903  49.1318553  68.6754913  56.2748903
  49.4658553  67.8694913  56.3098903  48.3768553  68.6034913  56.7048903
  49.0698553  68.5454913  56.3438903  49.6138553  60.5094913  61.9338903
  48.8688553  60.1864913  62.2518903  49.6158553  61.3354913  62.2138903
  49.5038553  60.5834913  62.0218903  52.5158553  62.7934913  73.4798903
  52.4638553  62.4524913  72.6788903  53.2528553  63.2604913  73.4578903
  52.6168553  62.8124913  73.3578903  52.0538553  66.4694913  69.6858903
  52.6818553  65.9204913  69.4298903  51.9928553  67.0344913  69.0238903
  52.1378553  66.4724913  69.5498903  46.5058553  66.5504913  55.6778903
  47.1898553  66.0364913  55.5088903  46.0888553  66.5964913  54.9128903
  46.5448553  66.4814913  55.5398903  41.1878553  67.7004913  66.9818903
  40.8898553  68.2924913  67.5488903  41.2428553  68.1424913  66.2328903
  41.1518553  67.8534913  66.9548903  39.1668553  66.6504913  70.3798903
  38.3608553  66.3604913  70.5468903  39.0778553  67.5184913  70.3858903
  39.0348553  66.7354913  70.4048903  48.5258553  56.8394913  69.3948903
  49.2698553  57.2914913  69.3318903  47.9598553  57.3094913  68.9258903
  48.5528553  56.9764913  69.3168903  43.7038553  64.1234913  66.4728903
  44.1798553  64.4974913  67.1008903  42.8808553  64.2574913  66.7318903
  43.6528553  64.1984913  66.6038903  40.4138553  59.7264913  69.2138903
  40.5748553  58.9824913  69.6408903  40.3688553  59.4774913  68.3788903
  40.4308553  59.5794913  69.1538903  49.8108553  54.8194913  67.0648903
  49.5308553  55.6444913  67.0208903  50.5268553  54.8724913  67.5608903
  49.8758553  54.9494913  67.1318903  42.1658553  55.5344913  69.0938903
  42.8708553  55.8544913  68.6918903  42.4068553  54.7274913  69.3208903
  42.3048553  55.4624913  69.0678903  41.1508553  69.7444913  65.0898903
  40.5268553  70.3264913  64.9078903  41.3988553  69.4584913  64.3038903
  41.0948553  69.7884913  64.9468903  45.4598553  66.3784913  72.0788903
  46.2168553  66.6644913  71.7528903  44.9128553  66.4304913  71.4008903
  45.4908553  66.4284913  71.9298903  49.3688553  68.9284913  70.5828903
  49.7148553  69.1984913  71.3368903  49.6628553  69.5104913  70.0028903
  49.4638553  69.0544913  70.6088903  51.2318553  61.0744913  55.9218903
  51.6098553  61.7514913  55.5218903  50.3898553  61.2984913  55.9528903
  51.1628553  61.2074913  55.8668903  42.7448553  64.5204913  55.0048903
  41.9398553  64.3434913  54.7198903  42.7118553  65.3714913  55.1968903
  42.6208553  64.6194913  54.9918903  38.6748553  60.5874913  65.1548903
  39.1148553  60.4844913  64.4088903  39.2198553  60.2744913  65.7598903
  38.8198553  60.5264913  65.1338903  46.6908553  59.6894913  70.7468903
  46.0428553  60.1594913  71.0948903  47.2558553  59.6004913  71.4058903
  46.6788553  59.7454913  70.8958903  46.3788553  61.2264913  67.0448903
  46.6808553  61.6464913  67.7478903  46.4148553  60.3864913  67.2768903
  46.4288553  61.1644913  67.1828903  48.9268553  60.6734913  59.2968903
  49.1338553  60.4724913  60.1208903  49.6828553  60.9414913  58.9548903
  49.0688553  60.6834913  59.3678903  42.2218553  55.5724913  65.2018903
  41.3958553  55.4234913  65.4388903  42.1818553  55.6074913  64.3308903
  42.0938553  55.5554913  65.1078903  49.9488553  56.7564913  60.7708903
  49.2348553  56.2854913  60.9418903  49.7868553  57.0974913  59.9848903
  49.8198553  56.7374913  60.6798903  50.3918553  64.7004913  59.1508903
  50.8678553  63.9714913  59.1028903  49.5708553  64.4144913  59.0748903
  50.3408553  64.5504913  59.1318903  43.8628553  66.6124913  69.9898903
  43.0678553  66.5484913  70.3408903  43.9338553  67.4594913  69.7948903
  43.7558553  66.7274913  70.0128903  34.7868553  55.9704913  71.2368903
  34.6468553  56.7654913  70.9058903  34.0008553  55.7274913  71.5258903
  34.6498553  56.0524913  71.2308903  37.8508553  58.7144913  58.4618903
  37.9768553  58.3854913  57.6638903  37.0388553  58.4654913  58.6608903
  37.7498553  58.6294913  58.3738903  46.6078553  65.8674913  61.5058903
  46.6838553  66.2084913  62.3048903  46.7768553  65.0204913  61.6268903
  46.6438553  65.7924913  61.6418903  44.1298553  65.1414913  61.0708903
  43.8318553  64.8264913  61.8278903  44.8248553  65.6144913  61.3058903
  44.1888553  65.1644913  61.2178903  44.3518553  69.2594913  69.0978903
  45.0388553  69.1454913  69.6228903  44.4858553  70.0504913  68.7538903
  44.4728553  69.3594913  69.1248903  52.5278553  61.8684913  70.9088903
  51.6728553  61.7464913  71.0348903  52.6808553  61.4734913  70.1458903
  52.4238553  61.7914913  70.8148903  47.0408553  62.5334913  69.4848903
  46.7858553  61.8144913  69.9068903  47.8618553  62.6494913  69.7548903
  47.1248553  62.4444913  69.5868903  44.9748553  63.7234913  72.6718903
  45.2978553  64.4094913  72.2398903  44.2708553  64.0464913  73.0738903
  44.9178553  63.8724913  72.6668903  44.7598553  67.1874913  66.5308903
  44.0658553  67.5894913  66.8738903  45.4368553  67.6204913  66.8698903
  44.7568553  67.3104913  66.6318903  50.1368553  69.7804913  73.1108903
  50.9128553  69.3904913  73.1938903  49.6678553  69.4444913  73.7658903
  50.1818553  69.6734913  73.2198903  37.8278553  60.7254913  68.8778903
  38.2028553  61.3444913  68.3908903  38.5018553  60.2514913  69.1628903
  37.9828553  60.7474913  68.8478903  35.6028553  59.1734913  68.1528903
  35.6798553  59.0044913  67.2998903  36.3488553  59.5794913  68.3498903
  35.7238553  59.2084913  68.0558903  51.1618553  61.8134913  58.5928903
  51.2648553  61.7554913  57.7288903  51.9028553  61.4814913  58.9108903
  51.2868553  61.7564913  58.5118903  38.1568553  56.5834913  70.5638903
  38.0758553  55.7394913  70.7698903  37.8428553  56.6274913  69.7508903
  38.0988553  56.4654913  70.4738903  45.0818553  68.7784913  59.6998903
  44.8768553  69.6114913  59.5408903  44.3068553  68.3964913  59.8218903
  44.9368553  68.8454913  59.6948903  50.2638553  61.9594913  67.9488903
  50.2618553  61.0964913  68.0728903  50.3308553  62.2834913  68.7558903
  50.2738553  61.8794913  68.0858903  34.9998553  64.3994913  68.3768903
  35.3198553  64.6184913  67.5958903  34.8998553  63.5344913  68.3218903
  35.0318553  64.3044913  68.2538903  36.4558553  60.3354913  54.9948903
  35.7838553  60.3494913  55.5508903  36.5508553  59.4874913  54.8108903
  36.3708553  60.2124913  55.0498903  46.1428553  56.7594913  71.7308903
  46.2348553  57.4714913  72.2248903  45.5058553  56.3144913  72.1278903
  46.0618553  56.7984913  71.8628903  45.1368553  56.9494913  62.5848903
  44.4368553  57.4674913  62.5288903  45.1748553  56.5694913  61.8008903
  45.0388553  56.9704913  62.4608903  40.4438553  69.0404913  56.1088903
  40.8848553  69.1204913  56.8568903  39.6388553  68.8244913  56.3668903
  40.3898553  69.0204913  56.2578903  48.7348553  57.4654913  65.3848903
  49.5898553  57.5644913  65.5298903  48.3658553  58.0184913  65.9498903
  48.8068553  57.5624913  65.4898903  39.7628553  63.6914913  69.7618903
  39.3668553  64.4654913  69.8368903  39.3568553  63.3184913  69.0858903
  39.6448553  63.7504913  69.6728903  49.0388553  62.7454913  63.8758903
  49.7048553  63.2864913  64.0358903  48.6938553  63.0564913  63.1368903
  49.0858553  62.8714913  63.7908903  37.7728553  68.1104913  56.7098903
  37.5288553  67.8034913  57.4898903  37.7398553  67.4074913  56.1938903
  37.7318553  67.9614913  56.7488903  40.5918553  66.3554913  55.4528903
  39.7738553  66.0874913  55.5928903  40.5638553  67.2074913  55.6378903
  40.4668553  66.4424913  55.5008903  40.1918553  56.6684913  67.2118903
  39.3278553  56.7524913  67.2918903  40.4118553  56.1544913  67.8808903
  40.0968553  56.6054913  67.3228903  52.2098553  55.3034913  68.5408903
  52.1578553  55.2594913  69.4108903  52.8968553  54.8004913  68.3508903
  52.3038553  55.2234913  68.6408903  44.2948553  57.4164913  65.5858903
  43.5578553  56.9624913  65.6988903  44.8658553  57.0144913  66.1088903
  44.2698553  57.2894913  65.6798903  47.0268553  68.2644913  67.3738903
  47.2328553  68.5654913  68.1658903  46.9658553  68.9864913  66.8888903
  47.0478553  68.4154913  67.4188903  41.7978553  61.7454913  70.7898903
  41.4758553  61.1694913  70.2198903  41.4388553  62.5004913  70.5438903
  41.6978553  61.7714913  70.6698903  42.5938553  54.9974913  55.4168903
  42.6718553  55.2444913  54.5838903  41.8508553  55.3744913  55.6748903
  42.4958553  55.0894913  55.3318903  51.8388553  66.9034913  66.8318903
  51.8068553  66.0414913  66.6968903  51.1458553  67.2054913  66.3978903
  51.7318553  66.8204913  66.7478903  49.9438553  70.1634913  65.6288903
  50.4708553  70.0804913  64.9378903  49.5528553  69.3854913  65.6828903
  49.9638553  70.0364913  65.5348903  37.4118553  56.7514913  67.8598903
  37.0688553  55.9844913  67.6258903  36.7168553  57.2754913  67.9238903
  37.2588553  56.7154913  67.8348903  46.4578553  55.6074913  64.8368903
  47.1278553  56.1514913  64.9638903  45.9548553  56.0314913  64.2638903
  46.4828553  55.7504913  64.7708903  45.8168553  61.4154913  62.3298903
  46.3678553  60.8084913  62.6298903  45.3918553  61.6784913  63.0448903
  45.8358553  61.3644913  62.4788903  36.0648553  60.0654913  61.8158903
  35.6968553  60.3674913  62.5468903  36.5988553  59.4364913  62.0998903
  36.0888553  60.0174913  61.9658903  35.7528553  68.4734913  69.3268903
  35.1788553  68.8894913  69.8358903  36.4858553  68.9384913  69.4218903
  35.7768553  68.6034913  69.4158903  47.7868553  63.2464913  58.8918903
  47.8548553  62.3964913  59.0728903  46.9638553  63.3324913  58.6138903
  47.6748553  63.1334913  58.8778903  41.7058553  64.1374913  57.8298903
  41.8058553  64.2764913  56.9748903  42.5238553  64.0774913  58.1258903
  41.8408553  64.1484913  57.7468903  51.0608553  64.6194913  72.0428903
  51.6948553  64.4494913  72.6168903  51.4778553  65.0224913  71.3908903
  51.2158553  64.6544913  72.0318903  46.9408553  68.4664913  57.6318903
  46.6898553  68.3384913  58.4578903  46.6238553  67.7714913  57.2108903
  46.8568553  68.3454913  57.6918903  51.6858553  59.1834913  72.7808903
  51.4898553  59.8274913  73.3358903  50.9638553  58.6934913  72.7728903
  51.5508553  59.2064913  72.8618903  51.5848553  60.1244913  65.7518903
  50.7518553  60.3744913  65.6798903  51.5288553  59.2844913  65.9808903
  51.4538553  60.0374913  65.7748903  40.8448553  57.1124913  70.9458903
  41.0788553  56.5364913  70.3328903  40.0028553  56.9314913  71.0868903
  40.7548553  57.0004913  70.8758903  48.4718553  64.7304913  73.3978903
  49.3428553  64.6944913  73.3618903  48.2528553  65.1504913  72.6658903
  48.5688553  64.7864913  73.2848903  43.8268553  66.6744913  57.0618903
  44.5438553  66.3274913  56.7058903  43.7928553  67.4744913  56.7138903
  43.9278553  66.7414913  56.9578903  45.2358553  55.3154913  41.3006493
  44.9908553  55.8034913  40.6206493  46.0988553  55.2424913  41.2006493
  45.3268553  55.3764913  41.1856493  45.0448553  62.2314913  45.9716493
  44.5208553  62.8274913  46.3346493  45.4418553  61.8634913  46.6556493
  45.0258553  62.2654913  46.1266493  34.9138553  66.3714913  41.4276493
  34.4728553  66.4894913  42.1706493  34.6308553  65.5964913  41.1426493
  34.8068553  66.2744913  41.4956493  51.1888553  69.6724913  38.9426493
  51.8898553  69.1534913  38.9386493  50.6018553  69.2274913  38.4736493
  51.2058553  69.5294913  38.8726493  34.6568553  60.1634913  37.9346493
  33.8788553  60.3254913  37.5746493  34.6958553  59.2924913  37.9566493
  34.5478553  60.0584913  37.8846493  37.7958553  65.4264913  36.6066493
  37.4038553  65.0554913  35.9206493  37.7158553  64.8284913  37.2356493
  37.7258553  65.2834913  36.5976493  47.7158553  63.2984913  42.6476493
  47.7958553  63.3024913  41.7786493  47.1318553  62.6664913  42.7966493
  47.6408553  63.2054913  42.5416493  37.4228553  67.0674913  40.5066493
  38.0308553  66.8974913  41.1096493  36.6718553  66.9274913  40.9276493
  37.4018553  67.0214913  40.6576493  41.7048553  56.4024913  40.4556493
  41.6348553  57.0794913  39.9096493  42.4458553  56.0144913  40.2066493
  41.8038553  56.4454913  40.3376493  36.3138553  70.1584913  36.5836493
  36.7808553  70.2424913  35.8516493  36.7688553  69.5804913  37.0526493
  36.4498553  70.0854913  36.5446493  34.8538553  69.1064913  47.6826493
  34.9828553  68.8264913  48.4986493  34.2438553  68.5654913  47.3736493
  34.7828553  68.9854913  47.7576493  41.4278553  66.6314913  52.7496493
  41.1918553  66.6284913  53.5896493  40.6798553  66.4834913  52.3256493
  41.2818553  66.6084913  52.8106493  36.2998553  63.6274913  41.8846493
  35.8378553  63.2354913  41.2576493  36.9998553  63.1144913  41.9766493
  36.3348553  63.4944913  41.8056493  40.8078553  59.2374913  47.2316493
  41.4858553  59.2554913  46.6826493  40.7628553  58.4014913  47.4766493
  40.9008553  59.1164913  47.1866493  38.3008553  61.7274913  41.9076493
  39.1178553  61.5404913  42.1506493  37.8238553  61.1134913  42.3036493
  38.3508553  61.6094913  42.0026493  42.5048553  67.7084913  44.5176493
  42.8528553  66.9094913  44.5476493  43.1698553  68.2124913  44.2626493
  42.6548553  67.6644913  44.4846493  42.5618553  67.1574913  40.7286493
  42.8928553  66.5134913  41.2146493  42.8018553  66.9464913  39.9176493
  42.6458553  67.0314913  40.6806493  44.5298553  61.2884913  52.0676493
  43.6818553  61.1894913  51.8896493  44.5588553  62.0334913  52.5216493
  44.4088553  61.3844913  52.1086493  38.8978553  56.8214913  41.1736493
  38.6018553  57.3224913  40.5236493  39.7648553  56.8994913  41.1166493
  38.9818553  56.9074913  41.0696493  49.0878553  54.2484913  51.1816493
  48.9298553  55.0174913  50.7996493  48.3158553  54.0284913  51.5256493
  48.9498553  54.3294913  51.1766493  41.8768553  55.9634913  43.3966493
  41.9498553  56.8234913  43.5256493  41.8388553  55.8884913  42.5286493
  41.8818553  56.0794913  43.2876493  46.5498553  58.8894913  35.6956493
  46.0998553  59.5704913  36.0026493  46.6638553  58.3854913  36.3986493
  46.5008553  58.9154913  35.8446493  34.7558553  61.3884913  44.8976493
  34.4998553  62.2194913  44.8226493  34.0918553  61.0054913  45.3146493
  34.6198553  61.4544913  44.9486493  40.5058553  68.9424913  40.2776493
  39.9268553  68.6674913  40.8696493  41.1298553  68.3334913  40.3026493
  40.5128553  68.8124913  40.3686493  37.7848553  56.2054913  45.3886493
  37.2638553  55.5774913  45.0806493  38.3758553  55.7684913  45.8596493
  37.7958553  56.0474913  45.4126493  41.0908553  58.3384913  54.6866493
  41.2078553  57.8844913  53.9506493  41.3788553  59.1364913  54.4836493
  41.1508553  58.3894913  54.5476493  36.2108553  69.7684913  40.7286493
  36.8668553  69.1934913  40.7436493  36.5998553  70.5174913  40.5076493
  36.3658553  69.7934913  40.6986493  51.9438553  58.8624913  41.9906493
  51.5978553  59.5404913  42.4166493  51.3078553  58.2644913  42.0066493
  51.7988553  58.8744913  42.0556493  36.8238553  57.9354913  53.6706493
  36.0458553  57.5454913  53.5986493  37.3148553  57.5234913  53.0796493
  36.7808553  57.8164913  53.5726493  37.0288553  68.2554913  44.2286493
  37.4518553  67.8994913  43.5546493  37.3528553  67.8334913  44.9206493
  37.1388553  68.1404913  44.2316493  43.4728553  55.5784913  52.8386493
  43.6508553  54.7694913  52.5636493  43.3298553  56.0194913  52.0996493
  43.4778553  55.5244913  52.6886493  44.0668553  60.5044913  41.6116493
  44.3538553  60.2724913  40.8216493  44.7988553  60.5834913  42.0806493
  44.2168553  60.4814913  41.5646493  44.7888553  60.8434913  36.7326493
  45.0698553  61.6314913  36.9816493  44.0128553  61.0084913  36.3696493
  44.7158553  60.9844913  36.7156493  51.6188553  57.1854913  47.3596493
  52.3758553  57.2574913  46.9316493  51.6818553  56.4124913  47.7586493
  51.7398553  57.0824913  47.3546493  34.1718553  58.4834913  51.2566493
  34.1678553  59.0704913  51.9026493  34.7658553  58.7954913  50.6996493
  34.2588553  58.6164913  51.2696493  46.5098553  68.8174913  51.7986493
  46.4758553  69.1994913  52.5826493  47.3638553  68.7754913  51.6276493
  46.6308553  68.8674913  51.8896493  43.6478553  69.0144913  36.5486493
  43.4668553  69.5594913  37.2056493  44.4138553  69.3044913  36.2476493
  43.7338553  69.1384913  36.6016493  47.1548553  56.9104913  37.6026493
  47.6948553  56.2284913  37.6786493  47.2168553  57.3084913  38.3766493
  47.2438553  56.8684913  37.7286493  35.1088553  58.0784913  40.1716493
  34.9948553  57.2144913  40.2026493  34.6338553  58.3724913  40.8416493
  35.0218553  57.9944913  40.2746493  37.2508553  70.4884913  48.3866493
  36.5528553  69.9804913  48.5126493  37.5108553  70.2834913  47.5786493
  37.1858553  70.3834913  48.2856493  44.4128553  59.2864913  38.9166493
  43.9048553  58.6244913  38.6626493  44.4648553  59.7904913  38.2066493
  44.3458553  59.2634913  38.7746493  44.4128553  56.2274913  38.8076493
  43.9578553  55.8254913  38.1816493  45.1858553  56.3824913  38.4326493
  44.4598553  56.1914913  38.6596493  43.0108553  58.5944913  43.3296493
  43.0848553  59.1624913  42.6716493  43.1318553  59.0864913  44.0396493
  43.0388553  58.7514913  43.3376493  48.2358553  68.4294913  41.7416493
  48.9368553  67.9474913  41.9306493  47.5758553  67.8604913  41.7866493
  48.2418553  68.2744913  41.7756493  38.6118553  69.3394913  50.9536493
  39.4528553  69.4024913  50.7316493  38.5748553  69.7364913  51.7296493
  38.7308553  69.4074913  51.0356493  37.6188553  54.4174913  41.6776493
  38.1548553  55.1054913  41.6676493  37.6218553  54.1434913  40.8496493
  37.6978553  54.4784913  41.5536493  40.5748553  64.8504913  45.7026493
  40.7468553  64.6404913  46.5316493  39.9198553  64.3164913  45.4866493
  40.5038553  64.7404913  45.7936493  46.8028553  58.7644913  49.2176493
  46.7078553  59.0834913  50.0236493  46.2098553  58.1254913  49.1796493
  46.7008553  58.7164913  49.3316493  41.3248553  64.7884913  48.2926493
  41.3778553  65.6354913  48.4946493  41.0398553  64.4184913  49.0296493
  41.2908553  64.8584913  48.4306493  47.5018553  65.4834913  47.4226493
  46.9878553  65.0714913  47.9936493  47.3758553  66.3274913  47.6036493
  47.4078553  65.5474913  47.5336493  48.0588553  54.7084913  42.0536493
  48.1078553  54.3904913  42.8646493  48.3818553  54.0644913  41.5606493
  48.1138553  54.5664913  42.1006493  34.1458553  69.1594913  54.5036493
  34.9018553  69.5084913  54.7616493  34.3228553  68.3064913  54.4466493
  34.2838553  69.0844913  54.5336493  50.5228553  58.9444913  50.3616493
  51.2948553  58.7194913  50.6986493  50.0478553  59.1614913  51.0616493
  50.5668553  58.9434913  50.5146493  38.0668553  58.2274913  43.3316493
  38.3388553  57.7974913  42.6236493  37.8908553  57.5914913  43.9026493
  38.0808553  58.0704913  43.3116493  50.7548553  65.9224913  37.5496493
  50.8738553  65.6354913  38.3646493  51.5618553  65.9434913  37.2196493
  50.8908553  65.8834913  37.6216493  37.8908553  65.6544913  42.8806493
  38.7418553  65.5744913  42.7076493  37.5338553  64.9724913  42.4686493
  37.9638553  65.5414913  42.7936493  36.2078553  59.3294913  46.4136493
  37.0508553  59.5494913  46.3706493  35.8188553  59.9024913  45.8826493
  36.2748553  59.4464913  46.3286493  48.6498553  62.4594913  37.1346493
  48.4298553  63.1904913  36.7126493  48.2018553  62.5104913  37.8816493
  48.5508553  62.5744913  37.1826493  40.2588553  65.6614913  41.1156493
  40.9718553  66.1564913  41.2056493  40.4808553  65.0944913  40.4896493
  40.3968553  65.6504913  41.0366493  52.8368553  57.3204913  36.5876493
  52.1748553  56.7524913  36.6106493  52.6438553  57.8324913  35.9076493
  52.7108553  57.3124913  36.4906493  34.4148553  67.3044913  44.4356493
  33.7478553  67.7924913  44.7116493  35.0948553  67.8494913  44.4646493
  34.4168553  67.4564913  44.4806493  42.0618553  61.0144913  54.5316493
  41.5778553  61.5914913  54.9736493  42.0338553  61.3094913  53.7106493
  41.9858553  61.1434913  54.4756493  53.1598553  61.6984913  49.1436493
  53.3748553  60.8984913  48.8676493  52.3098553  61.7584913  48.9546493
  53.0658553  61.5894913  49.0746493  34.4808553  63.9884913  39.5386493
  34.2958553  63.1494913  39.6906493  35.1398553  63.9524913  38.9686493
  34.5508553  63.8594913  39.4766493  50.8388553  56.8784913  38.8666493
  51.5848553  56.4714913  39.0656493  51.1018553  57.5934913  38.4416493
  50.9878553  56.9244913  38.8336493  44.7818553  69.3644913  43.4426493
  44.2588553  69.9984913  43.1496493  45.0918553  69.0004913  42.7136493
  44.7498553  69.4044913  43.2916493  34.6528553  68.1524913  39.1136493
  35.2048553  68.7214913  39.4776493  34.4208553  67.6374913  39.7786493
  34.6998553  68.1604913  39.2656493  38.8568553  67.1524913  46.2026493
  39.3238553  67.4414913  46.8806493  39.4288553  66.6744913  45.7486493
  39.0108553  67.1244913  46.2356493  47.2928553  59.1664913  43.9396493
  47.6368553  59.3184913  44.7266493  46.8398553  58.4284913  44.0526493
  47.2768553  59.0794913  44.0726493  34.4828553  66.6014913  36.7416493
  35.2388553  66.1694913  36.7996493  34.4978553  67.1334913  37.4326493
  34.5968553  66.6164913  36.8526493  35.4228553  64.8224913  44.7466493
  35.8538553  64.6934913  43.9996493  35.2178553  65.6704913  44.7206493
  35.4558553  64.9284913  44.6326493  41.7688553  58.3864913  38.3966493
  41.7668553  58.2694913  37.5316493  41.5878553  59.2344913  38.4886493
  41.7418553  58.4944913  38.2826493  39.5068553  68.3384913  43.0286493
  39.6328553  69.1814913  43.2156493  40.1748553  67.9394913  43.4246493
  39.6248553  68.4044913  43.1146493  37.6368553  61.8214913  52.8906493
  37.1008553  61.3154913  53.3586493  37.6568553  61.4314913  52.1106493
  37.5598553  61.6884913  52.8446493  38.1218553  61.2184913  38.0306493
  37.9938553  60.7704913  38.7686493  37.5398553  60.8764913  37.4786493
  38.0168553  61.1014913  38.0586493  38.2888553  63.0484913  44.6296493
  37.5078553  62.9894913  44.2466493  38.3608553  62.2964913  45.0666493
  38.1838553  62.9294913  44.6376493  38.7188553  62.7854913  48.0976493
  38.7438553  62.1104913  47.5466493  38.0728553  63.2814913  47.7856493
  38.6278553  62.7584913  47.9706493  48.6138553  60.4984913  46.4936493
  47.9518553  60.8264913  46.9566493  48.8008553  61.1324913  45.9246493
  48.5438553  60.6404913  46.4776493  45.2588553  56.4044913  49.9226493
  45.4078553  55.5794913  49.6796493  45.6378553  56.4594913  50.7066493
  45.3368553  56.2904913  50.0026493  46.8068553  58.4674913  40.0046493
  47.2968553  59.1844913  39.9276493  46.0168553  58.7284913  39.7416493
  46.7628553  58.6114913  39.9546493  36.5178553  64.1404913  53.6566493
  36.4808553  64.6414913  52.9426493  36.8488553  63.3884913  53.3616493
  36.5608553  64.1024913  53.5076493  48.1208553  66.3454913  51.9146493
  48.6048553  67.0634913  52.0126493  48.5148553  65.9184913  51.2636493
  48.2508553  66.3884913  51.8326493  42.4168553  69.1904913  53.0916493
  42.7708553  69.0124913  53.8686493  41.9808553  68.4614913  52.8926493
  42.4048553  69.0564913  53.1776493  43.3888553  59.9374913  45.7296493
  43.8688553  60.6364913  45.9376493  43.7618553  59.2904913  46.1806493
  43.5148553  59.9454913  45.8266493  45.5778553  63.1064913  38.0036493
  45.5698553  63.8284913  37.5136493  44.9388553  63.2414913  38.5806493
  45.4828553  63.2334913  38.0166493  50.5498553  66.9764913  41.9846493
  50.9058553  66.6264913  42.6996493  50.5418553  66.3154913  41.4146493
  50.6018553  66.8264913  42.0056493  46.5948553  70.0424913  45.8286493
  45.9918553  69.7464913  45.2716493  47.1398553  70.4944913  45.3196493
  46.5858553  70.0654913  45.6706493  46.6078553  66.8934913  45.2286493
  45.8108553  67.1174913  45.5026493  46.8658553  66.2994913  45.8136493
  46.5278553  66.8384913  45.3556493  40.1708553  55.4484913  37.6646493
  40.2678553  55.3414913  38.5256493  39.4628553  55.9544913  37.5996493
  40.0808553  55.5074913  37.7826493  49.8678553  64.8914913  50.0746493
  49.9228553  65.0164913  49.2126493  50.6208553  65.2114913  50.3766493
  49.9868553  64.9564913  49.9916493  50.8998553  55.1894913  53.0616493
  50.2628553  54.7894913  52.6196493  50.9258553  54.7584913  53.8196493
  50.8098553  55.0674913  53.1076493  37.2928553  63.7554913  38.9076493
  37.6168553  62.9764913  38.6856493  37.9388553  64.1234913  39.3626493
  37.4358553  63.6944913  38.9416493  45.5988553  64.6974913  49.6746493
  45.4438553  65.3074913  50.2786493  46.1328553  64.1394913  50.0806493
  45.6548553  64.7054913  49.8236493  34.2898553  55.4164913  39.8756493
  34.4188553  54.7084913  39.3836493  33.9228553  55.0984913  40.6006493
  34.2548553  55.2644913  39.9106493  43.9828553  63.0974913  40.3326493
  44.0418553  63.7474913  40.9116493  43.7938553  62.4014913  40.8236493
  43.9638553  63.0904913  40.4906493  49.2088553  67.4264913  46.2016493
  48.7298553  67.7244913  45.5356493  48.8528553  66.6504913  46.3796493
  49.0858553  67.3554913  46.1296493  38.4788553  57.6144913  36.8446493
  37.9678553  57.6674913  36.1386493  39.2628553  57.8544913  36.5486493
  38.5188553  57.6574913  36.6966493  43.2058553  65.1444913  44.7636493
  42.3588553  64.9504913  44.8446493  43.5298553  64.9794913  45.5566493
  43.1278553  65.0914913  44.8926493  37.0538553  64.8374913  47.0796493
  37.7758553  65.3254913  47.0426493  36.7838553  64.8074913  46.2506493
  37.1208553  64.9054913  46.9516493  40.2838553  60.0084913  43.8146493
  41.1298553  59.8184913  43.9126493  39.9138553  59.2314913  43.6766493
  40.3538553  59.8654913  43.8086493  35.1048553  61.3464913  40.4696493
  35.5938553  61.0544913  41.1306493  35.2338553  60.7534913  39.8426493
  35.1958553  61.2154913  40.4746493  50.1398553  64.3684913  47.3206493
  50.1328553  63.5924913  47.7186493  49.2988553  64.6024913  47.3136493
  50.0148553  64.2884913  47.3786493  39.6298553  62.7804913  35.9556493
  39.0198553  62.3754913  36.4296493  39.2438553  62.8984913  35.1826493
  39.4828553  62.7374913  35.9116493  36.4488553  65.8894913  51.3576493
  36.0278553  65.3714913  50.7966493  36.0968553  66.6754913  51.2146493
  36.3348553  65.9294913  51.2536493  51.3958553  64.4394913  44.7576493
  51.1098553  64.8404913  45.4776493  52.2558553  64.3774913  44.8846493
  51.4808553  64.4894913  44.8826493  41.0848553  61.2414913  38.6656493
  41.3568553  62.0674913  38.7326493  40.2218553  61.3164913  38.5696493
  40.9978553  61.3744913  38.6606493  49.0578553  58.3634913  53.2976493
  48.5328553  58.8224913  53.8216493  48.6968553  57.5684913  53.2916493
  48.9268553  58.3134913  53.3736493  34.5648553  57.2114913  45.2016493
  34.6088553  57.5554913  44.4006493  35.3198553  57.4484913  45.5686493
  34.6828553  57.2974913  45.1376493  52.5268553  70.0724913  45.2866493
  52.8168553  70.3294913  44.5056493  53.2218553  70.1684913  45.8056493
  52.6728553  70.1244913  45.2476493  47.5498553  61.9324913  53.3736493
  47.6228553  62.0364913  54.2366493  46.9158553  62.4904913  53.1526493
  47.4668553  62.0304913  53.4686493  49.8178553  62.2514913  51.7386493
  50.1368553  63.0374913  51.9416493  49.4478553  61.9814913  52.4816493
  49.8108553  62.3274913  51.8786493  49.1318553  68.6754913  37.2686493
  49.4658553  67.8694913  37.3036493  48.3768553  68.6034913  37.6986493
  49.0698553  68.5454913  37.3376493  49.6138553  60.5094913  42.9276493
  48.8688553  60.1864913  43.2456493  49.6158553  61.3354913  43.2076493
  49.5038553  60.5834913  43.0156493  52.5158553  62.7934913  54.4736493
  52.4638553  62.4524913  53.6726493  53.2528553  63.2604913  54.4516493
  52.6168553  62.8124913  54.3516493  52.0538553  66.4694913  50.6796493
  52.6818553  65.9204913  50.4236493  51.9928553  67.0344913  50.0176493
  52.1378553  66.4724913  50.5436493  46.5058553  66.5504913  36.6716493
  47.1898553  66.0364913  36.5026493  46.0888553  66.5964913  35.9066493
  46.5448553  66.4814913  36.5336493  41.1878553  67.7004913  47.9756493
  40.8898553  68.2924913  48.5426493  41.2428553  68.1424913  47.2266493
  41.1518553  67.8534913  47.9486493  39.1668553  66.6504913  51.3736493
  38.3608553  66.3604913  51.5406493  39.0778553  67.5184913  51.3796493
  39.0348553  66.7354913  51.3986493  48.5258553  56.8394913  50.3886493
  49.2698553  57.2914913  50.3256493  47.9598553  57.3094913  49.9196493
  48.5528553  56.9764913  50.3106493  43.7038553  64.1234913  47.4666493
  44.1798553  64.4974913  48.0946493  42.8808553  64.2574913  47.7256493
  43.6528553  64.1984913  47.5976493  40.4138553  59.7264913  50.2076493
  40.5748553  58.9824913  50.6346493  40.3688553  59.4774913  49.3726493
  40.4308553  59.5794913  50.1476493  49.8108553  54.8194913  48.0586493
  49.5308553  55.6444913  48.0146493  50.5268553  54.8724913  48.5546493
  49.8758553  54.9494913  48.1256493  42.1658553  55.5344913  50.0876493
  42.8708553  55.8544913  49.6856493  42.4068553  54.7274913  50.3146493
  42.3048553  55.4624913  50.0616493  41.1508553  69.7444913  46.0836493
  40.5268553  70.3264913  45.9016493  41.3988553  69.4584913  45.2976493
  41.0948553  69.7884913  45.9406493  45.4598553  66.3784913  53.0726493
  46.2168553  66.6644913  52.7466493  44.9128553  66.4304913  52.3946493
  45.4908553  66.4284913  52.9236493  49.3688553  68.9284913  51.5766493
  49.7148553  69.1984913  52.3306493  49.6628553  69.5104913  50.9966493
  49.4638553  69.0544913  51.6026493  51.2318553  61.0744913  36.9156493
  51.6098553  61.7514913  36.5156493  50.3898553  61.2984913  36.9466493
  51.1628553  61.2074913  36.8606493  42.7448553  64.5204913  35.9986493
  41.9398553  64.3434913  35.7136493  42.7118553  65.3714913  36.1906493
  42.6208553  64.6194913  35.9856493  38.6748553  60.5874913  46.1486493
  39.1148553  60.4844913  45.4026493  39.2198553  60.2744913  46.7536493
  38.8198553  60.5264913  46.1276493  46.6908553  59.6894913  51.7406493
  46.0428553  60.1594913  52.0886493  47.2558553  59.6004913  52.3996493
  46.6788553  59.7454913  51.8896493  46.3788553  61.2264913  48.0386493
  46.6808553  61.6464913  48.7416493  46.4148553  60.3864913  48.2706493
  46.4288553  61.1644913  48.1766493  48.9268553  60.6734913  40.2906493
  49.1338553  60.4724913  41.1146493  49.6828553  60.9414913  39.9486493
  49.0688553  60.6834913  40.3616493  42.2218553  55.5724913  46.1956493
  41.3958553  55.4234913  46.4326493  42.1818553  55.6074913  45.3246493
  42.0938553  55.5554913  46.1016493  49.9488553  56.7564913  41.7646493
  49.2348553  56.2854913  41.9356493  49.7868553  57.0974913  40.9786493
  49.8198553  56.7374913  41.6736493  50.3918553  64.7004913  40.1446493
  50.8678553  63.9714913  40.0966493  49.5708553  64.4144913  40.0686493
  50.3408553  64.5504913  40.1256493  43.8628553  66.6124913  50.9836493
  43.0678553  66.5484913  51.3346493  43.9338553  67.4594913  50.7886493
  43.7558553  66.7274913  51.0066493  34.7868553  55.9704913  52.2306493
  34.6468553  56.7654913  51.8996493  34.0008553  55.7274913  52.5196493
  34.6498553  56.0524913  52.2246493  37.8508553  58.7144913  39.4556493
  37.9768553  58.3854913  38.6576493  37.0388553  58.4654913  39.6546493
  37.7498553  58.6294913  39.3676493  46.6078553  65.8674913  42.4996493
  46.6838553  66.2084913  43.2986493  46.7768553  65.0204913  42.6206493
  46.6438553  65.7924913  42.6356493  44.1298553  65.1414913  42.0646493
  43.8318553  64.8264913  42.8216493  44.8248553  65.6144913  42.2996493
  44.1888553  65.1644913  42.2116493  44.3518553  69.2594913  50.0916493
  45.0388553  69.1454913  50.6166493  44.4858553  70.0504913  49.7476493
  44.4728553  69.3594913  50.1186493  52.5278553  61.8684913  51.9026493
  51.6728553  61.7464913  52.0286493  52.6808553  61.4734913  51.1396493
  52.4238553  61.7914913  51.8086493  47.0408553  62.5334913  50.4786493
  46.7858553  61.8144913  50.9006493  47.8618553  62.6494913  50.7486493
  47.1248553  62.4444913  50.5806493  44.9748553  63.7234913  53.6656493
  45.2978553  64.4094913  53.2336493  44.2708553  64.0464913  54.0676493
  44.9178553  63.8724913  53.6606493  44.7598553  67.1874913  47.5246493
  44.0658553  67.5894913  47.8676493  45.4368553  67.6204913  47.8636493
  44.7568553  67.3104913  47.6256493  50.1368553  69.7804913  54.1046493
  50.9128553  69.3904913  54.1876493  49.6678553  69.4444913  54.7596493
  50.1818553  69.6734913  54.2136493  37.8278553  60.7254913  49.8716493
  38.2028553  61.3444913  49.3846493  38.5018553  60.2514913  50.1566493
  37.9828553  60.7474913  49.8416493  35.6028553  59.1734913  49.1466493
  35.6798553  59.0044913  48.2936493  36.3488553  59.5794913  49.3436493
  35.7238553  59.2084913  49.0496493  51.1618553  61.8134913  39.5866493
  51.2648553  61.7554913  38.7226493  51.9028553  61.4814913  39.9046493
  51.2868553  61.7564913  39.5056493  38.1568553  56.5834913  51.5576493
  38.0758553  55.7394913  51.7636493  37.8428553  56.6274913  50.7446493
  38.0988553  56.4654913  51.4676493  45.0818553  68.7784913  40.6936493
  44.8768553  69.6114913  40.5346493  44.3068553  68.3964913  40.8156493
  44.9368553  68.8454913  40.6886493  50.2638553  61.9594913  48.9426493
  50.2618553  61.0964913  49.0666493  50.3308553  62.2834913  49.7496493
  50.2738553  61.8794913  49.0796493  34.9998553  64.3994913  49.3706493
  35.3198553  64.6184913  48.5896493  34.8998553  63.5344913  49.3156493
  35.0318553  64.3044913  49.2476493  36.4558553  60.3354913  35.9886493
  35.7838553  60.3494913  36.5446493  36.5508553  59.4874913  35.8046493
  36.3708553  60.2124913  36.0436493  46.1428553  56.7594913  52.7246493
  46.2348553  57.4714913  53.2186493  45.5058553  56.3144913  53.1216493
  46.0618553  56.7984913  52.8566493  45.1368553  56.9494913  43.5786493
  44.4368553  57.4674913  43.5226493  45.1748553  56.5694913  42.7946493
  45.0388553  56.9704913  43.4546493  40.4438553  69.0404913  37.1026493
  40.8848553  69.1204913  37.8506493  39.6388553  68.8244913  37.3606493
  40.3898553  69.0204913  37.2516493  48.7348553  57.4654913  46.3786493
  49.5898553  57.5644913  46.5236493  48.3658553  58.0184913  46.9436493
  48.8068553  57.5624913  46.4836493  39.7628553  63.6914913  50.7556493
  39.3668553  64.4654913  50.8306493  39.3568553  63.3184913  50.0796493
  39.6448553  63.7504913  50.6666493  49.0388553  62.7454913  44.8696493
  49.7048553  63.2864913  45.0296493  48.6938553  63.0564913  44.1306493
  49.0858553  62.8714913  44.7846493  37.7728553  68.1104913  37.7036493
  37.5288553  67.8034913  38.4836493  37.7398553  67.4074913  37.1876493
  37.7318553  67.9614913  37.7426493  40.5918553  66.3554913  36.4466493
  39.7738553  66.0874913  36.5866493  40.5638553  67.2074913  36.6316493
  40.4668553  66.4424913  36.4946493  40.1918553  56.6684913  48.2056493
  39.3278553  56.7524913  48.2856493  40.4118553  56.1544913  48.8746493
  40.0968553  56.6054913  48.3166493  52.2098553  55.3034913  49.5346493
  52.1578553  55.2594913  50.4046493  52.8968553  54.8004913  49.3446493
  52.3038553  55.2234913  49.6346493  44.2948553  57.4164913  46.5796493
  43.5578553  56.9624913  46.6926493  44.8658553  57.0144913  47.1026493
  44.2698553  57.2894913  46.6736493  47.0268553  68.2644913  48.3676493
  47.2328553  68.5654913  49.1596493  46.9658553  68.9864913  47.8826493
  47.0478553  68.4154913  48.4126493  41.7978553  61.7454913  51.7836493
  41.4758553  61.1694913  51.2136493  41.4388553  62.5004913  51.5376493
  41.6978553  61.7714913  51.6636493  42.5938553  54.9974913  36.4106493
  42.6718553  55.2444913  35.5776493  41.8508553  55.3744913  36.6686493
  42.4958553  55.0894913  36.3256493  51.8388553  66.9034913  47.8256493
  51.8068553  66.0414913  47.6906493  51.1458553  67.2054913  47.3916493
  51.7318553  66.8204913  47.7416493  49.9438553  70.1634913  46.6226493
  50.4708553  70.0804913  45.9316493  49.5528553  69.3854913  46.6766493
  49.9638553  70.0364913  46.5286493  37.4118553  56.7514913  48.8536493
  37.0688553  55.9844913  48.6196493  36.7168553  57.2754913  48.9176493
  37.2588553  56.7154913  48.8286493  46.4578553  55.6074913  45.8306493
  47.1278553  56.1514913  45.9576493  45.9548553  56.0314913  45.2576493
  46.4828553  55.7504913  45.7646493  45.8168553  61.4154913  43.3236493
  46.3678553  60.8084913  43.6236493  45.3918553  61.6784913  44.0386493
  45.8358553  61.3644913  43.4726493  36.0648553  60.0654913  42.8096493
  35.6968553  60.3674913  43.5406493  36.5988553  59.4364913  43.0936493
  36.0888553  60.0174913  42.9596493  35.7528553  68.4734913  50.3206493
  35.1788553  68.8894913  50.8296493  36.4858553  68.9384913  50.4156493
  35.7768553  68.6034913  50.4096493  47.7868553  63.2464913  39.8856493
  47.8548553  62.3964913  40.0666493  46.9638553  63.3324913  39.6076493
  47.6748553  63.1334913  39.8716493  41.7058553  64.1374913  38.8236493
  41.8058553  64.2764913  37.9686493  42.5238553  64.0774913  39.1196493
  41.8408553  64.1484913  38.7406493  51.0608553  64.6194913  53.0366493
  51.6948553  64.4494913  53.6106493  51.4778553  65.0224913  52.3846493
  51.2158553  64.6544913  53.0256493  46.9408553  68.4664913  38.6256493
  46.6898553  68.3384913  39.4516493  46.6238553  67.7714913  38.2046493
  46.8568553  68.3454913  38.6856493  51.6858553  59.1834913  53.7746493
  51.4898553  59.8274913  54.3296493  50.9638553  58.6934913  53.7666493
  51.5508553  59.2064913  53.8556493  51.5848553  60.1244913  46.7456493
  50.7518553  60.3744913  46.6736493  51.5288553  59.2844913  46.9746493
  51.4538553  60.0374913  46.7686493  40.8448553  57.1124913  51.9396493
  41.0788553  56.5364913  51.3266493  40.0028553  56.9314913  52.0806493
  40.7548553  57.0004913  51.8696493  48.4718553  64.7304913  54.3916493
  49.3428553  64.6944913  54.3556493  48.2528553  65.1504913  53.6596493
  48.5688553  64.7864913  54.2786493  43.8268553  66.6744913  38.0556493
  44.5438553  66.3274913  37.6996493  43.7928553  67.4744913  37.7076493
  43.9278553  66.7414913  37.9516493  45.2358553  55.3154913  22.2944083
  44.9908553  55.8034913  21.6144083  46.0988553  55.2424913  22.1944083
  45.3268553  55.3764913  22.1794083  45.0448553  62.2314913  26.9654083
  44.5208553  62.8274913  27.3284083  45.4418553  61.8634913  27.6494083
  45.0258553  62.2654913  27.1204083  34.9138553  66.3714913  22.4214083
  34.4728553  66.4894913  23.1644083  34.6308553  65.5964913  22.1364083
  34.8068553  66.2744913  22.4894083  51.1888553  69.6724913  19.9364083
  51.8898553  69.1534913  19.9324083  50.6018553  69.2274913  19.4674083
  51.2058553  69.5294913  19.8664083  34.6568553  60.1634913  18.9284083
  33.8788553  60.3254913  18.5684083  34.6958553  59.2924913  18.9504083
  34.5478553  60.0584913  18.8784083  37.7958553  65.4264913  17.6004083
  37.4038553  65.0554913  16.9144083  37.7158553  64.8284913  18.2294083
  37.7258553  65.2834913  17.5914083  47.7158553  63.2984913  23.6414083
  47.7958553  63.3024913  22.7724083  47.1318553  62.6664913  23.7904083
  47.6408553  63.2054913  23.5354083  37.4228553  67.0674913  21.5004083
  38.0308553  66.8974913  22.1034083  36.6718553  66.9274913  21.9214083
  37.4018553  67.0214913  21.6514083  41.7048553  56.4024913  21.4494083
  41.6348553  57.0794913  20.9034083  42.4458553  56.0144913  21.2004083
  41.8038553  56.4454913  21.3314083  36.3138553  70.1584913  17.5774083
  36.7808553  70.2424913  16.8454083  36.7688553  69.5804913  18.0464083
  36.4498553  70.0854913  17.5384083  34.8538553  69.1064913  28.6764083
  34.9828553  68.8264913  29.4924083  34.2438553  68.5654913  28.3674083
  34.7828553  68.9854913  28.7514083  41.4278553  66.6314913  33.7434083
  41.1918553  66.6284913  34.5834083  40.6798553  66.4834913  33.3194083
  41.2818553  66.6084913  33.8044083  36.2998553  63.6274913  22.8784083
  35.8378553  63.2354913  22.2514083  36.9998553  63.1144913  22.9704083
  36.3348553  63.4944913  22.7994083  40.8078553  59.2374913  28.2254083
  41.4858553  59.2554913  27.6764083  40.7628553  58.4014913  28.4704083
  40.9008553  59.1164913  28.1804083  38.3008553  61.7274913  22.9014083
  39.1178553  61.5404913  23.1444083  37.8238553  61.1134913  23.2974083
  38.3508553  61.6094913  22.9964083  42.5048553  67.7084913  25.5114083
  42.8528553  66.9094913  25.5414083  43.1698553  68.2124913  25.2564083
  42.6548553  67.6644913  25.4784083  42.5618553  67.1574913  21.7224083
  42.8928553  66.5134913  22.2084083  42.8018553  66.9464913  20.9114083
  42.6458553  67.0314913  21.6744083  44.5298553  61.2884913  33.0614083
  43.6818553  61.1894913  32.8834083  44.5588553  62.0334913  33.5154083
  44.4088553  61.3844913  33.1024083  38.8978553  56.8214913  22.1674083
  38.6018553  57.3224913  21.5174083  39.7648553  56.8994913  22.1104083
  38.9818553  56.9074913  22.0634083  49.0878553  54.2484913  32.1754083
  48.9298553  55.0174913  31.7934083  48.3158553  54.0284913  32.5194083
  48.9498553  54.3294913  32.1704083  41.8768553  55.9634913  24.3904083
  41.9498553  56.8234913  24.5194083  41.8388553  55.8884913  23.5224083
  41.8818553  56.0794913  24.2814083  46.5498553  58.8894913  16.6894083
  46.0998553  59.5704913  16.9964083  46.6638553  58.3854913  17.3924083
  46.5008553  58.9154913  16.8384083  34.7558553  61.3884913  25.8914083
  34.4998553  62.2194913  25.8164083  34.0918553  61.0054913  26.3084083
  34.6198553  61.4544913  25.9424083  40.5058553  68.9424913  21.2714083
  39.9268553  68.6674913  21.8634083  41.1298553  68.3334913  21.2964083
  40.5128553  68.8124913  21.3624083  37.7848553  56.2054913  26.3824083
  37.2638553  55.5774913  26.0744083  38.3758553  55.7684913  26.8534083
  37.7958553  56.0474913  26.4064083  41.0908553  58.3384913  35.6804083
  41.2078553  57.8844913  34.9444083  41.3788553  59.1364913  35.4774083
  41.1508553  58.3894913  35.5414083  36.2108553  69.7684913  21.7224083
  36.8668553  69.1934913  21.7374083  36.5998553  70.5174913  21.5014083
  36.3658553  69.7934913  21.6924083  51.9438553  58.8624913  22.9844083
  51.5978553  59.5404913  23.4104083  51.3078553  58.2644913  23.0004083
  51.7988553  58.8744913  23.0494083  36.8238553  57.9354913  34.6644083
  36.0458553  57.5454913  34.5924083  37.3148553  57.5234913  34.0734083
  36.7808553  57.8164913  34.5664083  37.0288553  68.2554913  25.2224083
  37.4518553  67.8994913  24.5484083  37.3528553  67.8334913  25.9144083
  37.1388553  68.1404913  25.2254083  43.4728553  55.5784913  33.8324083
  43.6508553  54.7694913  33.5574083  43.3298553  56.0194913  33.0934083
  43.4778553  55.5244913  33.6824083  44.0668553  60.5044913  22.6054083
  44.3538553  60.2724913  21.8154083  44.7988553  60.5834913  23.0744083
  44.2168553  60.4814913  22.5584083  44.7888553  60.8434913  17.7264083
  45.0698553  61.6314913  17.9754083  44.0128553  61.0084913  17.3634083
  44.7158553  60.9844913  17.7094083  51.6188553  57.1854913  28.3534083
  52.3758553  57.2574913  27.9254083  51.6818553  56.4124913  28.7524083
  51.7398553  57.0824913  28.3484083  34.1718553  58.4834913  32.2504083
  34.1678553  59.0704913  32.8964083  34.7658553  58.7954913  31.6934083
  34.2588553  58.6164913  32.2634083  46.5098553  68.8174913  32.7924083
  46.4758553  69.1994913  33.5764083  47.3638553  68.7754913  32.6214083
  46.6308553  68.8674913  32.8834083  43.6478553  69.0144913  17.5424083
  43.4668553  69.5594913  18.1994083  44.4138553  69.3044913  17.2414083
  43.7338553  69.1384913  17.5954083  47.1548553  56.9104913  18.5964083
  47.6948553  56.2284913  18.6724083  47.2168553  57.3084913  19.3704083
  47.2438553  56.8684913  18.7224083  35.1088553  58.0784913  21.1654083
  34.9948553  57.2144913  21.1964083  34.6338553  58.3724913  21.8354083
  35.0218553  57.9944913  21.2684083  37.2508553  70.4884913  29.3804083
  36.5528553  69.9804913  29.5064083  37.5108553  70.2834913  28.5724083
  37.1858553  70.3834913  29.2794083  44.4128553  59.2864913  19.9104083
  43.9048553  58.6244913  19.6564083  44.4648553  59.7904913  19.2004083
  44.3458553  59.2634913  19.7684083  44.4128553  56.2274913  19.8014083
  43.9578553  55.8254913  19.1754083  45.1858553  56.3824913  19.4264083
  44.4598553  56.1914913  19.6534083  43.0108553  58.5944913  24.3234083
  43.0848553  59.1624913  23.6654083  43.1318553  59.0864913  25.0334083
  43.0388553  58.7514913  24.3314083  48.2358553  68.4294913  22.7354083
  48.9368553  67.9474913  22.9244083  47.5758553  67.8604913  22.7804083
  48.2418553  68.2744913  22.7694083  38.6118553  69.3394913  31.9474083
  39.4528553  69.4024913  31.7254083  38.5748553  69.7364913  32.7234083
  38.7308553  69.4074913  32.0294083  37.6188553  54.4174913  22.6714083
  38.1548553  55.1054913  22.6614083  37.6218553  54.1434913  21.8434083
  37.6978553  54.4784913  22.5474083  40.5748553  64.8504913  26.6964083
  40.7468553  64.6404913  27.5254083  39.9198553  64.3164913  26.4804083
  40.5038553  64.7404913  26.7874083  46.8028553  58.7644913  30.2114083
  46.7078553  59.0834913  31.0174083  46.2098553  58.1254913  30.1734083
  46.7008553  58.7164913  30.3254083  41.3248553  64.7884913  29.2864083
  41.3778553  65.6354913  29.4884083  41.0398553  64.4184913  30.0234083
  41.2908553  64.8584913  29.4244083  47.5018553  65.4834913  28.4164083
  46.9878553  65.0714913  28.9874083  47.3758553  66.3274913  28.5974083
  47.4078553  65.5474913  28.5274083  48.0588553  54.7084913  23.0474083
  48.1078553  54.3904913  23.8584083  48.3818553  54.0644913  22.5544083
  48.1138553  54.5664913  23.0944083  34.1458553  69.1594913  35.4974083
  34.9018553  69.5084913  35.7554083  34.3228553  68.3064913  35.4404083
  34.2838553  69.0844913  35.5274083  50.5228553  58.9444913  31.3554083
  51.2948553  58.7194913  31.6924083  50.0478553  59.1614913  32.0554083
  50.5668553  58.9434913  31.5084083  38.0668553  58.2274913  24.3254083
  38.3388553  57.7974913  23.6174083  37.8908553  57.5914913  24.8964083
  38.0808553  58.0704913  24.3054083  50.7548553  65.9224913  18.5434083
  50.8738553  65.6354913  19.3584083  51.5618553  65.9434913  18.2134083
  50.8908553  65.8834913  18.6154083  37.8908553  65.6544913  23.8744083
  38.7418553  65.5744913  23.7014083  37.5338553  64.9724913  23.4624083
  37.9638553  65.5414913  23.7874083  36.2078553  59.3294913  27.4074083
  37.0508553  59.5494913  27.3644083  35.8188553  59.9024913  26.8764083
  36.2748553  59.4464913  27.3224083  48.6498553  62.4594913  18.1284083
  48.4298553  63.1904913  17.7064083  48.2018553  62.5104913  18.8754083
  48.5508553  62.5744913  18.1764083  40.2588553  65.6614913  22.1094083
  40.9718553  66.1564913  22.1994083  40.4808553  65.0944913  21.4834083
  40.3968553  65.6504913  22.0304083  52.8368553  57.3204913  17.5814083
  52.1748553  56.7524913  17.6044083  52.6438553  57.8324913  16.9014083
  52.7108553  57.3124913  17.4844083  34.4148553  67.3044913  25.4294083
  33.7478553  67.7924913  25.7054083  35.0948553  67.8494913  25.4584083
  34.4168553  67.4564913  25.4744083  42.0618553  61.0144913  35.5254083
  41.5778553  61.5914913  35.9674083  42.0338553  61.3094913  34.7044083
  41.9858553  61.1434913  35.4694083  53.1598553  61.6984913  30.1374083
  53.3748553  60.8984913  29.8614083  52.3098553  61.7584913  29.9484083
  53.0658553  61.5894913  30.0684083  34.4808553  63.9884913  20.5324083
  34.2958553  63.1494913  20.6844083  35.1398553  63.9524913  19.9624083
  34.5508553  63.8594913  20.4704083  50.8388553  56.8784913  19.8604083
  51.5848553  56.4714913  20.0594083  51.1018553  57.5934913  19.4354083
  50.9878553  56.9244913  19.8274083  44.7818553  69.3644913  24.4364083
  44.2588553  69.9984913  24.1434083  45.0918553  69.0004913  23.7074083
  44.7498553  69.4044913  24.2854083  34.6528553  68.1524913  20.1074083
  35.2048553  68.7214913  20.4714083  34.4208553  67.6374913  20.7724083
  34.6998553  68.1604913  20.2594083  38.8568553  67.1524913  27.1964083
  39.3238553  67.4414913  27.8744083  39.4288553  66.6744913  26.7424083
  39.0108553  67.1244913  27.2294083  47.2928553  59.1664913  24.9334083
  47.6368553  59.3184913  25.7204083  46.8398553  58.4284913  25.0464083
  47.2768553  59.0794913  25.0664083  34.4828553  66.6014913  17.7354083
  35.2388553  66.1694913  17.7934083  34.4978553  67.1334913  18.4264083
  34.5968553  66.6164913  17.8464083  35.4228553  64.8224913  25.7404083
  35.8538553  64.6934913  24.9934083  35.2178553  65.6704913  25.7144083
  35.4558553  64.9284913  25.6264083  41.7688553  58.3864913  19.3904083
  41.7668553  58.2694913  18.5254083  41.5878553  59.2344913  19.4824083
  41.7418553  58.4944913  19.2764083  39.5068553  68.3384913  24.0224083
  39.6328553  69.1814913  24.2094083  40.1748553  67.9394913  24.4184083
  39.6248553  68.4044913  24.1084083  37.6368553  61.8214913  33.8844083
  37.1008553  61.3154913  34.3524083  37.6568553  61.4314913  33.1044083
  37.5598553  61.6884913  33.8384083  38.1218553  61.2184913  19.0244083
  37.9938553  60.7704913  19.7624083  37.5398553  60.8764913  18.4724083
  38.0168553  61.1014913  19.0524083  38.2888553  63.0484913  25.6234083
  37.5078553  62.9894913  25.2404083  38.3608553  62.2964913  26.0604083
  38.1838553  62.9294913  25.6314083  38.7188553  62.7854913  29.0914083
  38.7438553  62.1104913  28.5404083  38.0728553  63.2814913  28.7794083
  38.6278553  62.7584913  28.9644083  48.6138553  60.4984913  27.4874083
  47.9518553  60.8264913  27.9504083  48.8008553  61.1324913  26.9184083
  48.5438553  60.6404913  27.4714083  45.2588553  56.4044913  30.9164083
  45.4078553  55.5794913  30.6734083  45.6378553  56.4594913  31.7004083
  45.3368553  56.2904913  30.9964083  46.8068553  58.4674913  20.9984083
  47.2968553  59.1844913  20.9214083  46.0168553  58.7284913  20.7354083
  46.7628553  58.6114913  20.9484083  36.5178553  64.1404913  34.6504083
  36.4808553  64.6414913  33.9364083  36.8488553  63.3884913  34.3554083
  36.5608553  64.1024913  34.5014083  48.1208553  66.3454913  32.9084083
  48.6048553  67.0634913  33.0064083  48.5148553  65.9184913  32.2574083
  48.2508553  66.3884913  32.8264083  42.4168553  69.1904913  34.0854083
  42.7708553  69.0124913  34.8624083  41.9808553  68.4614913  33.8864083
  42.4048553  69.0564913  34.1714083  43.3888553  59.9374913  26.7234083
  43.8688553  60.6364913  26.9314083  43.7618553  59.2904913  27.1744083
  43.5148553  59.9454913  26.8204083  45.5778553  63.1064913  18.9974083
  45.5698553  63.8284913  18.5074083  44.9388553  63.2414913  19.5744083
  45.4828553  63.2334913  19.0104083  50.5498553  66.9764913  22.9784083
  50.9058553  66.6264913  23.6934083  50.5418553  66.3154913  22.4084083
  50.6018553  66.8264913  22.9994083  46.5948553  70.0424913  26.8224083
  45.9918553  69.7464913  26.2654083  47.1398553  70.4944913  26.3134083
  46.5858553  70.0654913  26.6644083  46.6078553  66.8934913  26.2224083
  45.8108553  67.1174913  26.4964083  46.8658553  66.2994913  26.8074083
  46.5278553  66.8384913  26.3494083  40.1708553  55.4484913  18.6584083
  40.2678553  55.3414913  19.5194083  39.4628553  55.9544913  18.5934083
  40.0808553  55.5074913  18.7764083  49.8678553  64.8914913  31.0684083
  49.9228553  65.0164913  30.2064083  50.6208553  65.2114913  31.3704083
  49.9868553  64.9564913  30.9854083  50.8998553  55.1894913  34.0554083
  50.2628553  54.7894913  33.6134083  50.9258553  54.7584913  34.8134083
  50.8098553  55.0674913  34.1014083  37.2928553  63.7554913  19.9014083
  37.6168553  62.9764913  19.6794083  37.9388553  64.1234913  20.3564083
  37.4358553  63.6944913  19.9354083  45.5988553  64.6974913  30.6684083
  45.4438553  65.3074913  31.2724083  46.1328553  64.1394913  31.0744083
  45.6548553  64.7054913  30.8174083  34.2898553  55.4164913  20.8694083
  34.4188553  54.7084913  20.3774083  33.9228553  55.0984913  21.5944083
  34.2548553  55.2644913  20.9044083  43.9828553  63.0974913  21.3264083
  44.0418553  63.7474913  21.9054083  43.7938553  62.4014913  21.8174083
  43.9638553  63.0904913  21.4844083  49.2088553  67.4264913  27.1954083
  48.7298553  67.7244913  26.5294083  48.8528553  66.6504913  27.3734083
  49.0858553  67.3554913  27.1234083  38.4788553  57.6144913  17.8384083
  37.9678553  57.6674913  17.1324083  39.2628553  57.8544913  17.5424083
  38.5188553  57.6574913  17.6904083  43.2058553  65.1444913  25.7574083
  42.3588553  64.9504913  25.8384083  43.5298553  64.9794913  26.5504083
  43.1278553  65.0914913  25.8864083  37.0538553  64.8374913  28.0734083
  37.7758553  65.3254913  28.0364083  36.7838553  64.8074913  27.2444083
  37.1208553  64.9054913  27.9454083  40.2838553  60.0084913  24.8084083
  41.1298553  59.8184913  24.9064083  39.9138553  59.2314913  24.6704083
  40.3538553  59.8654913  24.8024083  35.1048553  61.3464913  21.4634083
  35.5938553  61.0544913  22.1244083  35.2338553  60.7534913  20.8364083
  35.1958553  61.2154913  21.4684083  50.1398553  64.3684913  28.3144083
  50.1328553  63.5924913  28.7124083  49.2988553  64.6024913  28.3074083
  50.0148553  64.2884913  28.3724083  39.6298553  62.7804913  16.9494083
  39.0198553  62.3754913  17.4234083  39.2438553  62.8984913  16.1764083
  39.4828553  62.7374913  16.9054083  36.4488553  65.8894913  32.3514083
  36.0278553  65.3714913  31.7904083  36.0968553  66.6754913  32.2084083
  36.3348553  65.9294913  32.2474083  51.3958553  64.4394913  25.7514083
  51.1098553  64.8404913  26.4714083  52.2558553  64.3774913  25.8784083
  51.4808553  64.4894913  25.8764083  41.0848553  61.2414913  19.6594083
  41.3568553  62.0674913  19.7264083  40.2218553  61.3164913  19.5634083
  40.9978553  61.3744913  19.6544083  49.0578553  58.3634913  34.2914083
  48.5328553  58.8224913  34.8154083  48.6968553  57.5684913  34.2854083
  48.9268553  58.3134913  34.3674083  34.5648553  57.2114913  26.1954083
  34.6088553  57.5554913  25.3944083  35.3198553  57.4484913  26.5624083
  34.6828553  57.2974913  26.1314083  52.5268553  70.0724913  26.2804083
  52.8168553  70.3294913  25.4994083  53.2218553  70.1684913  26.7994083
  52.6728553  70.1244913  26.2414083  47.5498553  61.9324913  34.3674083
  47.6228553  62.0364913  35.2304083  46.9158553  62.4904913  34.1464083
  47.4668553  62.0304913  34.4624083  49.8178553  62.2514913  32.7324083
  50.1368553  63.0374913  32.9354083  49.4478553  61.9814913  33.4754083
  49.8108553  62.3274913  32.8724083  49.1318553  68.6754913  18.2624083
  49.4658553  67.8694913  18.2974083  48.3768553  68.6034913  18.6924083
  49.0698553  68.5454913  18.3314083  49.6138553  60.5094913  23.9214083
  48.8688553  60.1864913  24.2394083  49.6158553  61.3354913  24.2014083
  49.5038553  60.5834913  24.0094083  52.5158553  62.7934913  35.4674083
  52.4638553  62.4524913  34.6664083  53.2528553  63.2604913  35.4454083
  52.6168553  62.8124913  35.3454083  52.0538553  66.4694913  31.6734083
  52.6818553  65.9204913  31.4174083  51.9928553  67.0344913  31.0114083
  52.1378553  66.4724913  31.5374083  46.5058553  66.5504913  17.6654083
  47.1898553  66.0364913  17.4964083  46.0888553  66.5964913  16.9004083
  46.5448553  66.4814913  17.5274083  41.1878553  67.7004913  28.9694083
  40.8898553  68.2924913  29.5364083  41.2428553  68.1424913  28.2204083
  41.1518553  67.8534913  28.9424083  39.1668553  66.6504913  32.3674083
  38.3608553  66.3604913  32.5344083  39.0778553  67.5184913  32.3734083
  39.0348553  66.7354913  32.3924083  48.5258553  56.8394913  31.3824083
  49.2698553  57.2914913  31.3194083  47.9598553  57.3094913  30.9134083
  48.5528553  56.9764913  31.3044083  43.7038553  64.1234913  28.4604083
  44.1798553  64.4974913  29.0884083  42.8808553  64.2574913  28.7194083
  43.6528553  64.1984913  28.5914083  40.4138553  59.7264913  31.2014083
  40.5748553  58.9824913  31.6284083  40.3688553  59.4774913  30.3664083
  40.4308553  59.5794913  31.1414083  49.8108553  54.8194913  29.0524083
  49.5308553  55.6444913  29.0084083  50.5268553  54.8724913  29.5484083
  49.8758553  54.9494913  29.1194083  42.1658553  55.5344913  31.0814083
  42.8708553  55.8544913  30.6794083  42.4068553  54.7274913  31.3084083
  42.3048553  55.4624913  31.0554083  41.1508553  69.7444913  27.0774083
  40.5268553  70.3264913  26.8954083  41.3988553  69.4584913  26.2914083
  41.0948553  69.7884913  26.9344083  45.4598553  66.3784913  34.0664083
  46.2168553  66.6644913  33.7404083  44.9128553  66.4304913  33.3884083
  45.4908553  66.4284913  33.9174083  49.3688553  68.9284913  32.5704083
  49.7148553  69.1984913  33.3244083  49.6628553  69.5104913  31.9904083
  49.4638553  69.0544913  32.5964083  51.2318553  61.0744913  17.9094083
  51.6098553  61.7514913  17.5094083  50.3898553  61.2984913  17.9404083
  51.1628553  61.2074913  17.8544083  42.7448553  64.5204913  16.9924083
  41.9398553  64.3434913  16.7074083  42.7118553  65.3714913  17.1844083
  42.6208553  64.6194913  16.9794083  38.6748553  60.5874913  27.1424083
  39.1148553  60.4844913  26.3964083  39.2198553  60.2744913  27.7474083
  38.8198553  60.5264913  27.1214083  46.6908553  59.6894913  32.7344083
  46.0428553  60.1594913  33.0824083  47.2558553  59.6004913  33.3934083
  46.6788553  59.7454913  32.8834083  46.3788553  61.2264913  29.0324083
  46.6808553  61.6464913  29.7354083  46.4148553  60.3864913  29.2644083
  46.4288553  61.1644913  29.1704083  48.9268553  60.6734913  21.2844083
  49.1338553  60.4724913  22.1084083  49.6828553  60.9414913  20.9424083
  49.0688553  60.6834913  21.3554083  42.2218553  55.5724913  27.1894083
  41.3958553  55.4234913  27.4264083  42.1818553  55.6074913  26.3184083
  42.0938553  55.5554913  27.0954083  49.9488553  56.7564913  22.7584083
  49.2348553  56.2854913  22.9294083  49.7868553  57.0974913  21.9724083
  49.8198553  56.7374913  22.6674083  50.3918553  64.7004913  21.1384083
  50.8678553  63.9714913  21.0904083  49.5708553  64.4144913  21.0624083
  50.3408553  64.5504913  21.1194083  43.8628553  66.6124913  31.9774083
  43.0678553  66.5484913  32.3284083  43.9338553  67.4594913  31.7824083
  43.7558553  66.7274913  32.0004083  34.7868553  55.9704913  33.2244083
  34.6468553  56.7654913  32.8934083  34.0008553  55.7274913  33.5134083
  34.6498553  56.0524913  33.2184083  37.8508553  58.7144913  20.4494083
  37.9768553  58.3854913  19.6514083  37.0388553  58.4654913  20.6484083
  37.7498553  58.6294913  20.3614083  46.6078553  65.8674913  23.4934083
  46.6838553  66.2084913  24.2924083  46.7768553  65.0204913  23.6144083
  46.6438553  65.7924913  23.6294083  44.1298553  65.1414913  23.0584083
  43.8318553  64.8264913  23.8154083  44.8248553  65.6144913  23.2934083
  44.1888553  65.1644913  23.2054083  44.3518553  69.2594913  31.0854083
  45.0388553  69.1454913  31.6104083  44.4858553  70.0504913  30.7414083
  44.4728553  69.3594913  31.1124083  52.5278553  61.8684913  32.8964083
  51.6728553  61.7464913  33.0224083  52.6808553  61.4734913  32.1334083
  52.4238553  61.7914913  32.8024083  47.0408553  62.5334913  31.4724083
  46.7858553  61.8144913  31.8944083  47.8618553  62.6494913  31.7424083
  47.1248553  62.4444913  31.5744083  44.9748553  63.7234913  34.6594083
  45.2978553  64.4094913  34.2274083  44.2708553  64.0464913  35.0614083
  44.9178553  63.8724913  34.6544083  44.7598553  67.1874913  28.5184083
  44.0658553  67.5894913  28.8614083  45.4368553  67.6204913  28.8574083
  44.7568553  67.3104913  28.6194083  50.1368553  69.7804913  35.0984083
  50.9128553  69.3904913  35.1814083  49.6678553  69.4444913  35.7534083
  50.1818553  69.6734913  35.2074083  37.8278553  60.7254913  30.8654083
  38.2028553  61.3444913  30.3784083  38.5018553  60.2514913  31.1504083
  37.9828553  60.7474913  30.8354083  35.6028553  59.1734913  30.1404083
  35.6798553  59.0044913  29.2874083  36.3488553  59.5794913  30.3374083
  35.7238553  59.2084913  30.0434083  51.1618553  61.8134913  20.5804083
  51.2648553  61.7554913  19.7164083  51.9028553  61.4814913  20.8984083
  51.2868553  61.7564913  20.4994083  38.1568553  56.5834913  32.5514083
  38.0758553  55.7394913  32.7574083  37.8428553  56.6274913  31.7384083
  38.0988553  56.4654913  32.4614083  45.0818553  68.7784913  21.6874083
  44.8768553  69.6114913  21.5284083  44.3068553  68.3964913  21.8094083
  44.9368553  68.8454913  21.6824083  50.2638553  61.9594913  29.9364083
  50.2618553  61.0964913  30.0604083  50.3308553  62.2834913  30.7434083
  50.2738553  61.8794913  30.0734083  34.9998553  64.3994913  30.3644083
  35.3198553  64.6184913  29.5834083  34.8998553  63.5344913  30.3094083
  35.0318553  64.3044913  30.2414083  36.4558553  60.3354913  16.9824083
  35.7838553  60.3494913  17.5384083  36.5508553  59.4874913  16.7984083
  36.3708553  60.2124913  17.0374083  46.1428553  56.7594913  33.7184083
  46.2348553  57.4714913  34.2124083  45.5058553  56.3144913  34.1154083
  46.0618553  56.7984913  33.8504083  45.1368553  56.9494913  24.5724083
  44.4368553  57.4674913  24.5164083  45.1748553  56.5694913  23.7884083
  45.0388553  56.9704913  24.4484083  40.4438553  69.0404913  18.0964083
  40.8848553  69.1204913  18.8444083  39.6388553  68.8244913  18.3544083
  40.3898553  69.0204913  18.2454083  48.7348553  57.4654913  27.3724083
  49.5898553  57.5644913  27.5174083  48.3658553  58.0184913  27.9374083
  48.8068553  57.5624913  27.4774083  39.7628553  63.6914913  31.7494083
  39.3668553  64.4654913  31.8244083  39.3568553  63.3184913  31.0734083
  39.6448553  63.7504913  31.6604083  49.0388553  62.7454913  25.8634083
  49.7048553  63.2864913  26.0234083  48.6938553  63.0564913  25.1244083
  49.0858553  62.8714913  25.7784083  37.7728553  68.1104913  18.6974083
  37.5288553  67.8034913  19.4774083  37.7398553  67.4074913  18.1814083
  37.7318553  67.9614913  18.7364083  40.5918553  66.3554913  17.4404083
  39.7738553  66.0874913  17.5804083  40.5638553  67.2074913  17.6254083
  40.4668553  66.4424913  17.4884083  40.1918553  56.6684913  29.1994083
  39.3278553  56.7524913  29.2794083  40.4118553  56.1544913  29.8684083
  40.0968553  56.6054913  29.3104083  52.2098553  55.3034913  30.5284083
  52.1578553  55.2594913  31.3984083  52.8968553  54.8004913  30.3384083
  52.3038553  55.2234913  30.6284083  44.2948553  57.4164913  27.5734083
  43.5578553  56.9624913  27.6864083  44.8658553  57.0144913  28.0964083
  44.2698553  57.2894913  27.6674083  47.0268553  68.2644913  29.3614083
  47.2328553  68.5654913  30.1534083  46.9658553  68.9864913  28.8764083
  47.0478553  68.4154913  29.4064083  41.7978553  61.7454913  32.7774083
  41.4758553  61.1694913  32.2074083  41.4388553  62.5004913  32.5314083
  41.6978553  61.7714913  32.6574083  42.5938553  54.9974913  17.4044083
  42.6718553  55.2444913  16.5714083  41.8508553  55.3744913  17.6624083
  42.4958553  55.0894913  17.3194083  51.8388553  66.9034913  28.8194083
  51.8068553  66.0414913  28.6844083  51.1458553  67.2054913  28.3854083
  51.7318553  66.8204913  28.7354083  49.9438553  70.1634913  27.6164083
  50.4708553  70.0804913  26.9254083  49.5528553  69.3854913  27.6704083
  49.9638553  70.0364913  27.5224083  37.4118553  56.7514913  29.8474083
  37.0688553  55.9844913  29.6134083  36.7168553  57.2754913  29.9114083
  37.2588553  56.7154913  29.8224083  46.4578553  55.6074913  26.8244083
  47.1278553  56.1514913  26.9514083  45.9548553  56.0314913  26.2514083
  46.4828553  55.7504913  26.7584083  45.8168553  61.4154913  24.3174083
  46.3678553  60.8084913  24.6174083  45.3918553  61.6784913  25.0324083
  45.8358553  61.3644913  24.4664083  36.0648553  60.0654913  23.8034083
  35.6968553  60.3674913  24.5344083  36.5988553  59.4364913  24.0874083
  36.0888553  60.0174913  23.9534083  35.7528553  68.4734913  31.3144083
  35.1788553  68.8894913  31.8234083  36.4858553  68.9384913  31.4094083
  35.7768553  68.6034913  31.4034083  47.7868553  63.2464913  20.8794083
  47.8548553  62.3964913  21.0604083  46.9638553  63.3324913  20.6014083
  47.6748553  63.1334913  20.8654083  41.7058553  64.1374913  19.8174083
  41.8058553  64.2764913  18.9624083  42.5238553  64.0774913  20.1134083
  41.8408553  64.1484913  19.7344083  51.0608553  64.6194913  34.0304083
  51.6948553  64.4494913  34.6044083  51.4778553  65.0224913  33.3784083
  51.2158553  64.6544913  34.0194083  46.9408553  68.4664913  19.6194083
  46.6898553  68.3384913  20.4454083  46.6238553  67.7714913  19.1984083
  46.8568553  68.3454913  19.6794083  51.6858553  59.1834913  34.7684083
  51.4898553  59.8274913  35.3234083  50.9638553  58.6934913  34.7604083
  51.5508553  59.2064913  34.8494083  51.5848553  60.1244913  27.7394083
  50.7518553  60.3744913  27.6674083  51.5288553  59.2844913  27.9684083
  51.4538553  60.0374913  27.7624083  40.8448553  57.1124913  32.9334083
  41.0788553  56.5364913  32.3204083  40.0028553  56.9314913  33.0744083
  40.7548553  57.0004913  32.8634083  48.4718553  64.7304913  35.3854083
  49.3428553  64.6944913  35.3494083  48.2528553  65.1504913  34.6534083
  48.5688553  64.7864913  35.2724083  43.8268553  66.6744913  19.0494083
  44.5438553  66.3274913  18.6934083  43.7928553  67.4744913  18.7014083
  43.9278553  66.7414913  18.9454083  45.2358553  55.3154913   3.2881673
  44.9908553  55.8034913   2.6081673  46.0988553  55.2424913   3.1881673
  45.3268553  55.3764913   3.1731673  45.0448553  62.2314913   7.9591673
  44.5208553  62.8274913   8.3221673  45.4418553  61.8634913   8.6431673
  45.0258553  62.2654913   8.1141673  34.9138553  66.3714913   3.4151673
  34.4728553  66.4894913   4.1581673  34.6308553  65.5964913   3.1301673
  34.8068553  66.2744913   3.4831673  47.7158553  63.2984913   4.6351673
  47.7958553  63.3024913   3.7661673  47.1318553  62.6664913   4.7841673
  47.6408553  63.2054913   4.5291673  37.4228553  67.0674913   2.4941673
  38.0308553  66.8974913   3.0971673  36.6718553  66.9274913   2.9151673
  37.4018553  67.0214913   2.6451673  41.7048553  56.4024913   2.4431673
  41.6348553  57.0794913   1.8971673  42.4458553  56.0144913   2.1941673
  41.8038553  56.4454913   2.3251673  34.8538553  69.1064913   9.6701673
  34.9828553  68.8264913  10.4861673  34.2438553  68.5654913   9.3611673
  34.7828553  68.9854913   9.7451673  41.4278553  66.6314913  14.7371673
  41.1918553  66.6284913  15.5771673  40.6798553  66.4834913  14.3131673
  41.2818553  66.6084913  14.7981673  36.2998553  63.6274913   3.8721673
  35.8378553  63.2354913   3.2451673  36.9998553  63.1144913   3.9641673
  36.3348553  63.4944913   3.7931673  40.8078553  59.2374913   9.2191673
  41.4858553  59.2554913   8.6701673  40.7628553  58.4014913   9.4641673
  40.9008553  59.1164913   9.1741673  38.3008553  61.7274913   3.8951673
  39.1178553  61.5404913   4.1381673  37.8238553  61.1134913   4.2911673
  38.3508553  61.6094913   3.9901673  42.5048553  67.7084913   6.5051673
  42.8528553  66.9094913   6.5351673  43.1698553  68.2124913   6.2501673
  42.6548553  67.6644913   6.4721673  42.5618553  67.1574913   2.7161673
  42.8928553  66.5134913   3.2021673  42.8018553  66.9464913   1.9051673
  42.6458553  67.0314913   2.6681673  44.5298553  61.2884913  14.0551673
  43.6818553  61.1894913  13.8771673  44.5588553  62.0334913  14.5091673
  44.4088553  61.3844913  14.0961673  38.8978553  56.8214913   3.1611673
  38.6018553  57.3224913   2.5111673  39.7648553  56.8994913   3.1041673
  38.9818553  56.9074913   3.0571673  49.0878553  54.2484913  13.1691673
  48.9298553  55.0174913  12.7871673  48.3158553  54.0284913  13.5131673
  48.9498553  54.3294913  13.1641673  41.8768553  55.9634913   5.3841673
  41.9498553  56.8234913   5.5131673  41.8388553  55.8884913   4.5161673
  41.8818553  56.0794913   5.2751673  34.7558553  61.3884913   6.8851673
  34.4998553  62.2194913   6.8101673  34.0918553  61.0054913   7.3021673
  34.6198553  61.4544913   6.9361673  40.5058553  68.9424913   2.2651673
  39.9268553  68.6674913   2.8571673  41.1298553  68.3334913   2.2901673
  40.5128553  68.8124913   2.3561673  37.7848553  56.2054913   7.3761673
  37.2638553  55.5774913   7.0681673  38.3758553  55.7684913   7.8471673
  37.7958553  56.0474913   7.4001673  41.0908553  58.3384913  16.6741673
  41.2078553  57.8844913  15.9381673  41.3788553  59.1364913  16.4711673
  41.1508553  58.3894913  16.5351673  36.2108553  69.7684913   2.7161673
  36.8668553  69.1934913   2.7311673  36.5998553  70.5174913   2.4951673
  36.3658553  69.7934913   2.6861673  51.9438553  58.8624913   3.9781673
  51.5978553  59.5404913   4.4041673  51.3078553  58.2644913   3.9941673
  51.7988553  58.8744913   4.0431673  36.8238553  57.9354913  15.6581673
  36.0458553  57.5454913  15.5861673  37.3148553  57.5234913  15.0671673
  36.7808553  57.8164913  15.5601673  37.0288553  68.2554913   6.2161673
  37.4518553  67.8994913   5.5421673  37.3528553  67.8334913   6.9081673
  37.1388553  68.1404913   6.2191673  43.4728553  55.5784913  14.8261673
  43.6508553  54.7694913  14.5511673  43.3298553  56.0194913  14.0871673
  43.4778553  55.5244913  14.6761673  44.0668553  60.5044913   3.5991673
  44.3538553  60.2724913   2.8091673  44.7988553  60.5834913   4.0681673
  44.2168553  60.4814913   3.5521673  51.6188553  57.1854913   9.3471673
  52.3758553  57.2574913   8.9191673  51.6818553  56.4124913   9.7461673
  51.7398553  57.0824913   9.3421673  34.1718553  58.4834913  13.2441673
  34.1678553  59.0704913  13.8901673  34.7658553  58.7954913  12.6871673
  34.2588553  58.6164913  13.2571673  46.5098553  68.8174913  13.7861673
  46.4758553  69.1994913  14.5701673  47.3638553  68.7754913  13.6151673
  46.6308553  68.8674913  13.8771673  35.1088553  58.0784913   2.1591673
  34.9948553  57.2144913   2.1901673  34.6338553  58.3724913   2.8291673
  35.0218553  57.9944913   2.2621673  37.2508553  70.4884913  10.3741673
  36.5528553  69.9804913  10.5001673  37.5108553  70.2834913   9.5661673
  37.1858553  70.3834913  10.2731673  43.0108553  58.5944913   5.3171673
  43.0848553  59.1624913   4.6591673  43.1318553  59.0864913   6.0271673
  43.0388553  58.7514913   5.3251673  48.2358553  68.4294913   3.7291673
  48.9368553  67.9474913   3.9181673  47.5758553  67.8604913   3.7741673
  48.2418553  68.2744913   3.7631673  38.6118553  69.3394913  12.9411673
  39.4528553  69.4024913  12.7191673  38.5748553  69.7364913  13.7171673
  38.7308553  69.4074913  13.0231673  37.6188553  54.4174913   3.6651673
  38.1548553  55.1054913   3.6551673  37.6218553  54.1434913   2.8371673
  37.6978553  54.4784913   3.5411673  40.5748553  64.8504913   7.6901673
  40.7468553  64.6404913   8.5191673  39.9198553  64.3164913   7.4741673
  40.5038553  64.7404913   7.7811673  46.8028553  58.7644913  11.2051673
  46.7078553  59.0834913  12.0111673  46.2098553  58.1254913  11.1671673
  46.7008553  58.7164913  11.3191673  41.3248553  64.7884913  10.2801673
  41.3778553  65.6354913  10.4821673  41.0398553  64.4184913  11.0171673
  41.2908553  64.8584913  10.4181673  47.5018553  65.4834913   9.4101673
  46.9878553  65.0714913   9.9811673  47.3758553  66.3274913   9.5911673
  47.4078553  65.5474913   9.5211673  48.0588553  54.7084913   4.0411673
  48.1078553  54.3904913   4.8521673  48.3818553  54.0644913   3.5481673
  48.1138553  54.5664913   4.0881673  34.1458553  69.1594913  16.4911673
  34.9018553  69.5084913  16.7491673  34.3228553  68.3064913  16.4341673
  34.2838553  69.0844913  16.5211673  50.5228553  58.9444913  12.3491673
  51.2948553  58.7194913  12.6861673  50.0478553  59.1614913  13.0491673
  50.5668553  58.9434913  12.5021673  38.0668553  58.2274913   5.3191673
  38.3388553  57.7974913   4.6111673  37.8908553  57.5914913   5.8901673
  38.0808553  58.0704913   5.2991673  37.8908553  65.6544913   4.8681673
  38.7418553  65.5744913   4.6951673  37.5338553  64.9724913   4.4561673
  37.9638553  65.5414913   4.7811673  36.2078553  59.3294913   8.4011673
  37.0508553  59.5494913   8.3581673  35.8188553  59.9024913   7.8701673
  36.2748553  59.4464913   8.3161673  40.2588553  65.6614913   3.1031673
  40.9718553  66.1564913   3.1931673  40.4808553  65.0944913   2.4771673
  40.3968553  65.6504913   3.0241673  34.4148553  67.3044913   6.4231673
  33.7478553  67.7924913   6.6991673  35.0948553  67.8494913   6.4521673
  34.4168553  67.4564913   6.4681673  42.0618553  61.0144913  16.5191673
  41.5778553  61.5914913  16.9611673  42.0338553  61.3094913  15.6981673
  41.9858553  61.1434913  16.4631673  53.1598553  61.6984913  11.1311673
  53.3748553  60.8984913  10.8551673  52.3098553  61.7584913  10.9421673
  53.0658553  61.5894913  11.0621673  44.7818553  69.3644913   5.4301673
  44.2588553  69.9984913   5.1371673  45.0918553  69.0004913   4.7011673
  44.7498553  69.4044913   5.2791673  38.8568553  67.1524913   8.1901673
  39.3238553  67.4414913   8.8681673  39.4288553  66.6744913   7.7361673
  39.0108553  67.1244913   8.2231673  47.2928553  59.1664913   5.9271673
  47.6368553  59.3184913   6.7141673  46.8398553  58.4284913   6.0401673
  47.2768553  59.0794913   6.0601673  35.4228553  64.8224913   6.7341673
  35.8538553  64.6934913   5.9871673  35.2178553  65.6704913   6.7081673
  35.4558553  64.9284913   6.6201673  39.5068553  68.3384913   5.0161673
  39.6328553  69.1814913   5.2031673  40.1748553  67.9394913   5.4121673
  39.6248553  68.4044913   5.1021673  37.6368553  61.8214913  14.8781673
  37.1008553  61.3154913  15.3461673  37.6568553  61.4314913  14.0981673
  37.5598553  61.6884913  14.8321673  38.2888553  63.0484913   6.6171673
  37.5078553  62.9894913   6.2341673  38.3608553  62.2964913   7.0541673
  38.1838553  62.9294913   6.6251673  38.7188553  62.7854913  10.0851673
  38.7438553  62.1104913   9.5341673  38.0728553  63.2814913   9.7731673
  38.6278553  62.7584913   9.9581673  48.6138553  60.4984913   8.4811673
  47.9518553  60.8264913   8.9441673  48.8008553  61.1324913   7.9121673
  48.5438553  60.6404913   8.4651673  45.2588553  56.4044913  11.9101673
  45.4078553  55.5794913  11.6671673  45.6378553  56.4594913  12.6941673
  45.3368553  56.2904913  11.9901673  46.8068553  58.4674913   1.9921673
  47.2968553  59.1844913   1.9151673  46.0168553  58.7284913   1.7291673
  46.7628553  58.6114913   1.9421673  36.5178553  64.1404913  15.6441673
  36.4808553  64.6414913  14.9301673  36.8488553  63.3884913  15.3491673
  36.5608553  64.1024913  15.4951673  48.1208553  66.3454913  13.9021673
  48.6048553  67.0634913  14.0001673  48.5148553  65.9184913  13.2511673
  48.2508553  66.3884913  13.8201673  42.4168553  69.1904913  15.0791673
  42.7708553  69.0124913  15.8561673  41.9808553  68.4614913  14.8801673
  42.4048553  69.0564913  15.1651673  43.3888553  59.9374913   7.7171673
  43.8688553  60.6364913   7.9251673  43.7618553  59.2904913   8.1681673
  43.5148553  59.9454913   7.8141673  50.5498553  66.9764913   3.9721673
  50.9058553  66.6264913   4.6871673  50.5418553  66.3154913   3.4021673
  50.6018553  66.8264913   3.9931673  46.5948553  70.0424913   7.8161673
  45.9918553  69.7464913   7.2591673  47.1398553  70.4944913   7.3071673
  46.5858553  70.0654913   7.6581673  46.6078553  66.8934913   7.2161673
  45.8108553  67.1174913   7.4901673  46.8658553  66.2994913   7.8011673
  46.5278553  66.8384913   7.3431673  49.8678553  64.8914913  12.0621673
  49.9228553  65.0164913  11.2001673  50.6208553  65.2114913  12.3641673
  49.9868553  64.9564913  11.9791673  50.8998553  55.1894913  15.0491673
  50.2628553  54.7894913  14.6071673  50.9258553  54.7584913  15.8071673
  50.8098553  55.0674913  15.0951673  45.5988553  64.6974913  11.6621673
  45.4438553  65.3074913  12.2661673  46.1328553  64.1394913  12.0681673
  45.6548553  64.7054913  11.8111673  34.2898553  55.4164913   1.8631673
  34.4188553  54.7084913   1.3711673  33.9228553  55.0984913   2.5881673
  34.2548553  55.2644913   1.8981673  43.9828553  63.0974913   2.3201673
  44.0418553  63.7474913   2.8991673  43.7938553  62.4014913   2.8111673
  43.9638553  63.0904913   2.4781673  49.2088553  67.4264913   8.1891673
  48.7298553  67.7244913   7.5231673  48.8528553  66.6504913   8.3671673
  49.0858553  67.3554913   8.1171673  43.2058553  65.1444913   6.7511673
  42.3588553  64.9504913   6.8321673  43.5298553  64.9794913   7.5441673
  43.1278553  65.0914913   6.8801673  37.0538553  64.8374913   9.0671673
  37.7758553  65.3254913   9.0301673  36.7838553  64.8074913   8.2381673
  37.1208553  64.9054913   8.9391673  40.2838553  60.0084913   5.8021673
  41.1298553  59.8184913   5.9001673  39.9138553  59.2314913   5.6641673
  40.3538553  59.8654913   5.7961673  35.1048553  61.3464913   2.4571673
  35.5938553  61.0544913   3.1181673  35.2338553  60.7534913   1.8301673
  35.1958553  61.2154913   2.4621673  50.1398553  64.3684913   9.3081673
  50.1328553  63.5924913   9.7061673  49.2988553  64.6024913   9.3011673
  50.0148553  64.2884913   9.3661673  36.4488553  65.8894913  13.3451673
  36.0278553  65.3714913  12.7841673  36.0968553  66.6754913  13.2021673
  36.3348553  65.9294913  13.2411673  51.3958553  64.4394913   6.7451673
  51.1098553  64.8404913   7.4651673  52.2558553  64.3774913   6.8721673
  51.4808553  64.4894913   6.8701673  49.0578553  58.3634913  15.2851673
  48.5328553  58.8224913  15.8091673  48.6968553  57.5684913  15.2791673
  48.9268553  58.3134913  15.3611673  34.5648553  57.2114913   7.1891673
  34.6088553  57.5554913   6.3881673  35.3198553  57.4484913   7.5561673
  34.6828553  57.2974913   7.1251673  52.5268553  70.0724913   7.2741673
  52.8168553  70.3294913   6.4931673  53.2218553  70.1684913   7.7931673
  52.6728553  70.1244913   7.2351673  47.5498553  61.9324913  15.3611673
  47.6228553  62.0364913  16.2241673  46.9158553  62.4904913  15.1401673
  47.4668553  62.0304913  15.4561673  49.8178553  62.2514913  13.7261673
  50.1368553  63.0374913  13.9291673  49.4478553  61.9814913  14.4691673
  49.8108553  62.3274913  13.8661673  49.6138553  60.5094913   4.9151673
  48.8688553  60.1864913   5.2331673  49.6158553  61.3354913   5.1951673
  49.5038553  60.5834913   5.0031673  52.5158553  62.7934913  16.4611673
  52.4638553  62.4524913  15.6601673  53.2528553  63.2604913  16.4391673
  52.6168553  62.8124913  16.3391673  52.0538553  66.4694913  12.6671673
  52.6818553  65.9204913  12.4111673  51.9928553  67.0344913  12.0051673
  52.1378553  66.4724913  12.5311673  41.1878553  67.7004913   9.9631673
  40.8898553  68.2924913  10.5301673  41.2428553  68.1424913   9.2141673
  41.1518553  67.8534913   9.9361673  39.1668553  66.6504913  13.3611673
  38.3608553  66.3604913  13.5281673  39.0778553  67.5184913  13.3671673
  39.0348553  66.7354913  13.3861673  48.5258553  56.8394913  12.3761673
  49.2698553  57.2914913  12.3131673  47.9598553  57.3094913  11.9071673
  48.5528553  56.9764913  12.2981673  43.7038553  64.1234913   9.4541673
  44.1798553  64.4974913  10.0821673  42.8808553  64.2574913   9.7131673
  43.6528553  64.1984913   9.5851673  40.4138553  59.7264913  12.1951673
  40.5748553  58.9824913  12.6221673  40.3688553  59.4774913  11.3601673
  40.4308553  59.5794913  12.1351673  49.8108553  54.8194913  10.0461673
  49.5308553  55.6444913  10.0021673  50.5268553  54.8724913  10.5421673
  49.8758553  54.9494913  10.1131673  42.1658553  55.5344913  12.0751673
  42.8708553  55.8544913  11.6731673  42.4068553  54.7274913  12.3021673
  42.3048553  55.4624913  12.0491673  41.1508553  69.7444913   8.0711673
  40.5268553  70.3264913   7.8891673  41.3988553  69.4584913   7.2851673
  41.0948553  69.7884913   7.9281673  45.4598553  66.3784913  15.0601673
  46.2168553  66.6644913  14.7341673  44.9128553  66.4304913  14.3821673
  45.4908553  66.4284913  14.9111673  49.3688553  68.9284913  13.5641673
  49.7148553  69.1984913  14.3181673  49.6628553  69.5104913  12.9841673
  49.4638553  69.0544913  13.5901673  38.6748553  60.5874913   8.1361673
  39.1148553  60.4844913   7.3901673  39.2198553  60.2744913   8.7411673
  38.8198553  60.5264913   8.1151673  46.6908553  59.6894913  13.7281673
  46.0428553  60.1594913  14.0761673  47.2558553  59.6004913  14.3871673
  46.6788553  59.7454913  13.8771673  46.3788553  61.2264913  10.0261673
  46.6808553  61.6464913  10.7291673  46.4148553  60.3864913  10.2581673
  46.4288553  61.1644913  10.1641673  48.9268553  60.6734913   2.2781673
  49.1338553  60.4724913   3.1021673  49.6828553  60.9414913   1.9361673
  49.0688553  60.6834913   2.3491673  42.2218553  55.5724913   8.1831673
  41.3958553  55.4234913   8.4201673  42.1818553  55.6074913   7.3121673
  42.0938553  55.5554913   8.0891673  49.9488553  56.7564913   3.7521673
  49.2348553  56.2854913   3.9231673  49.7868553  57.0974913   2.9661673
  49.8198553  56.7374913   3.6611673  50.3918553  64.7004913   2.1321673
  50.8678553  63.9714913   2.0841673  49.5708553  64.4144913   2.0561673
  50.3408553  64.5504913   2.1131673  43.8628553  66.6124913  12.9711673
  43.0678553  66.5484913  13.3221673  43.9338553  67.4594913  12.7761673
  43.7558553  66.7274913  12.9941673  34.7868553  55.9704913  14.2181673
  34.6468553  56.7654913  13.8871673  34.0008553  55.7274913  14.5071673
  34.6498553  56.0524913  14.2121673  46.6078553  65.8674913   4.4871673
  46.6838553  66.2084913   5.2861673  46.7768553  65.0204913   4.6081673
  46.6438553  65.7924913   4.6231673  44.1298553  65.1414913   4.0521673
  43.8318553  64.8264913   4.8091673  44.8248553  65.6144913   4.2871673
  44.1888553  65.1644913   4.1991673  44.3518553  69.2594913  12.0791673
  45.0388553  69.1454913  12.6041673  44.4858553  70.0504913  11.7351673
  44.4728553  69.3594913  12.1061673  52.5278553  61.8684913  13.8901673
  51.6728553  61.7464913  14.0161673  52.6808553  61.4734913  13.1271673
  52.4238553  61.7914913  13.7961673  47.0408553  62.5334913  12.4661673
  46.7858553  61.8144913  12.8881673  47.8618553  62.6494913  12.7361673
  47.1248553  62.4444913  12.5681673  44.9748553  63.7234913  15.6531673
  45.2978553  64.4094913  15.2211673  44.2708553  64.0464913  16.0551673
  44.9178553  63.8724913  15.6481673  44.7598553  67.1874913   9.5121673
  44.0658553  67.5894913   9.8551673  45.4368553  67.6204913   9.8511673
  44.7568553  67.3104913   9.6131673  50.1368553  69.7804913  16.0921673
  50.9128553  69.3904913  16.1751673  49.6678553  69.4444913  16.7471673
  50.1818553  69.6734913  16.2011673  37.8278553  60.7254913  11.8591673
  38.2028553  61.3444913  11.3721673  38.5018553  60.2514913  12.1441673
  37.9828553  60.7474913  11.8291673  35.6028553  59.1734913  11.1341673
  35.6798553  59.0044913  10.2811673  36.3488553  59.5794913  11.3311673
  35.7238553  59.2084913  11.0371673  38.1568553  56.5834913  13.5451673
  38.0758553  55.7394913  13.7511673  37.8428553  56.6274913  12.7321673
  38.0988553  56.4654913  13.4551673  45.0818553  68.7784913   2.6811673
  44.8768553  69.6114913   2.5221673  44.3068553  68.3964913   2.8031673
  44.9368553  68.8454913   2.6761673  50.2638553  61.9594913  10.9301673
  50.2618553  61.0964913  11.0541673  50.3308553  62.2834913  11.7371673
  50.2738553  61.8794913  11.0671673  34.9998553  64.3994913  11.3581673
  35.3198553  64.6184913  10.5771673  34.8998553  63.5344913  11.3031673
  35.0318553  64.3044913  11.2351673  46.1428553  56.7594913  14.7121673
  46.2348553  57.4714913  15.2061673  45.5058553  56.3144913  15.1091673
  46.0618553  56.7984913  14.8441673  45.1368553  56.9494913   5.5661673
  44.4368553  57.4674913   5.5101673  45.1748553  56.5694913   4.7821673
  45.0388553  56.9704913   5.4421673  48.7348553  57.4654913   8.3661673
  49.5898553  57.5644913   8.5111673  48.3658553  58.0184913   8.9311673
  48.8068553  57.5624913   8.4711673  39.7628553  63.6914913  12.7431673
  39.3668553  64.4654913  12.8181673  39.3568553  63.3184913  12.0671673
  39.6448553  63.7504913  12.6541673  49.0388553  62.7454913   6.8571673
  49.7048553  63.2864913   7.0171673  48.6938553  63.0564913   6.1181673
  49.0858553  62.8714913   6.7721673  40.1918553  56.6684913  10.1931673
  39.3278553  56.7524913  10.2731673  40.4118553  56.1544913  10.8621673
  40.0968553  56.6054913  10.3041673  52.2098553  55.3034913  11.5221673
  52.1578553  55.2594913  12.3921673  52.8968553  54.8004913  11.3321673
  52.3038553  55.2234913  11.6221673  44.2948553  57.4164913   8.5671673
  43.5578553  56.9624913   8.6801673  44.8658553  57.0144913   9.0901673
  44.2698553  57.2894913   8.6611673  47.0268553  68.2644913  10.3551673
  47.2328553  68.5654913  11.1471673  46.9658553  68.9864913   9.8701673
  47.0478553  68.4154913  10.4001673  41.7978553  61.7454913  13.7711673
  41.4758553  61.1694913  13.2011673  41.4388553  62.5004913  13.5251673
  41.6978553  61.7714913  13.6511673  51.8388553  66.9034913   9.8131673
  51.8068553  66.0414913   9.6781673  51.1458553  67.2054913   9.3791673
  51.7318553  66.8204913   9.7291673  49.9438553  70.1634913   8.6101673
  50.4708553  70.0804913   7.9191673  49.5528553  69.3854913   8.6641673
  49.9638553  70.0364913   8.5161673  37.4118553  56.7514913  10.8411673
  37.0688553  55.9844913  10.6071673  36.7168553  57.2754913  10.9051673
  37.2588553  56.7154913  10.8161673  46.4578553  55.6074913   7.8181673
  47.1278553  56.1514913   7.9451673  45.9548553  56.0314913   7.2451673
  46.4828553  55.7504913   7.7521673  45.8168553  61.4154913   5.3111673
  46.3678553  60.8084913   5.6111673  45.3918553  61.6784913   6.0261673
  45.8358553  61.3644913   5.4601673  36.0648553  60.0654913   4.7971673
  35.6968553  60.3674913   5.5281673  36.5988553  59.4364913   5.0811673
  36.0888553  60.0174913   4.9471673  35.7528553  68.4734913  12.3081673
  35.1788553  68.8894913  12.8171673  36.4858553  68.9384913  12.4031673
  35.7768553  68.6034913  12.3971673  47.7868553  63.2464913   1.8731673
  47.8548553  62.3964913   2.0541673  46.9638553  63.3324913   1.5951673
  47.6748553  63.1334913   1.8591673  51.0608553  64.6194913  15.0241673
  51.6948553  64.4494913  15.5981673  51.4778553  65.0224913  14.3721673
  51.2158553  64.6544913  15.0131673  51.6858553  59.1834913  15.7621673
  51.4898553  59.8274913  16.3171673  50.9638553  58.6934913  15.7541673
  51.5508553  59.2064913  15.8431673  51.5848553  60.1244913   8.7331673
  50.7518553  60.3744913   8.6611673  51.5288553  59.2844913   8.9621673
  51.4538553  60.0374913   8.7561673  40.8448553  57.1124913  13.9271673
  41.0788553  56.5364913  13.3141673  40.0028553  56.9314913  14.0681673
  40.7548553  57.0004913  13.8571673  48.4718553  64.7304913  16.3791673
  49.3428553  64.6944913  16.3431673  48.2528553  65.1504913  15.6471673
  48.5688553  64.7864913  16.2661673  45.2358553  36.8373833  79.3131313
  44.9908553  37.3253833  78.6331313  46.0988553  36.7643833  79.2131313
  45.3268553  36.8983833  79.1981313  45.0448553  43.7533833  83.9841313
  44.5208553  44.3493833  84.3471313  45.4418553  43.3853833  84.6681313
  45.0258553  43.7873833  84.1391313  34.9138553  47.8933833  79.4401313
  34.4728553  48.0113833  80.1831313  34.6308553  47.1183833  79.1551313
  34.8068553  47.7963833  79.5081313  51.1888553  51.1943833  76.9551313
  51.8898553  50.6753833  76.9511313  50.6018553  50.7493833  76.4861313
  51.2058553  51.0513833  76.8851313  34.6568553  41.6853833  75.9471313
  33.8788553  41.8473833  75.5871313  34.6958553  40.8143833  75.9691313
  34.5478553  41.5803833  75.8971313  37.7958553  46.9483833  74.6191313
  37.4038553  46.5773833  73.9331313  37.7158553  46.3503833  75.2481313
  37.7258553  46.8053833  74.6101313  47.7158553  44.8203833  80.6601313
  47.7958553  44.8243833  79.7911313  47.1318553  44.1883833  80.8091313
  47.6408553  44.7273833  80.5541313  37.4228553  48.5893833  78.5191313
  38.0308553  48.4193833  79.1221313  36.6718553  48.4493833  78.9401313
  37.4018553  48.5433833  78.6701313  41.7048553  37.9243833  78.4681313
  41.6348553  38.6013833  77.9221313  42.4458553  37.5363833  78.2191313
  41.8038553  37.9673833  78.3501313  36.3138553  51.6803833  74.5961313
  36.7808553  51.7643833  73.8641313  36.7688553  51.1023833  75.0651313
  36.4498553  51.6073833  74.5571313  34.8538553  50.6283833  85.6951313
  34.9828553  50.3483833  86.5111313  34.2438553  50.0873833  85.3861313
  34.7828553  50.5073833  85.7701313  36.2998553  45.1493833  79.8971313
  35.8378553  44.7573833  79.2701313  36.9998553  44.6363833  79.9891313
  36.3348553  45.0163833  79.8181313  40.8078553  40.7593833  85.2441313
  41.4858553  40.7773833  84.6951313  40.7628553  39.9233833  85.4891313
  40.9008553  40.6383833  85.1991313  41.4098553  51.3453833  88.0251313
  41.5478553  52.1053833  87.6181313  42.2008553  50.9803833  88.0521313
  41.5468553  51.4043833  87.9691313  38.3008553  43.2493833  79.9201313
  39.1178553  43.0623833  80.1631313  37.8238553  42.6353833  80.3161313
  38.3508553  43.1313833  80.0151313  42.5048553  49.2303833  82.5301313
  42.8528553  48.4313833  82.5601313  43.1698553  49.7343833  82.2751313
  42.6548553  49.1863833  82.4971313  42.5618553  48.6793833  78.7411313
  42.8928553  48.0353833  79.2271313  42.8018553  48.4683833  77.9301313
  42.6458553  48.5533833  78.6931313  38.8978553  38.3433833  79.1861313
  38.6018553  38.8443833  78.5361313  39.7648553  38.4213833  79.1291313
  38.9818553  38.4293833  79.0821313  41.8768553  37.4853833  81.4091313
  41.9498553  38.3453833  81.5381313  41.8388553  37.4103833  80.5411313
  41.8818553  37.6013833  81.3001313  46.5498553  40.4113833  73.7081313
  46.0998553  41.0923833  74.0151313  46.6638553  39.9073833  74.4111313
  46.5008553  40.4373833  73.8571313  34.7558553  42.9103833  82.9101313
  34.4998553  43.7413833  82.8351313  34.0918553  42.5273833  83.3271313
  34.6198553  42.9763833  82.9611313  34.6658553  52.6203833  80.8101313
  34.0738553  53.1783833  80.4971313  35.0918553  52.3513833  80.0981313
  34.6418553  52.6623833  80.6591313  40.5058553  50.4643833  78.2901313
  39.9268553  50.1893833  78.8821313  41.1298553  49.8553833  78.3151313
  40.5128553  50.3343833  78.3811313  46.6488553  52.7523833  75.8121313
  47.3758553  53.2243833  75.9141313  46.8778553  51.9583833  76.0921313
  46.7908553  52.7053833  75.8691313  44.8168553  53.1443833  77.8021313
  45.0308553  53.6713833  78.4641313  45.5838553  52.9703833  77.4231313
  44.9618553  53.1963833  77.8441313  37.7848553  37.7273833  83.4011313
  37.2638553  37.0993833  83.0931313  38.3758553  37.2903833  83.8721313
  37.7958553  37.5693833  83.4251313  36.2108553  51.2903833  78.7411313
  36.8668553  50.7153833  78.7561313  36.5998553  52.0393833  78.5201313
  36.3658553  51.3153833  78.7111313  51.9438553  40.3843833  80.0031313
  51.5978553  41.0623833  80.4291313  51.3078553  39.7863833  80.0191313
  51.7988553  40.3963833  80.0681313  47.2558553  53.1543833  86.1071313
  47.9998553  53.6103833  86.0971313  47.1348553  52.9403833  85.2701313
  47.3478553  53.1903833  85.9821313  37.0288553  49.7773833  82.2411313
  37.4518553  49.4213833  81.5671313  37.3528553  49.3553833  82.9331313
  37.1388553  49.6623833  82.2441313  40.2598553  52.6293833  81.5371313
  41.1038553  52.7333833  81.3421313  39.9628553  53.4473833  81.6051313
  40.3408553  52.7653833  81.5181313  44.0668553  42.0263833  79.6241313
  44.3538553  41.7943833  78.8341313  44.7988553  42.1053833  80.0931313
  44.2168553  42.0033833  79.5771313  44.7888553  42.3653833  74.7451313
  45.0698553  43.1533833  74.9941313  44.0128553  42.5303833  74.3821313
  44.7158553  42.5063833  74.7281313  48.8298553  54.3393833  76.2121313
  49.4948553  54.1913833  75.6671313  49.1898553  54.2563833  77.0021313
  48.9818553  54.3053833  76.2481313  39.2578553  53.8483833  87.2771313
  39.5498553  53.7813833  88.0971313  38.6318553  53.2433833  87.2321313
  39.2088553  53.7493833  87.3921313  51.6188553  38.7073833  85.3721313
  52.3758553  38.7793833  84.9441313  51.6818553  37.9343833  85.7711313
  51.7398553  38.6043833  85.3671313  43.6478553  50.5363833  74.5611313
  43.4668553  51.0813833  75.2181313  44.4138553  50.8263833  74.2601313
  43.7338553  50.6603833  74.6141313  47.1548553  38.4323833  75.6151313
  47.6948553  37.7503833  75.6911313  47.2168553  38.8303833  76.3891313
  47.2438553  38.3903833  75.7411313  35.1088553  39.6003833  78.1841313
  34.9948553  38.7363833  78.2151313  34.6338553  39.8943833  78.8541313
  35.0218553  39.5163833  78.2871313  37.2508553  52.0103833  86.3991313
  36.5528553  51.5023833  86.5251313  37.5108553  51.8053833  85.5911313
  37.1858553  51.9053833  86.2981313  44.4128553  40.8083833  76.9291313
  43.9048553  40.1463833  76.6751313  44.4648553  41.3123833  76.2191313
  44.3458553  40.7853833  76.7871313  44.9618553  53.5033833  87.3091313
  45.7298553  53.4233833  86.9031313  44.3788553  53.3823833  86.6711313
  44.9888553  53.4733833  87.1551313  44.4128553  37.7493833  76.8201313
  43.9578553  37.3473833  76.1941313  45.1858553  37.9043833  76.4451313
  44.4598553  37.7133833  76.6721313  51.2388553  54.1063833  80.2101313
  50.7838553  54.8233833  80.4111313  50.6248553  53.5353833  79.9681313
  51.0808553  54.1283833  80.2041313  43.0108553  40.1163833  81.3421313
  43.0848553  40.6843833  80.6841313  43.1318553  40.6083833  82.0521313
  43.0388553  40.2733833  81.3501313  48.2358553  49.9513833  79.7541313
  48.9368553  49.4693833  79.9431313  47.5758553  49.3823833  79.7991313
  48.2418553  49.7963833  79.7881313  37.6188553  35.9393833  79.6901313
  38.1548553  36.6273833  79.6801313  37.6218553  35.6653833  78.8621313
  37.6978553  36.0003833  79.5661313  40.5748553  46.3723833  83.7151313
  40.7468553  46.1623833  84.5441313  39.9198553  45.8383833  83.4991313
  40.5038553  46.2623833  83.8061313  46.8028553  40.2863833  87.2301313
  46.7078553  40.6053833  88.0361313  46.2098553  39.6473833  87.1921313
  46.7008553  40.2383833  87.3441313  41.3248553  46.3103833  86.3051313
  41.3778553  47.1573833  86.5071313  41.0398553  45.9403833  87.0421313
  41.2908553  46.3803833  86.4431313  47.5018553  47.0053833  85.4351313
  46.9878553  46.5933833  86.0061313  47.3758553  47.8493833  85.6161313
  47.4078553  47.0693833  85.5461313  48.0588553  36.2303833  80.0661313
  48.1078553  35.9123833  80.8771313  48.3818553  35.5863833  79.5731313
  48.1138553  36.0883833  80.1131313  38.0668553  39.7493833  81.3441313
  38.3388553  39.3193833  80.6361313  37.8908553  39.1133833  81.9151313
  38.0808553  39.5923833  81.3241313  50.7548553  47.4443833  75.5621313
  50.8738553  47.1573833  76.3771313  51.5618553  47.4653833  75.2321313
  50.8908553  47.4053833  75.6341313  37.8908553  47.1763833  80.8931313
  38.7418553  47.0963833  80.7201313  37.5338553  46.4943833  80.4811313
  37.9638553  47.0633833  80.8061313  36.6578553  53.9013833  82.1301313
  35.9848553  53.4033833  81.8851313  37.0608553  54.0863833  81.3791313
  36.6178553  53.8553833  81.9831313  36.2078553  40.8513833  84.4261313
  37.0508553  41.0713833  84.3831313  35.8188553  41.4243833  83.8951313
  36.2748553  40.9683833  84.3411313  48.6498553  43.9813833  75.1471313
  48.4298553  44.7123833  74.7251313  48.2018553  44.0323833  75.8941313
  48.5508553  44.0963833  75.1951313  40.2588553  47.1833833  79.1281313
  40.9718553  47.6783833  79.2181313  40.4808553  46.6163833  78.5021313
  40.3968553  47.1723833  79.0491313  52.8368553  38.8423833  74.6001313
  52.1748553  38.2743833  74.6231313  52.6438553  39.3543833  73.9201313
  52.7108553  38.8343833  74.5031313  34.4148553  48.8263833  82.4481313
  33.7478553  49.3143833  82.7241313  35.0948553  49.3713833  82.4771313
  34.4168553  48.9783833  82.4931313  53.1598553  43.2203833  87.1561313
  53.3748553  42.4203833  86.8801313  52.3098553  43.2803833  86.9671313
  53.0658553  43.1113833  87.0871313  34.4808553  45.5103833  77.5511313
  34.2958553  44.6713833  77.7031313  35.1398553  45.4743833  76.9811313
  34.5508553  45.3813833  77.4891313  50.8388553  38.4003833  76.8791313
  51.5848553  37.9933833  77.0781313  51.1018553  39.1153833  76.4541313
  50.9878553  38.4463833  76.8461313  44.7818553  50.8863833  81.4551313
  44.2588553  51.5203833  81.1621313  45.0918553  50.5223833  80.7261313
  44.7498553  50.9263833  81.3041313  34.6528553  49.6743833  77.1261313
  35.2048553  50.2433833  77.4901313  34.4208553  49.1593833  77.7911313
  34.6998553  49.6823833  77.2781313  38.8568553  48.6743833  84.2151313
  39.3238553  48.9633833  84.8931313  39.4288553  48.1963833  83.7611313
  39.0108553  48.6463833  84.2481313  47.2928553  40.6883833  81.9521313
  47.6368553  40.8403833  82.7391313  46.8398553  39.9503833  82.0651313
  47.2768553  40.6013833  82.0851313  34.4828553  48.1233833  74.7541313
  35.2388553  47.6913833  74.8121313  34.4978553  48.6553833  75.4451313
  34.5968553  48.1383833  74.8651313  35.4228553  46.3443833  82.7591313
  35.8538553  46.2153833  82.0121313  35.2178553  47.1923833  82.7331313
  35.4558553  46.4503833  82.6451313  41.7688553  39.9083833  76.4091313
  41.7668553  39.7913833  75.5441313  41.5878553  40.7563833  76.5011313
  41.7418553  40.0163833  76.2951313  50.8228553  52.3353833  87.9061313
  50.1518553  52.8493833  88.1241313  50.8858553  52.4353833  87.0421313
  50.7328553  52.4263833  87.8111313  39.5068553  49.8603833  81.0411313
  39.6328553  50.7033833  81.2281313  40.1748553  49.4613833  81.4371313
  39.6248553  49.9263833  81.1271313  38.1218553  42.7403833  76.0431313
  37.9938553  42.2923833  76.7811313  37.5398553  42.3983833  75.4911313
  38.0168553  42.6233833  76.0711313  38.2888553  44.5703833  82.6421313
  37.5078553  44.5113833  82.2591313  38.3608553  43.8183833  83.0791313
  38.1838553  44.4513833  82.6501313  38.7188553  44.3073833  86.1101313
  38.7438553  43.6323833  85.5591313  38.0728553  44.8033833  85.7981313
  38.6278553  44.2803833  85.9831313  48.6138553  42.0203833  84.5061313
  47.9518553  42.3483833  84.9691313  48.8008553  42.6543833  83.9371313
  48.5438553  42.1623833  84.4901313  42.8188553  53.0843833  85.5021313
  42.5418553  52.4433833  84.9791313  42.6108553  53.8103833  85.0641313
  42.7478553  53.0973833  85.3601313  45.2588553  37.9263833  87.9351313
  45.4078553  37.1013833  87.6921313  45.6378553  37.9813833  88.7191313
  45.3368553  37.8123833  88.0151313  46.8068553  39.9893833  78.0171313
  47.2968553  40.7063833  77.9401313  46.0168553  40.2503833  77.7541313
  46.7628553  40.1333833  77.9671313  43.3888553  41.4593833  83.7421313
  43.8688553  42.1583833  83.9501313  43.7618553  40.8123833  84.1931313
  43.5148553  41.4673833  83.8391313  45.5778553  44.6283833  76.0161313
  45.5698553  45.3503833  75.5261313  44.9388553  44.7633833  76.5931313
  45.4828553  44.7553833  76.0291313  50.5498553  48.4983833  79.9971313
  50.9058553  48.1483833  80.7121313  50.5418553  47.8373833  79.4271313
  50.6018553  48.3483833  80.0181313  46.5948553  51.5643833  83.8411313
  45.9918553  51.2683833  83.2841313  47.1398553  52.0163833  83.3321313
  46.5858553  51.5873833  83.6831313  46.6078553  48.4153833  83.2411313
  45.8108553  48.6393833  83.5151313  46.8658553  47.8213833  83.8261313
  46.5278553  48.3603833  83.3681313  40.4998553  53.2273833  77.6891313
  40.3528553  52.4513833  78.0601313  41.1888553  53.0803833  77.1741313
  40.5798553  53.0903833  77.6681313  40.1708553  36.9703833  75.6771313
  40.2678553  36.8633833  76.5381313  39.4628553  37.4763833  75.6121313
  40.0808553  37.0293833  75.7951313  42.7918553  52.7433833  76.0911313
  43.4138553  52.9063833  76.6811313  42.8278553  53.4343833  75.5591313
  42.8888553  52.8693833  76.1001313  49.8678553  46.4133833  88.0871313
  49.9228553  46.5383833  87.2251313  50.6208553  46.7333833  88.3891313
  49.9868553  46.4783833  88.0041313  37.2928553  45.2773833  76.9201313
  37.6168553  44.4983833  76.6981313  37.9388553  45.6453833  77.3751313
  37.4358553  45.2163833  76.9541313  45.5988553  46.2193833  87.6871313
  45.4438553  46.8293833  88.2911313  46.1328553  45.6613833  88.0931313
  45.6548553  46.2273833  87.8361313  34.2898553  36.9383833  77.8881313
  34.4188553  36.2303833  77.3961313  33.9228553  36.6203833  78.6131313
  34.2548553  36.7863833  77.9231313  43.9828553  44.6193833  78.3451313
  44.0418553  45.2693833  78.9241313  43.7938553  43.9233833  78.8361313
  43.9638553  44.6123833  78.5031313  49.2088553  48.9483833  84.2141313
  48.7298553  49.2463833  83.5481313  48.8528553  48.1723833  84.3921313
  49.0858553  48.8773833  84.1421313  38.4788553  39.1363833  74.8571313
  37.9678553  39.1893833  74.1511313  39.2628553  39.3763833  74.5611313
  38.5188553  39.1793833  74.7091313  43.2058553  46.6663833  82.7761313
  42.3588553  46.4723833  82.8571313  43.5298553  46.5013833  83.5691313
  43.1278553  46.6133833  82.9051313  39.9578553  53.3963833  73.6621313
  40.3968553  52.6993833  73.9501313  40.1648553  54.0203833  74.2351313
  40.0538553  53.3853833  73.7891313  37.0538553  46.3593833  85.0921313
  37.7758553  46.8473833  85.0551313  36.7838553  46.3293833  84.2631313
  37.1208553  46.4273833  84.9641313  40.2838553  41.5303833  81.8271313
  41.1298553  41.3403833  81.9251313  39.9138553  40.7533833  81.6891313
  40.3538553  41.3873833  81.8211313  52.9008553  53.1143833  76.1541313
  53.5948553  52.6473833  75.9061313  52.3618553  52.5163833  76.4911313
  52.9238553  52.9563833  76.1671313  35.1048553  42.8683833  78.4821313
  35.5938553  42.5763833  79.1431313  35.2338553  42.2753833  77.8551313
  35.1958553  42.7373833  78.4871313  50.1398553  45.8903833  85.3331313
  50.1328553  45.1143833  85.7311313  49.2988553  46.1243833  85.3261313
  50.0148553  45.8103833  85.3911313  39.6298553  44.3023833  73.9681313
  39.0198553  43.8973833  74.4421313  39.2438553  44.4203833  73.1951313
  39.4828553  44.2593833  73.9241313  51.3958553  45.9613833  82.7701313
  51.1098553  46.3623833  83.4901313  52.2558553  45.8993833  82.8971313
  51.4808553  46.0113833  82.8951313  41.0848553  42.7633833  76.6781313
  41.3568553  43.5893833  76.7451313  40.2218553  42.8383833  76.5821313
  40.9978553  42.8963833  76.6731313  34.5648553  38.7333833  83.2141313
  34.6088553  39.0773833  82.4131313  35.3198553  38.9703833  83.5811313
  34.6828553  38.8193833  83.1501313  52.5268553  51.5943833  83.2991313
  52.8168553  51.8513833  82.5181313  53.2218553  51.6903833  83.8181313
  52.6728553  51.6463833  83.2601313  49.1318553  50.1973833  75.2811313
  49.4658553  49.3913833  75.3161313  48.3768553  50.1253833  75.7111313
  49.0698553  50.0673833  75.3501313  49.6138553  42.0313833  80.9401313
  48.8688553  41.7083833  81.2581313  49.6158553  42.8573833  81.2201313
  49.5038553  42.1053833  81.0281313  52.0538553  47.9913833  88.6921313
  52.6818553  47.4423833  88.4361313  51.9928553  48.5563833  88.0301313
  52.1378553  47.9943833  88.5561313  46.5058553  48.0723833  74.6841313
  47.1898553  47.5583833  74.5151313  46.0888553  48.1183833  73.9191313
  46.5448553  48.0033833  74.5461313  41.1878553  49.2223833  85.9881313
  40.8898553  49.8143833  86.5551313  41.2428553  49.6643833  85.2391313
  41.1518553  49.3753833  85.9611313  48.5258553  38.3613833  88.4011313
  49.2698553  38.8133833  88.3381313  47.9598553  38.8313833  87.9321313
  48.5528553  38.4983833  88.3231313  43.7038553  45.6453833  85.4791313
  44.1798553  46.0193833  86.1071313  42.8808553  45.7793833  85.7381313
  43.6528553  45.7203833  85.6101313  40.4138553  41.2483833  88.2201313
  40.5748553  40.5043833  88.6471313  40.3688553  40.9993833  87.3851313
  40.4308553  41.1013833  88.1601313  42.9678553  53.0383833  80.7071313
  43.5138553  53.7173833  80.7611313  42.6178553  53.1203833  79.9121313
  42.9968553  53.1513833  80.5971313  49.8108553  36.3413833  86.0711313
  49.5308553  37.1663833  86.0271313  50.5268553  36.3943833  86.5671313
  49.8758553  36.4713833  86.1381313  42.1658553  37.0563833  88.1001313
  42.8708553  37.3763833  87.6981313  42.4068553  36.2493833  88.3271313
  42.3048553  36.9843833  88.0741313  41.1508553  51.2663833  84.0961313
  40.5268553  51.8483833  83.9141313  41.3988553  50.9803833  83.3101313
  41.0948553  51.3103833  83.9531313  51.2318553  42.5963833  74.9281313
  51.6098553  43.2733833  74.5281313  50.3898553  42.8203833  74.9591313
  51.1628553  42.7293833  74.8731313  42.7448553  46.0423833  74.0111313
  41.9398553  45.8653833  73.7261313  42.7118553  46.8933833  74.2031313
  42.6208553  46.1413833  73.9981313  38.6748553  42.1093833  84.1611313
  39.1148553  42.0063833  83.4151313  39.2198553  41.7963833  84.7661313
  38.8198553  42.0483833  84.1401313  46.3788553  42.7483833  86.0511313
  46.6808553  43.1683833  86.7541313  46.4148553  41.9083833  86.2831313
  46.4288553  42.6863833  86.1891313  48.9268553  42.1953833  78.3031313
  49.1338553  41.9943833  79.1271313  49.6828553  42.4633833  77.9611313
  49.0688553  42.2053833  78.3741313  42.2218553  37.0943833  84.2081313
  41.3958553  36.9453833  84.4451313  42.1818553  37.1293833  83.3371313
  42.0938553  37.0773833  84.1141313  49.9488553  38.2783833  79.7771313
  49.2348553  37.8073833  79.9481313  49.7868553  38.6193833  78.9911313
  49.8198553  38.2593833  79.6861313  50.3918553  46.2223833  78.1571313
  50.8678553  45.4933833  78.1091313  49.5708553  45.9363833  78.0811313
  50.3408553  46.0723833  78.1381313  39.6928553  54.3413833  84.3131313
  39.7038553  54.4003833  85.1831313  39.2678553  53.5943833  84.1631313
  39.6318553  54.2393833  84.4191313  37.8508553  40.2363833  77.4681313
  37.9768553  39.9073833  76.6701313  37.0388553  39.9873833  77.6671313
  37.7498553  40.1513833  77.3801313  46.6078553  47.3893833  80.5121313
  46.6838553  47.7303833  81.3111313  46.7768553  46.5423833  80.6331313
  46.6438553  47.3143833  80.6481313  44.1298553  46.6633833  80.0771313
  43.8318553  46.3483833  80.8341313  44.8248553  47.1363833  80.3121313
  44.1888553  46.6863833  80.2241313  44.3518553  50.7813833  88.1041313
  45.0388553  50.6673833  88.6291313  44.4858553  51.5723833  87.7601313
  44.4728553  50.8813833  88.1311313  47.0408553  44.0553833  88.4911313
  46.7858553  43.3363833  88.9131313  47.8618553  44.1713833  88.7611313
  47.1248553  43.9663833  88.5931313  48.0588553  53.6193833  82.6071313
  47.6078553  54.2623833  82.9861313  48.7668553  53.5403833  83.1121313
  48.0968553  53.7023833  82.7381313  44.7598553  48.7093833  85.5371313
  44.0658553  49.1113833  85.8801313  45.4368553  49.1423833  85.8761313
  44.7568553  48.8323833  85.6381313  37.8278553  42.2473833  87.8841313
  38.2028553  42.8663833  87.3971313  38.5018553  41.7733833  88.1691313
  37.9828553  42.2693833  87.8541313  35.6028553  40.6953833  87.1591313
  35.6798553  40.5263833  86.3061313  36.3488553  41.1013833  87.3561313
  35.7238553  40.7303833  87.0621313  51.1618553  43.3353833  77.5991313
  51.2648553  43.2773833  76.7351313  51.9028553  43.0033833  77.9171313
  51.2868553  43.2783833  77.5181313  45.0818553  50.3003833  78.7061313
  44.8768553  51.1333833  78.5471313  44.3068553  49.9183833  78.8281313
  44.9368553  50.3673833  78.7011313  50.2638553  43.4813833  86.9551313
  50.2618553  42.6183833  87.0791313  50.3308553  43.8053833  87.7621313
  50.2738553  43.4013833  87.0921313  34.9998553  45.9213833  87.3831313
  35.3198553  46.1403833  86.6021313  34.8998553  45.0563833  87.3281313
  35.0318553  45.8263833  87.2601313  36.4558553  41.8573833  74.0011313
  35.7838553  41.8713833  74.5571313  36.5508553  41.0093833  73.8171313
  36.3708553  41.7343833  74.0561313  45.1368553  38.4713833  81.5911313
  44.4368553  38.9893833  81.5351313  45.1748553  38.0913833  80.8071313
  45.0388553  38.4923833  81.4671313  40.4438553  50.5623833  75.1151313
  40.8848553  50.6423833  75.8631313  39.6388553  50.3463833  75.3731313
  40.3898553  50.5423833  75.2641313  48.7348553  38.9873833  84.3911313
  49.5898553  39.0863833  84.5361313  48.3658553  39.5403833  84.9561313
  48.8068553  39.0843833  84.4961313  39.7628553  45.2133833  88.7681313
  39.3668553  45.9873833  88.8431313  39.3568553  44.8403833  88.0921313
  39.6448553  45.2723833  88.6791313  49.0388553  44.2673833  82.8821313
  49.7048553  44.8083833  83.0421313  48.6938553  44.5783833  82.1431313
  49.0858553  44.3933833  82.7971313  49.3518553  52.3333833  78.6891313
  49.1778553  51.6793833  79.2391313  50.0648553  52.0623833  78.2661313
  49.4318553  52.1963833  78.7081313  37.7728553  49.6323833  75.7161313
  37.5288553  49.3253833  76.4961313  37.7398553  48.9293833  75.2001313
  37.7318553  49.4833833  75.7551313  40.5918553  47.8773833  74.4591313
  39.7738553  47.6093833  74.5991313  40.5638553  48.7293833  74.6441313
  40.4668553  47.9643833  74.5071313  40.1918553  38.1903833  86.2181313
  39.3278553  38.2743833  86.2981313  40.4118553  37.6763833  86.8871313
  40.0968553  38.1273833  86.3291313  52.2098553  36.8253833  87.5471313
  52.1578553  36.7813833  88.4171313  52.8968553  36.3223833  87.3571313
  52.3038553  36.7453833  87.6471313  44.2948553  38.9383833  84.5921313
  43.5578553  38.4843833  84.7051313  44.8658553  38.5363833  85.1151313
  44.2698553  38.8113833  84.6861313  47.0268553  49.7863833  86.3801313
  47.2328553  50.0873833  87.1721313  46.9658553  50.5083833  85.8951313
  47.0478553  49.9373833  86.4251313  42.5938553  36.5193833  74.4231313
  42.6718553  36.7663833  73.5901313  41.8508553  36.8963833  74.6811313
  42.4958553  36.6113833  74.3381313  51.8388553  48.4253833  85.8381313
  51.8068553  47.5633833  85.7031313  51.1458553  48.7273833  85.4041313
  51.7318553  48.3423833  85.7541313  49.9438553  51.6853833  84.6351313
  50.4708553  51.6023833  83.9441313  49.5528553  50.9073833  84.6891313
  49.9638553  51.5583833  84.5411313  37.4118553  38.2733833  86.8661313
  37.0688553  37.5063833  86.6321313  36.7168553  38.7973833  86.9301313
  37.2588553  38.2373833  86.8411313  46.4578553  37.1293833  83.8431313
  47.1278553  37.6733833  83.9701313  45.9548553  37.5533833  83.2701313
  46.4828553  37.2723833  83.7771313  45.8168553  42.9373833  81.3361313
  46.3678553  42.3303833  81.6361313  45.3918553  43.2003833  82.0511313
  45.8358553  42.8863833  81.4851313  36.0648553  41.5873833  80.8221313
  35.6968553  41.8893833  81.5531313  36.5988553  40.9583833  81.1061313
  36.0888553  41.5393833  80.9721313  35.7528553  49.9953833  88.3331313
  35.1788553  50.4113833  88.8421313  36.4858553  50.4603833  88.4281313
  35.7768553  50.1253833  88.4221313  47.7868553  44.7683833  77.8981313
  47.8548553  43.9183833  78.0791313  46.9638553  44.8543833  77.6201313
  47.6748553  44.6553833  77.8841313  37.5388553  53.2623833  77.1081313
  37.3938553  53.4183833  76.2621313  38.4048553  53.3413833  77.1861313
  37.6458553  53.2973833  76.9951313  41.7058553  45.6593833  76.8361313
  41.8058553  45.7983833  75.9811313  42.5238553  45.5993833  77.1321313
  41.8408553  45.6703833  76.7531313  50.8658553  53.7233833  74.3161313
  51.5028553  53.5893833  74.8971313  50.5248553  52.9293833  74.1991313
  50.9098553  53.5863833  74.3841313  46.9408553  49.9883833  76.6381313
  46.6898553  49.8603833  77.4641313  46.6238553  49.2933833  76.2171313
  46.8568553  49.8673833  76.6981313  51.5848553  41.6463833  84.7581313
  50.7518553  41.8963833  84.6861313  51.5288553  40.8063833  84.9871313
  51.4538553  41.5593833  84.7811313  38.2258553  52.0773833  83.5851313
  38.1468553  51.2673833  83.2691313  37.7818553  52.5643833  83.0131313
  38.1488553  52.0293833  83.4541313  43.8268553  48.1963833  76.0681313
  44.5438553  47.8493833  75.7121313  43.7928553  48.9963833  75.7201313
  43.9278553  48.2633833  75.9641313  35.7978553  54.3213833  87.1661313
  36.2908553  54.2653833  87.8841313  35.9858553  53.5883833  86.7311313
  35.8988553  54.2043833  87.2081313  45.2358553  36.8373833  60.3068903
  44.9908553  37.3253833  59.6268903  46.0988553  36.7643833  60.2068903
  45.3268553  36.8983833  60.1918903  45.0448553  43.7533833  64.9778903
  44.5208553  44.3493833  65.3408903  45.4418553  43.3853833  65.6618903
  45.0258553  43.7873833  65.1328903  34.9138553  47.8933833  60.4338903
  34.4728553  48.0113833  61.1768903  34.6308553  47.1183833  60.1488903
  34.8068553  47.7963833  60.5018903  51.1888553  51.1943833  57.9488903
  51.8898553  50.6753833  57.9448903  50.6018553  50.7493833  57.4798903
  51.2058553  51.0513833  57.8788903  37.7958553  46.9483833  55.6128903
  37.4038553  46.5773833  54.9268903  37.7158553  46.3503833  56.2418903
  37.7258553  46.8053833  55.6038903  47.7158553  44.8203833  61.6538903
  47.7958553  44.8243833  60.7848903  47.1318553  44.1883833  61.8028903
  47.6408553  44.7273833  61.5478903  37.4228553  48.5893833  59.5128903
  38.0308553  48.4193833  60.1158903  36.6718553  48.4493833  59.9338903
  37.4018553  48.5433833  59.6638903  41.7048553  37.9243833  59.4618903
  41.6348553  38.6013833  58.9158903  42.4458553  37.5363833  59.2128903
  41.8038553  37.9673833  59.3438903  36.3138553  51.6803833  55.5898903
  36.7808553  51.7643833  54.8578903  36.7688553  51.1023833  56.0588903
  36.4498553  51.6073833  55.5508903  34.8538553  50.6283833  66.6888903
  34.9828553  50.3483833  67.5048903  34.2438553  50.0873833  66.3798903
  34.7828553  50.5073833  66.7638903  41.4278553  48.1533833  71.7558903
  41.1918553  48.1503833  72.5958903  40.6798553  48.0053833  71.3318903
  41.2818553  48.1303833  71.8168903  36.2998553  45.1493833  60.8908903
  35.8378553  44.7573833  60.2638903  36.9998553  44.6363833  60.9828903
  36.3348553  45.0163833  60.8118903  40.8078553  40.7593833  66.2378903
  41.4858553  40.7773833  65.6888903  40.7628553  39.9233833  66.4828903
  40.9008553  40.6383833  66.1928903  41.4098553  51.3453833  69.0188903
  41.5478553  52.1053833  68.6118903  42.2008553  50.9803833  69.0458903
  41.5468553  51.4043833  68.9628903  38.3008553  43.2493833  60.9138903
  39.1178553  43.0623833  61.1568903  37.8238553  42.6353833  61.3098903
  38.3508553  43.1313833  61.0088903  42.5048553  49.2303833  63.5238903
  42.8528553  48.4313833  63.5538903  43.1698553  49.7343833  63.2688903
  42.6548553  49.1863833  63.4908903  42.5618553  48.6793833  59.7348903
  42.8928553  48.0353833  60.2208903  42.8018553  48.4683833  58.9238903
  42.6458553  48.5533833  59.6868903  44.5298553  42.8103833  71.0738903
  43.6818553  42.7113833  70.8958903  44.5588553  43.5553833  71.5278903
  44.4088553  42.9063833  71.1148903  49.0878553  35.7703833  70.1878903
  48.9298553  36.5393833  69.8058903  48.3158553  35.5503833  70.5318903
  48.9498553  35.8513833  70.1828903  46.5498553  40.4113833  54.7018903
  46.0998553  41.0923833  55.0088903  46.6638553  39.9073833  55.4048903
  46.5008553  40.4373833  54.8508903  34.7558553  42.9103833  63.9038903
  34.4998553  43.7413833  63.8288903  34.0918553  42.5273833  64.3208903
  34.6198553  42.9763833  63.9548903  34.6658553  52.6203833  61.8038903
  34.0738553  53.1783833  61.4908903  35.0918553  52.3513833  61.0918903
  34.6418553  52.6623833  61.6528903  40.5058553  50.4643833  59.2838903
  39.9268553  50.1893833  59.8758903  41.1298553  49.8553833  59.3088903
  40.5128553  50.3343833  59.3748903  46.6488553  52.7523833  56.8058903
  47.3758553  53.2243833  56.9078903  46.8778553  51.9583833  57.0858903
  46.7908553  52.7053833  56.8628903  44.8168553  53.1443833  58.7958903
  45.0308553  53.6713833  59.4578903  45.5838553  52.9703833  58.4168903
  44.9618553  53.1963833  58.8378903  41.0908553  39.8603833  73.6928903
  41.2078553  39.4063833  72.9568903  41.3788553  40.6583833  73.4898903
  41.1508553  39.9113833  73.5538903  36.2108553  51.2903833  59.7348903
  36.8668553  50.7153833  59.7498903  36.5998553  52.0393833  59.5138903
  36.3658553  51.3153833  59.7048903  51.9438553  40.3843833  60.9968903
  51.5978553  41.0623833  61.4228903  51.3078553  39.7863833  61.0128903
  51.7988553  40.3963833  61.0618903  47.2558553  53.1543833  67.1008903
  47.9998553  53.6103833  67.0908903  47.1348553  52.9403833  66.2638903
  47.3478553  53.1903833  66.9758903  36.8238553  39.4573833  72.6768903
  36.0458553  39.0673833  72.6048903  37.3148553  39.0453833  72.0858903
  36.7808553  39.3383833  72.5788903  37.0288553  49.7773833  63.2348903
  37.4518553  49.4213833  62.5608903  37.3528553  49.3553833  63.9268903
  37.1388553  49.6623833  63.2378903  40.2598553  52.6293833  62.5308903
  41.1038553  52.7333833  62.3358903  39.9628553  53.4473833  62.5988903
  40.3408553  52.7653833  62.5118903  43.4728553  37.1003833  71.8448903
  43.6508553  36.2913833  71.5698903  43.3298553  37.5413833  71.1058903
  43.4778553  37.0463833  71.6948903  44.0668553  42.0263833  60.6178903
  44.3538553  41.7943833  59.8278903  44.7988553  42.1053833  61.0868903
  44.2168553  42.0033833  60.5708903  44.7888553  42.3653833  55.7388903
  45.0698553  43.1533833  55.9878903  44.0128553  42.5303833  55.3758903
  44.7158553  42.5063833  55.7218903  48.8298553  54.3393833  57.2058903
  49.4948553  54.1913833  56.6608903  49.1898553  54.2563833  57.9958903
  48.9818553  54.3053833  57.2418903  39.2578553  53.8483833  68.2708903
  39.5498553  53.7813833  69.0908903  38.6318553  53.2433833  68.2258903
  39.2088553  53.7493833  68.3858903  51.6188553  38.7073833  66.3658903
  52.3758553  38.7793833  65.9378903  51.6818553  37.9343833  66.7648903
  51.7398553  38.6043833  66.3608903  34.1718553  40.0053833  70.2628903
  34.1678553  40.5923833  70.9088903  34.7658553  40.3173833  69.7058903
  34.2588553  40.1383833  70.2758903  46.5098553  50.3393833  70.8048903
  46.4758553  50.7213833  71.5888903  47.3638553  50.2973833  70.6338903
  46.6308553  50.3893833  70.8958903  43.6478553  50.5363833  55.5548903
  43.4668553  51.0813833  56.2118903  44.4138553  50.8263833  55.2538903
  43.7338553  50.6603833  55.6078903  47.1548553  38.4323833  56.6088903
  47.6948553  37.7503833  56.6848903  47.2168553  38.8303833  57.3828903
  47.2438553  38.3903833  56.7348903  37.2508553  52.0103833  67.3928903
  36.5528553  51.5023833  67.5188903  37.5108553  51.8053833  66.5848903
  37.1858553  51.9053833  67.2918903  44.4128553  40.8083833  57.9228903
  43.9048553  40.1463833  57.6688903  44.4648553  41.3123833  57.2128903
  44.3458553  40.7853833  57.7808903  44.9618553  53.5033833  68.3028903
  45.7298553  53.4233833  67.8968903  44.3788553  53.3823833  67.6648903
  44.9888553  53.4733833  68.1488903  44.4128553  37.7493833  57.8138903
  43.9578553  37.3473833  57.1878903  45.1858553  37.9043833  57.4388903
  44.4598553  37.7133833  57.6658903  51.2388553  54.1063833  61.2038903
  50.7838553  54.8233833  61.4048903  50.6248553  53.5353833  60.9618903
  51.0808553  54.1283833  61.1978903  43.0108553  40.1163833  62.3358903
  43.0848553  40.6843833  61.6778903  43.1318553  40.6083833  63.0458903
  43.0388553  40.2733833  62.3438903  48.2358553  49.9513833  60.7478903
  48.9368553  49.4693833  60.9368903  47.5758553  49.3823833  60.7928903
  48.2418553  49.7963833  60.7818903  38.6118553  50.8613833  69.9598903
  39.4528553  50.9243833  69.7378903  38.5748553  51.2583833  70.7358903
  38.7308553  50.9293833  70.0418903  40.5748553  46.3723833  64.7088903
  40.7468553  46.1623833  65.5378903  39.9198553  45.8383833  64.4928903
  40.5038553  46.2623833  64.7998903  46.8028553  40.2863833  68.2238903
  46.7078553  40.6053833  69.0298903  46.2098553  39.6473833  68.1858903
  46.7008553  40.2383833  68.3378903  47.5018553  47.0053833  66.4288903
  46.9878553  46.5933833  66.9998903  47.3758553  47.8493833  66.6098903
  47.4078553  47.0693833  66.5398903  48.0588553  36.2303833  61.0598903
  48.1078553  35.9123833  61.8708903  48.3818553  35.5863833  60.5668903
  48.1138553  36.0883833  61.1068903  34.1458553  50.6813833  73.5098903
  34.9018553  51.0303833  73.7678903  34.3228553  49.8283833  73.4528903
  34.2838553  50.6063833  73.5398903  50.5228553  40.4663833  69.3678903
  51.2948553  40.2413833  69.7048903  50.0478553  40.6833833  70.0678903
  50.5668553  40.4653833  69.5208903  38.0668553  39.7493833  62.3378903
  38.3388553  39.3193833  61.6298903  37.8908553  39.1133833  62.9088903
  38.0808553  39.5923833  62.3178903  50.7548553  47.4443833  56.5558903
  50.8738553  47.1573833  57.3708903  51.5618553  47.4653833  56.2258903
  50.8908553  47.4053833  56.6278903  37.8908553  47.1763833  61.8868903
  38.7418553  47.0963833  61.7138903  37.5338553  46.4943833  61.4748903
  37.9638553  47.0633833  61.7998903  36.6578553  53.9013833  63.1238903
  35.9848553  53.4033833  62.8788903  37.0608553  54.0863833  62.3728903
  36.6178553  53.8553833  62.9768903  36.2078553  40.8513833  65.4198903
  37.0508553  41.0713833  65.3768903  35.8188553  41.4243833  64.8888903
  36.2748553  40.9683833  65.3348903  52.9888553  51.9533833  70.8098903
  52.3068553  52.2633833  70.3628903  52.6198553  51.4953833  71.4548903
  52.8328553  51.9313833  70.8388903  48.6498553  43.9813833  56.1408903
  48.4298553  44.7123833  55.7188903  48.2018553  44.0323833  56.8878903
  48.5508553  44.0963833  56.1888903  40.2588553  47.1833833  60.1218903
  40.9718553  47.6783833  60.2118903  40.4808553  46.6163833  59.4958903
  40.3968553  47.1723833  60.0428903  52.8368553  38.8423833  55.5938903
  52.1748553  38.2743833  55.6168903  52.6438553  39.3543833  54.9138903
  52.7108553  38.8343833  55.4968903  34.4148553  48.8263833  63.4418903
  33.7478553  49.3143833  63.7178903  35.0948553  49.3713833  63.4708903
  34.4168553  48.9783833  63.4868903  42.0618553  42.5363833  73.5378903
  41.5778553  43.1133833  73.9798903  42.0338553  42.8313833  72.7168903
  41.9858553  42.6653833  73.4818903  53.1598553  43.2203833  68.1498903
  53.3748553  42.4203833  67.8738903  52.3098553  43.2803833  67.9608903
  53.0658553  43.1113833  68.0808903  34.4808553  45.5103833  58.5448903
  34.2958553  44.6713833  58.6968903  35.1398553  45.4743833  57.9748903
  34.5508553  45.3813833  58.4828903  50.8388553  38.4003833  57.8728903
  51.5848553  37.9933833  58.0718903  51.1018553  39.1153833  57.4478903
  50.9878553  38.4463833  57.8398903  44.7818553  50.8863833  62.4488903
  44.2588553  51.5203833  62.1558903  45.0918553  50.5223833  61.7198903
  44.7498553  50.9263833  62.2978903  34.6528553  49.6743833  58.1198903
  35.2048553  50.2433833  58.4838903  34.4208553  49.1593833  58.7848903
  34.6998553  49.6823833  58.2718903  38.8568553  48.6743833  65.2088903
  39.3238553  48.9633833  65.8868903  39.4288553  48.1963833  64.7548903
  39.0108553  48.6463833  65.2418903  47.2928553  40.6883833  62.9458903
  47.6368553  40.8403833  63.7328903  46.8398553  39.9503833  63.0588903
  47.2768553  40.6013833  63.0788903  34.4828553  48.1233833  55.7478903
  35.2388553  47.6913833  55.8058903  34.4978553  48.6553833  56.4388903
  34.5968553  48.1383833  55.8588903  35.4228553  46.3443833  63.7528903
  35.8538553  46.2153833  63.0058903  35.2178553  47.1923833  63.7268903
  35.4558553  46.4503833  63.6388903  41.7688553  39.9083833  57.4028903
  41.7668553  39.7913833  56.5378903  41.5878553  40.7563833  57.4948903
  41.7418553  40.0163833  57.2888903  50.8228553  52.3353833  68.8998903
  50.1518553  52.8493833  69.1178903  50.8858553  52.4353833  68.0358903
  50.7328553  52.4263833  68.8048903  39.5068553  49.8603833  62.0348903
  39.6328553  50.7033833  62.2218903  40.1748553  49.4613833  62.4308903
  39.6248553  49.9263833  62.1208903  37.6368553  43.3433833  71.8968903
  37.1008553  42.8373833  72.3648903  37.6568553  42.9533833  71.1168903
  37.5598553  43.2103833  71.8508903  38.1218553  42.7403833  57.0368903
  37.9938553  42.2923833  57.7748903  37.5398553  42.3983833  56.4848903
  38.0168553  42.6233833  57.0648903  38.2888553  44.5703833  63.6358903
  37.5078553  44.5113833  63.2528903  38.3608553  43.8183833  64.0728903
  38.1838553  44.4513833  63.6438903  38.7188553  44.3073833  67.1038903
  38.7438553  43.6323833  66.5528903  38.0728553  44.8033833  66.7918903
  38.6278553  44.2803833  66.9768903  48.6138553  42.0203833  65.4998903
  47.9518553  42.3483833  65.9628903  48.8008553  42.6543833  64.9308903
  48.5438553  42.1623833  65.4838903  42.8188553  53.0843833  66.4958903
  42.5418553  52.4433833  65.9728903  42.6108553  53.8103833  66.0578903
  42.7478553  53.0973833  66.3538903  45.2588553  37.9263833  68.9288903
  45.4078553  37.1013833  68.6858903  45.6378553  37.9813833  69.7128903
  45.3368553  37.8123833  69.0088903  46.8068553  39.9893833  59.0108903
  47.2968553  40.7063833  58.9338903  46.0168553  40.2503833  58.7478903
  46.7628553  40.1333833  58.9608903  36.5178553  45.6623833  72.6628903
  36.4808553  46.1633833  71.9488903  36.8488553  44.9103833  72.3678903
  36.5608553  45.6243833  72.5138903  48.1208553  47.8673833  70.9208903
  48.6048553  48.5853833  71.0188903  48.5148553  47.4403833  70.2698903
  48.2508553  47.9103833  70.8388903  42.4168553  50.7123833  72.0978903
  42.7708553  50.5343833  72.8748903  41.9808553  49.9833833  71.8988903
  42.4048553  50.5783833  72.1838903  43.3888553  41.4593833  64.7358903
  43.8688553  42.1583833  64.9438903  43.7618553  40.8123833  65.1868903
  43.5148553  41.4673833  64.8328903  45.5778553  44.6283833  57.0098903
  45.5698553  45.3503833  56.5198903  44.9388553  44.7633833  57.5868903
  45.4828553  44.7553833  57.0228903  50.5498553  48.4983833  60.9908903
  50.9058553  48.1483833  61.7058903  50.5418553  47.8373833  60.4208903
  50.6018553  48.3483833  61.0118903  46.5948553  51.5643833  64.8348903
  45.9918553  51.2683833  64.2778903  47.1398553  52.0163833  64.3258903
  46.5858553  51.5873833  64.6768903  46.6078553  48.4153833  64.2348903
  45.8108553  48.6393833  64.5088903  46.8658553  47.8213833  64.8198903
  46.5278553  48.3603833  64.3618903  40.4998553  53.2273833  58.6828903
  40.3528553  52.4513833  59.0538903  41.1888553  53.0803833  58.1678903
  40.5798553  53.0903833  58.6618903  42.7918553  52.7433833  57.0848903
  43.4138553  52.9063833  57.6748903  42.8278553  53.4343833  56.5528903
  42.8888553  52.8693833  57.0938903  49.8678553  46.4133833  69.0808903
  49.9228553  46.5383833  68.2188903  50.6208553  46.7333833  69.3828903
  49.9868553  46.4783833  68.9978903  46.0588553  51.7623833  73.3578903
  46.2228553  52.0453833  74.1668903  46.3218553  52.4233833  72.8528903
  46.1218553  51.9023833  73.4028903  37.2928553  45.2773833  57.9138903
  37.6168553  44.4983833  57.6918903  37.9388553  45.6453833  58.3688903
  37.4358553  45.2163833  57.9478903  45.5988553  46.2193833  68.6808903
  45.4438553  46.8293833  69.2848903  46.1328553  45.6613833  69.0868903
  45.6548553  46.2273833  68.8298903  49.2088553  48.9483833  65.2078903
  48.7298553  49.2463833  64.5418903  48.8528553  48.1723833  65.3858903
  49.0858553  48.8773833  65.1358903  43.2058553  46.6663833  63.7698903
  42.3588553  46.4723833  63.8508903  43.5298553  46.5013833  64.5628903
  43.1278553  46.6133833  63.8988903  39.9578553  53.3963833  54.6558903
  40.3968553  52.6993833  54.9438903  40.1648553  54.0203833  55.2288903
  40.0538553  53.3853833  54.7828903  37.0538553  46.3593833  66.0858903
  37.7758553  46.8473833  66.0488903  36.7838553  46.3293833  65.2568903
  37.1208553  46.4273833  65.9578903  40.2838553  41.5303833  62.8208903
  41.1298553  41.3403833  62.9188903  39.9138553  40.7533833  62.6828903
  40.3538553  41.3873833  62.8148903  52.9008553  53.1143833  57.1478903
  53.5948553  52.6473833  56.8998903  52.3618553  52.5163833  57.4848903
  52.9238553  52.9563833  57.1608903  35.1048553  42.8683833  59.4758903
  35.5938553  42.5763833  60.1368903  35.2338553  42.2753833  58.8488903
  35.1958553  42.7373833  59.4808903  50.1398553  45.8903833  66.3268903
  50.1328553  45.1143833  66.7248903  49.2988553  46.1243833  66.3198903
  50.0148553  45.8103833  66.3848903  39.6298553  44.3023833  54.9618903
  39.0198553  43.8973833  55.4358903  39.2438553  44.4203833  54.1888903
  39.4828553  44.2593833  54.9178903  36.4488553  47.4113833  70.3638903
  36.0278553  46.8933833  69.8028903  36.0968553  48.1973833  70.2208903
  36.3348553  47.4513833  70.2598903  51.3958553  45.9613833  63.7638903
  51.1098553  46.3623833  64.4838903  52.2558553  45.8993833  63.8908903
  51.4808553  46.0113833  63.8888903  41.0848553  42.7633833  57.6718903
  41.3568553  43.5893833  57.7388903  40.2218553  42.8383833  57.5758903
  40.9978553  42.8963833  57.6668903  49.0578553  39.8853833  72.3038903
  48.5328553  40.3443833  72.8278903  48.6968553  39.0903833  72.2978903
  48.9268553  39.8353833  72.3798903  34.5648553  38.7333833  64.2078903
  34.6088553  39.0773833  63.4068903  35.3198553  38.9703833  64.5748903
  34.6828553  38.8193833  64.1438903  52.5268553  51.5943833  64.2928903
  52.8168553  51.8513833  63.5118903  53.2218553  51.6903833  64.8118903
  52.6728553  51.6463833  64.2538903  49.8178553  43.7733833  70.7448903
  50.1368553  44.5593833  70.9478903  49.4478553  43.5033833  71.4878903
  49.8108553  43.8493833  70.8848903  49.1318553  50.1973833  56.2748903
  49.4658553  49.3913833  56.3098903  48.3768553  50.1253833  56.7048903
  49.0698553  50.0673833  56.3438903  49.6138553  42.0313833  61.9338903
  48.8688553  41.7083833  62.2518903  49.6158553  42.8573833  62.2138903
  49.5038553  42.1053833  62.0218903  52.5158553  44.3153833  73.4798903
  52.4638553  43.9743833  72.6788903  53.2528553  44.7823833  73.4578903
  52.6168553  44.3343833  73.3578903  52.0538553  47.9913833  69.6858903
  52.6818553  47.4423833  69.4298903  51.9928553  48.5563833  69.0238903
  52.1378553  47.9943833  69.5498903  46.5058553  48.0723833  55.6778903
  47.1898553  47.5583833  55.5088903  46.0888553  48.1183833  54.9128903
  46.5448553  48.0033833  55.5398903  41.1878553  49.2223833  66.9818903
  40.8898553  49.8143833  67.5488903  41.2428553  49.6643833  66.2328903
  41.1518553  49.3753833  66.9548903  39.1668553  48.1723833  70.3798903
  38.3608553  47.8823833  70.5468903  39.0778553  49.0403833  70.3858903
  39.0348553  48.2573833  70.4048903  48.5258553  38.3613833  69.3948903
  49.2698553  38.8133833  69.3318903  47.9598553  38.8313833  68.9258903
  48.5528553  38.4983833  69.3168903  43.7038553  45.6453833  66.4728903
  44.1798553  46.0193833  67.1008903  42.8808553  45.7793833  66.7318903
  43.6528553  45.7203833  66.6038903  40.4138553  41.2483833  69.2138903
  40.5748553  40.5043833  69.6408903  40.3688553  40.9993833  68.3788903
  40.4308553  41.1013833  69.1538903  42.9678553  53.0383833  61.7008903
  43.5138553  53.7173833  61.7548903  42.6178553  53.1203833  60.9058903
  42.9968553  53.1513833  61.5908903  49.8108553  36.3413833  67.0648903
  49.5308553  37.1663833  67.0208903  50.5268553  36.3943833  67.5608903
  49.8758553  36.4713833  67.1318903  42.1658553  37.0563833  69.0938903
  42.8708553  37.3763833  68.6918903  42.4068553  36.2493833  69.3208903
  42.3048553  36.9843833  69.0678903  41.1508553  51.2663833  65.0898903
  40.5268553  51.8483833  64.9078903  41.3988553  50.9803833  64.3038903
  41.0948553  51.3103833  64.9468903  45.4598553  47.9003833  72.0788903
  46.2168553  48.1863833  71.7528903  44.9128553  47.9523833  71.4008903
  45.4908553  47.9503833  71.9298903  49.3688553  50.4503833  70.5828903
  49.7148553  50.7203833  71.3368903  49.6628553  51.0323833  70.0028903
  49.4638553  50.5763833  70.6088903  51.2318553  42.5963833  55.9218903
  51.6098553  43.2733833  55.5218903  50.3898553  42.8203833  55.9528903
  51.1628553  42.7293833  55.8668903  42.7448553  46.0423833  55.0048903
  41.9398553  45.8653833  54.7198903  42.7118553  46.8933833  55.1968903
  42.6208553  46.1413833  54.9918903  38.6748553  42.1093833  65.1548903
  39.1148553  42.0063833  64.4088903  39.2198553  41.7963833  65.7598903
  38.8198553  42.0483833  65.1338903  46.6908553  41.2113833  70.7468903
  46.0428553  41.6813833  71.0948903  47.2558553  41.1223833  71.4058903
  46.6788553  41.2673833  70.8958903  46.3788553  42.7483833  67.0448903
  46.6808553  43.1683833  67.7478903  46.4148553  41.9083833  67.2768903
  46.4288553  42.6863833  67.1828903  43.8038553  52.9153833  70.9698903
  44.2818553  52.3153833  70.5538903  43.4528553  52.4723833  71.6348903
  43.8228553  52.7613833  71.0068903  48.9268553  42.1953833  59.2968903
  49.1338553  41.9943833  60.1208903  49.6828553  42.4633833  58.9548903
  49.0688553  42.2053833  59.3678903  49.9488553  38.2783833  60.7708903
  49.2348553  37.8073833  60.9418903  49.7868553  38.6193833  59.9848903
  49.8198553  38.2593833  60.6798903  50.3918553  46.2223833  59.1508903
  50.8678553  45.4933833  59.1028903  49.5708553  45.9363833  59.0748903
  50.3408553  46.0723833  59.1318903  43.8628553  48.1343833  69.9898903
  43.0678553  48.0703833  70.3408903  43.9338553  48.9813833  69.7948903
  43.7558553  48.2493833  70.0128903  34.7868553  37.4923833  71.2368903
  34.6468553  38.2873833  70.9058903  34.0008553  37.2493833  71.5258903
  34.6498553  37.5743833  71.2308903  39.6928553  54.3413833  65.3068903
  39.7038553  54.4003833  66.1768903  39.2678553  53.5943833  65.1568903
  39.6318553  54.2393833  65.4128903  37.8508553  40.2363833  58.4618903
  37.9768553  39.9073833  57.6638903  37.0388553  39.9873833  58.6608903
  37.7498553  40.1513833  58.3738903  46.6078553  47.3893833  61.5058903
  46.6838553  47.7303833  62.3048903  46.7768553  46.5423833  61.6268903
  46.6438553  47.3143833  61.6418903  44.1298553  46.6633833  61.0708903
  43.8318553  46.3483833  61.8278903  44.8248553  47.1363833  61.3058903
  44.1888553  46.6863833  61.2178903  44.3518553  50.7813833  69.0978903
  45.0388553  50.6673833  69.6228903  44.4858553  51.5723833  68.7538903
  44.4728553  50.8813833  69.1248903  52.5278553  43.3903833  70.9088903
  51.6728553  43.2683833  71.0348903  52.6808553  42.9953833  70.1458903
  52.4238553  43.3133833  70.8148903  47.0408553  44.0553833  69.4848903
  46.7858553  43.3363833  69.9068903  47.8618553  44.1713833  69.7548903
  47.1248553  43.9663833  69.5868903  36.4568553  53.8393833  70.7488903
  35.8028553  53.2703833  70.8468903  36.0818553  54.6123833  70.8998903
  36.3048553  53.8693833  70.7858903  44.9748553  45.2453833  72.6718903
  45.2978553  45.9313833  72.2398903  44.2708553  45.5683833  73.0738903
  44.9178553  45.3943833  72.6668903  48.0588553  53.6193833  63.6008903
  47.6078553  54.2623833  63.9798903  48.7668553  53.5403833  64.1058903
  48.0968553  53.7023833  63.7318903  44.7598553  48.7093833  66.5308903
  44.0658553  49.1113833  66.8738903  45.4368553  49.1423833  66.8698903
  44.7568553  48.8323833  66.6318903  50.1368553  51.3023833  73.1108903
  50.9128553  50.9123833  73.1938903  49.6678553  50.9663833  73.7658903
  50.1818553  51.1953833  73.2198903  37.8278553  42.2473833  68.8778903
  38.2028553  42.8663833  68.3908903  38.5018553  41.7733833  69.1628903
  37.9828553  42.2693833  68.8478903  35.6028553  40.6953833  68.1528903
  35.6798553  40.5263833  67.2998903  36.3488553  41.1013833  68.3498903
  35.7238553  40.7303833  68.0558903  51.1618553  43.3353833  58.5928903
  51.2648553  43.2773833  57.7288903  51.9028553  43.0033833  58.9108903
  51.2868553  43.2783833  58.5118903  45.0818553  50.3003833  59.6998903
  44.8768553  51.1333833  59.5408903  44.3068553  49.9183833  59.8218903
  44.9368553  50.3673833  59.6948903  50.2638553  43.4813833  67.9488903
  50.2618553  42.6183833  68.0728903  50.3308553  43.8053833  68.7558903
  50.2738553  43.4013833  68.0858903  34.9998553  45.9213833  68.3768903
  35.3198553  46.1403833  67.5958903  34.8998553  45.0563833  68.3218903
  35.0318553  45.8263833  68.2538903  46.1428553  38.2813833  71.7308903
  46.2348553  38.9933833  72.2248903  45.5058553  37.8363833  72.1278903
  46.0618553  38.3203833  71.8628903  45.1368553  38.4713833  62.5848903
  44.4368553  38.9893833  62.5288903  45.1748553  38.0913833  61.8008903
  45.0388553  38.4923833  62.4608903  40.4438553  50.5623833  56.1088903
  40.8848553  50.6423833  56.8568903  39.6388553  50.3463833  56.3668903
  40.3898553  50.5423833  56.2578903  48.7348553  38.9873833  65.3848903
  49.5898553  39.0863833  65.5298903  48.3658553  39.5403833  65.9498903
  48.8068553  39.0843833  65.4898903  39.7628553  45.2133833  69.7618903
  39.3668553  45.9873833  69.8368903  39.3568553  44.8403833  69.0858903
  39.6448553  45.2723833  69.6728903  49.0388553  44.2673833  63.8758903
  49.7048553  44.8083833  64.0358903  48.6938553  44.5783833  63.1368903
  49.0858553  44.3933833  63.7908903  49.3518553  52.3333833  59.6828903
  49.1778553  51.6793833  60.2328903  50.0648553  52.0623833  59.2598903
  49.4318553  52.1963833  59.7018903  37.7728553  49.6323833  56.7098903
  37.5288553  49.3253833  57.4898903  37.7398553  48.9293833  56.1938903
  37.7318553  49.4833833  56.7488903  40.5918553  47.8773833  55.4528903
  39.7738553  47.6093833  55.5928903  40.5638553  48.7293833  55.6378903
  40.4668553  47.9643833  55.5008903  40.1918553  38.1903833  67.2118903
  39.3278553  38.2743833  67.2918903  40.4118553  37.6763833  67.8808903
  40.0968553  38.1273833  67.3228903  52.2098553  36.8253833  68.5408903
  52.1578553  36.7813833  69.4108903  52.8968553  36.3223833  68.3508903
  52.3038553  36.7453833  68.6408903  44.2948553  38.9383833  65.5858903
  43.5578553  38.4843833  65.6988903  44.8658553  38.5363833  66.1088903
  44.2698553  38.8113833  65.6798903  47.0268553  49.7863833  67.3738903
  47.2328553  50.0873833  68.1658903  46.9658553  50.5083833  66.8888903
  47.0478553  49.9373833  67.4188903  46.5608553  54.0003833  71.6198903
  45.8078553  53.9823833  71.1788903  46.7288553  54.8523833  71.7038903
  46.4748553  54.1233833  71.5668903  41.7978553  43.2673833  70.7898903
  41.4758553  42.6913833  70.2198903  41.4388553  44.0223833  70.5438903
  41.6978553  43.2933833  70.6698903  51.8388553  48.4253833  66.8318903
  51.8068553  47.5633833  66.6968903  51.1458553  48.7273833  66.3978903
  51.7318553  48.3423833  66.7478903  40.2328553  53.6233833  71.0378903
  40.2738553  53.7493833  71.9008903  40.8838553  53.0633833  70.8818903
  40.3348553  53.5593833  71.1428903  49.9438553  51.6853833  65.6288903
  50.4708553  51.6023833  64.9378903  49.5528553  50.9073833  65.6828903
  49.9638553  51.5583833  65.5348903  37.4118553  38.2733833  67.8598903
  37.0688553  37.5063833  67.6258903  36.7168553  38.7973833  67.9238903
  37.2588553  38.2373833  67.8348903  46.4578553  37.1293833  64.8368903
  47.1278553  37.6733833  64.9638903  45.9548553  37.5533833  64.2638903
  46.4828553  37.2723833  64.7708903  37.8258553  52.0063833  72.3978903
  38.4208553  52.4373833  72.8698903  37.4618553  52.6303833  71.9088903
  37.8598553  52.1623833  72.3948903  45.8168553  42.9373833  62.3298903
  46.3678553  42.3303833  62.6298903  45.3918553  43.2003833  63.0448903
  45.8358553  42.8863833  62.4788903  36.0648553  41.5873833  61.8158903
  35.6968553  41.8893833  62.5468903  36.5988553  40.9583833  62.0998903
  36.0888553  41.5393833  61.9658903  35.7528553  49.9953833  69.3268903
  35.1788553  50.4113833  69.8358903  36.4858553  50.4603833  69.4218903
  35.7768553  50.1253833  69.4158903  47.7868553  44.7683833  58.8918903
  47.8548553  43.9183833  59.0728903  46.9638553  44.8543833  58.6138903
  47.6748553  44.6553833  58.8778903  37.5388553  53.2623833  58.1018903
  37.3938553  53.4183833  57.2558903  38.4048553  53.3413833  58.1798903
  37.6458553  53.2973833  57.9888903  41.7058553  45.6593833  57.8298903
  41.8058553  45.7983833  56.9748903  42.5238553  45.5993833  58.1258903
  41.8408553  45.6703833  57.7468903  50.8658553  53.7233833  55.3098903
  51.5028553  53.5893833  55.8908903  50.5248553  52.9293833  55.1928903
  50.9098553  53.5863833  55.3778903  51.0608553  46.1413833  72.0428903
  51.6948553  45.9713833  72.6168903  51.4778553  46.5443833  71.3908903
  51.2158553  46.1763833  72.0318903  46.9408553  49.9883833  57.6318903
  46.6898553  49.8603833  58.4578903  46.6238553  49.2933833  57.2108903
  46.8568553  49.8673833  57.6918903  51.6858553  40.7053833  72.7808903
  51.4898553  41.3493833  73.3358903  50.9638553  40.2153833  72.7728903
  51.5508553  40.7283833  72.8618903  51.5848553  41.6463833  65.7518903
  50.7518553  41.8963833  65.6798903  51.5288553  40.8063833  65.9808903
  51.4538553  41.5593833  65.7748903  40.8448553  38.6343833  70.9458903
  41.0788553  38.0583833  70.3328903  40.0028553  38.4533833  71.0868903
  40.7548553  38.5223833  70.8758903  48.4718553  46.2523833  73.3978903
  49.3428553  46.2163833  73.3618903  48.2528553  46.6723833  72.6658903
  48.5688553  46.3083833  73.2848903  38.2258553  52.0773833  64.5788903
  38.1468553  51.2673833  64.2628903  37.7818553  52.5643833  64.0068903
  38.1488553  52.0293833  64.4478903  43.8268553  48.1963833  57.0618903
  44.5438553  47.8493833  56.7058903  43.7928553  48.9963833  56.7138903
  43.9278553  48.2633833  56.9578903  35.7978553  54.3213833  68.1598903
  36.2908553  54.2653833  68.8778903  35.9858553  53.5883833  67.7248903
  35.8988553  54.2043833  68.2018903  45.2358553  36.8373833  41.3006493
  44.9908553  37.3253833  40.6206493  46.0988553  36.7643833  41.2006493
  45.3268553  36.8983833  41.1856493  45.0448553  43.7533833  45.9716493
  44.5208553  44.3493833  46.3346493  45.4418553  43.3853833  46.6556493
  45.0258553  43.7873833  46.1266493  34.9138553  47.8933833  41.4276493
  34.4728553  48.0113833  42.1706493  34.6308553  47.1183833  41.1426493
  34.8068553  47.7963833  41.4956493  51.1888553  51.1943833  38.9426493
  51.8898553  50.6753833  38.9386493  50.6018553  50.7493833  38.4736493
  51.2058553  51.0513833  38.8726493  37.7958553  46.9483833  36.6066493
  37.4038553  46.5773833  35.9206493  37.7158553  46.3503833  37.2356493
  37.7258553  46.8053833  36.5976493  47.7158553  44.8203833  42.6476493
  47.7958553  44.8243833  41.7786493  47.1318553  44.1883833  42.7966493
  47.6408553  44.7273833  42.5416493  37.4228553  48.5893833  40.5066493
  38.0308553  48.4193833  41.1096493  36.6718553  48.4493833  40.9276493
  37.4018553  48.5433833  40.6576493  41.7048553  37.9243833  40.4556493
  41.6348553  38.6013833  39.9096493  42.4458553  37.5363833  40.2066493
  41.8038553  37.9673833  40.3376493  36.3138553  51.6803833  36.5836493
  36.7808553  51.7643833  35.8516493  36.7688553  51.1023833  37.0526493
  36.4498553  51.6073833  36.5446493  34.8538553  50.6283833  47.6826493
  34.9828553  50.3483833  48.4986493  34.2438553  50.0873833  47.3736493
  34.7828553  50.5073833  47.7576493  41.4278553  48.1533833  52.7496493
  41.1918553  48.1503833  53.5896493  40.6798553  48.0053833  52.3256493
  41.2818553  48.1303833  52.8106493  36.2998553  45.1493833  41.8846493
  35.8378553  44.7573833  41.2576493  36.9998553  44.6363833  41.9766493
  36.3348553  45.0163833  41.8056493  40.8078553  40.7593833  47.2316493
  41.4858553  40.7773833  46.6826493  40.7628553  39.9233833  47.4766493
  40.9008553  40.6383833  47.1866493  41.4098553  51.3453833  50.0126493
  41.5478553  52.1053833  49.6056493  42.2008553  50.9803833  50.0396493
  41.5468553  51.4043833  49.9566493  38.3008553  43.2493833  41.9076493
  39.1178553  43.0623833  42.1506493  37.8238553  42.6353833  42.3036493
  38.3508553  43.1313833  42.0026493  42.5048553  49.2303833  44.5176493
  42.8528553  48.4313833  44.5476493  43.1698553  49.7343833  44.2626493
  42.6548553  49.1863833  44.4846493  42.5618553  48.6793833  40.7286493
  42.8928553  48.0353833  41.2146493  42.8018553  48.4683833  39.9176493
  42.6458553  48.5533833  40.6806493  44.5298553  42.8103833  52.0676493
  43.6818553  42.7113833  51.8896493  44.5588553  43.5553833  52.5216493
  44.4088553  42.9063833  52.1086493  38.8978553  38.3433833  41.1736493
  38.6018553  38.8443833  40.5236493  39.7648553  38.4213833  41.1166493
  38.9818553  38.4293833  41.0696493  49.0878553  35.7703833  51.1816493
  48.9298553  36.5393833  50.7996493  48.3158553  35.5503833  51.5256493
  48.9498553  35.8513833  51.1766493  41.8768553  37.4853833  43.3966493
  41.9498553  38.3453833  43.5256493  41.8388553  37.4103833  42.5286493
  41.8818553  37.6013833  43.2876493  46.5498553  40.4113833  35.6956493
  46.0998553  41.0923833  36.0026493  46.6638553  39.9073833  36.3986493
  46.5008553  40.4373833  35.8446493  34.7558553  42.9103833  44.8976493
  34.4998553  43.7413833  44.8226493  34.0918553  42.5273833  45.3146493
  34.6198553  42.9763833  44.9486493  34.6658553  52.6203833  42.7976493
  34.0738553  53.1783833  42.4846493  35.0918553  52.3513833  42.0856493
  34.6418553  52.6623833  42.6466493  40.5058553  50.4643833  40.2776493
  39.9268553  50.1893833  40.8696493  41.1298553  49.8553833  40.3026493
  40.5128553  50.3343833  40.3686493  46.6488553  52.7523833  37.7996493
  47.3758553  53.2243833  37.9016493  46.8778553  51.9583833  38.0796493
  46.7908553  52.7053833  37.8566493  44.8168553  53.1443833  39.7896493
  45.0308553  53.6713833  40.4516493  45.5838553  52.9703833  39.4106493
  44.9618553  53.1963833  39.8316493  37.7848553  37.7273833  45.3886493
  37.2638553  37.0993833  45.0806493  38.3758553  37.2903833  45.8596493
  37.7958553  37.5693833  45.4126493  36.2108553  51.2903833  40.7286493
  36.8668553  50.7153833  40.7436493  36.5998553  52.0393833  40.5076493
  36.3658553  51.3153833  40.6986493  51.9438553  40.3843833  41.9906493
  51.5978553  41.0623833  42.4166493  51.3078553  39.7863833  42.0066493
  51.7988553  40.3963833  42.0556493  47.2558553  53.1543833  48.0946493
  47.9998553  53.6103833  48.0846493  47.1348553  52.9403833  47.2576493
  47.3478553  53.1903833  47.9696493  37.0288553  49.7773833  44.2286493
  37.4518553  49.4213833  43.5546493  37.3528553  49.3553833  44.9206493
  37.1388553  49.6623833  44.2316493  40.2598553  52.6293833  43.5246493
  41.1038553  52.7333833  43.3296493  39.9628553  53.4473833  43.5926493
  40.3408553  52.7653833  43.5056493  43.4728553  37.1003833  52.8386493
  43.6508553  36.2913833  52.5636493  43.3298553  37.5413833  52.0996493
  43.4778553  37.0463833  52.6886493  44.0668553  42.0263833  41.6116493
  44.3538553  41.7943833  40.8216493  44.7988553  42.1053833  42.0806493
  44.2168553  42.0033833  41.5646493  44.7888553  42.3653833  36.7326493
  45.0698553  43.1533833  36.9816493  44.0128553  42.5303833  36.3696493
  44.7158553  42.5063833  36.7156493  48.8298553  54.3393833  38.1996493
  49.4948553  54.1913833  37.6546493  49.1898553  54.2563833  38.9896493
  48.9818553  54.3053833  38.2356493  39.2578553  53.8483833  49.2646493
  39.5498553  53.7813833  50.0846493  38.6318553  53.2433833  49.2196493
  39.2088553  53.7493833  49.3796493  51.6188553  38.7073833  47.3596493
  52.3758553  38.7793833  46.9316493  51.6818553  37.9343833  47.7586493
  51.7398553  38.6043833  47.3546493  46.5098553  50.3393833  51.7986493
  46.4758553  50.7213833  52.5826493  47.3638553  50.2973833  51.6276493
  46.6308553  50.3893833  51.8896493  43.6478553  50.5363833  36.5486493
  43.4668553  51.0813833  37.2056493  44.4138553  50.8263833  36.2476493
  43.7338553  50.6603833  36.6016493  47.1548553  38.4323833  37.6026493
  47.6948553  37.7503833  37.6786493  47.2168553  38.8303833  38.3766493
  47.2438553  38.3903833  37.7286493  35.1088553  39.6003833  40.1716493
  34.9948553  38.7363833  40.2026493  34.6338553  39.8943833  40.8416493
  35.0218553  39.5163833  40.2746493  37.2508553  52.0103833  48.3866493
  36.5528553  51.5023833  48.5126493  37.5108553  51.8053833  47.5786493
  37.1858553  51.9053833  48.2856493  44.4128553  40.8083833  38.9166493
  43.9048553  40.1463833  38.6626493  44.4648553  41.3123833  38.2066493
  44.3458553  40.7853833  38.7746493  44.9618553  53.5033833  49.2966493
  45.7298553  53.4233833  48.8906493  44.3788553  53.3823833  48.6586493
  44.9888553  53.4733833  49.1426493  44.4128553  37.7493833  38.8076493
  43.9578553  37.3473833  38.1816493  45.1858553  37.9043833  38.4326493
  44.4598553  37.7133833  38.6596493  51.2388553  54.1063833  42.1976493
  50.7838553  54.8233833  42.3986493  50.6248553  53.5353833  41.9556493
  51.0808553  54.1283833  42.1916493  43.0108553  40.1163833  43.3296493
  43.0848553  40.6843833  42.6716493  43.1318553  40.6083833  44.0396493
  43.0388553  40.2733833  43.3376493  48.2358553  49.9513833  41.7416493
  48.9368553  49.4693833  41.9306493  47.5758553  49.3823833  41.7866493
  48.2418553  49.7963833  41.7756493  38.6118553  50.8613833  50.9536493
  39.4528553  50.9243833  50.7316493  38.5748553  51.2583833  51.7296493
  38.7308553  50.9293833  51.0356493  37.6188553  35.9393833  41.6776493
  38.1548553  36.6273833  41.6676493  37.6218553  35.6653833  40.8496493
  37.6978553  36.0003833  41.5536493  40.5748553  46.3723833  45.7026493
  40.7468553  46.1623833  46.5316493  39.9198553  45.8383833  45.4866493
  40.5038553  46.2623833  45.7936493  46.8028553  40.2863833  49.2176493
  46.7078553  40.6053833  50.0236493  46.2098553  39.6473833  49.1796493
  46.7008553  40.2383833  49.3316493  41.3248553  46.3103833  48.2926493
  41.3778553  47.1573833  48.4946493  41.0398553  45.9403833  49.0296493
  41.2908553  46.3803833  48.4306493  47.5018553  47.0053833  47.4226493
  46.9878553  46.5933833  47.9936493  47.3758553  47.8493833  47.6036493
  47.4078553  47.0693833  47.5336493  48.0588553  36.2303833  42.0536493
  48.1078553  35.9123833  42.8646493  48.3818553  35.5863833  41.5606493
  48.1138553  36.0883833  42.1006493  34.1458553  50.6813833  54.5036493
  34.9018553  51.0303833  54.7616493  34.3228553  49.8283833  54.4466493
  34.2838553  50.6063833  54.5336493  50.5228553  40.4663833  50.3616493
  51.2948553  40.2413833  50.6986493  50.0478553  40.6833833  51.0616493
  50.5668553  40.4653833  50.5146493  38.0668553  39.7493833  43.3316493
  38.3388553  39.3193833  42.6236493  37.8908553  39.1133833  43.9026493
  38.0808553  39.5923833  43.3116493  50.7548553  47.4443833  37.5496493
  50.8738553  47.1573833  38.3646493  51.5618553  47.4653833  37.2196493
  50.8908553  47.4053833  37.6216493  36.6578553  53.9013833  44.1176493
  35.9848553  53.4033833  43.8726493  37.0608553  54.0863833  43.3666493
  36.6178553  53.8553833  43.9706493  36.2078553  40.8513833  46.4136493
  37.0508553  41.0713833  46.3706493  35.8188553  41.4243833  45.8826493
  36.2748553  40.9683833  46.3286493  52.9888553  51.9533833  51.8036493
  52.3068553  52.2633833  51.3566493  52.6198553  51.4953833  52.4486493
  52.8328553  51.9313833  51.8326493  48.6498553  43.9813833  37.1346493
  48.4298553  44.7123833  36.7126493  48.2018553  44.0323833  37.8816493
  48.5508553  44.0963833  37.1826493  40.2588553  47.1833833  41.1156493
  40.9718553  47.6783833  41.2056493  40.4808553  46.6163833  40.4896493
  40.3968553  47.1723833  41.0366493  52.8368553  38.8423833  36.5876493
  52.1748553  38.2743833  36.6106493  52.6438553  39.3543833  35.9076493
  52.7108553  38.8343833  36.4906493  34.4148553  48.8263833  44.4356493
  33.7478553  49.3143833  44.7116493  35.0948553  49.3713833  44.4646493
  34.4168553  48.9783833  44.4806493  42.0618553  42.5363833  54.5316493
  41.5778553  43.1133833  54.9736493  42.0338553  42.8313833  53.7106493
  41.9858553  42.6653833  54.4756493  53.1598553  43.2203833  49.1436493
  53.3748553  42.4203833  48.8676493  52.3098553  43.2803833  48.9546493
  53.0658553  43.1113833  49.0746493  34.4808553  45.5103833  39.5386493
  34.2958553  44.6713833  39.6906493  35.1398553  45.4743833  38.9686493
  34.5508553  45.3813833  39.4766493  50.8388553  38.4003833  38.8666493
  51.5848553  37.9933833  39.0656493  51.1018553  39.1153833  38.4416493
  50.9878553  38.4463833  38.8336493  44.7818553  50.8863833  43.4426493
  44.2588553  51.5203833  43.1496493  45.0918553  50.5223833  42.7136493
  44.7498553  50.9263833  43.2916493  34.6528553  49.6743833  39.1136493
  35.2048553  50.2433833  39.4776493  34.4208553  49.1593833  39.7786493
  34.6998553  49.6823833  39.2656493  38.8568553  48.6743833  46.2026493
  39.3238553  48.9633833  46.8806493  39.4288553  48.1963833  45.7486493
  39.0108553  48.6463833  46.2356493  47.2928553  40.6883833  43.9396493
  47.6368553  40.8403833  44.7266493  46.8398553  39.9503833  44.0526493
  47.2768553  40.6013833  44.0726493  34.4828553  48.1233833  36.7416493
  35.2388553  47.6913833  36.7996493  34.4978553  48.6553833  37.4326493
  34.5968553  48.1383833  36.8526493  35.4228553  46.3443833  44.7466493
  35.8538553  46.2153833  43.9996493  35.2178553  47.1923833  44.7206493
  35.4558553  46.4503833  44.6326493  41.7688553  39.9083833  38.3966493
  41.7668553  39.7913833  37.5316493  41.5878553  40.7563833  38.4886493
  41.7418553  40.0163833  38.2826493  50.8228553  52.3353833  49.8936493
  50.1518553  52.8493833  50.1116493  50.8858553  52.4353833  49.0296493
  50.7328553  52.4263833  49.7986493  39.5068553  49.8603833  43.0286493
  39.6328553  50.7033833  43.2156493  40.1748553  49.4613833  43.4246493
  39.6248553  49.9263833  43.1146493  37.6368553  43.3433833  52.8906493
  37.1008553  42.8373833  53.3586493  37.6568553  42.9533833  52.1106493
  37.5598553  43.2103833  52.8446493  38.1218553  42.7403833  38.0306493
  37.9938553  42.2923833  38.7686493  37.5398553  42.3983833  37.4786493
  38.0168553  42.6233833  38.0586493  38.2888553  44.5703833  44.6296493
  37.5078553  44.5113833  44.2466493  38.3608553  43.8183833  45.0666493
  38.1838553  44.4513833  44.6376493  38.7188553  44.3073833  48.0976493
  38.7438553  43.6323833  47.5466493  38.0728553  44.8033833  47.7856493
  38.6278553  44.2803833  47.9706493  48.6138553  42.0203833  46.4936493
  47.9518553  42.3483833  46.9566493  48.8008553  42.6543833  45.9246493
  48.5438553  42.1623833  46.4776493  42.8188553  53.0843833  47.4896493
  42.5418553  52.4433833  46.9666493  42.6108553  53.8103833  47.0516493
  42.7478553  53.0973833  47.3476493  45.2588553  37.9263833  49.9226493
  45.4078553  37.1013833  49.6796493  45.6378553  37.9813833  50.7066493
  45.3368553  37.8123833  50.0026493  46.8068553  39.9893833  40.0046493
  47.2968553  40.7063833  39.9276493  46.0168553  40.2503833  39.7416493
  46.7628553  40.1333833  39.9546493  36.5178553  45.6623833  53.6566493
  36.4808553  46.1633833  52.9426493  36.8488553  44.9103833  53.3616493
  36.5608553  45.6243833  53.5076493  48.1208553  47.8673833  51.9146493
  48.6048553  48.5853833  52.0126493  48.5148553  47.4403833  51.2636493
  48.2508553  47.9103833  51.8326493  42.4168553  50.7123833  53.0916493
  42.7708553  50.5343833  53.8686493  41.9808553  49.9833833  52.8926493
  42.4048553  50.5783833  53.1776493  43.3888553  41.4593833  45.7296493
  43.8688553  42.1583833  45.9376493  43.7618553  40.8123833  46.1806493
  43.5148553  41.4673833  45.8266493  45.5778553  44.6283833  38.0036493
  45.5698553  45.3503833  37.5136493  44.9388553  44.7633833  38.5806493
  45.4828553  44.7553833  38.0166493  50.5498553  48.4983833  41.9846493
  50.9058553  48.1483833  42.6996493  50.5418553  47.8373833  41.4146493
  50.6018553  48.3483833  42.0056493  46.5948553  51.5643833  45.8286493
  45.9918553  51.2683833  45.2716493  47.1398553  52.0163833  45.3196493
  46.5858553  51.5873833  45.6706493  46.6078553  48.4153833  45.2286493
  45.8108553  48.6393833  45.5026493  46.8658553  47.8213833  45.8136493
  46.5278553  48.3603833  45.3556493  40.4998553  53.2273833  39.6766493
  40.3528553  52.4513833  40.0476493  41.1888553  53.0803833  39.1616493
  40.5798553  53.0903833  39.6556493  40.1708553  36.9703833  37.6646493
  40.2678553  36.8633833  38.5256493  39.4628553  37.4763833  37.5996493
  40.0808553  37.0293833  37.7826493  42.7918553  52.7433833  38.0786493
  43.4138553  52.9063833  38.6686493  42.8278553  53.4343833  37.5466493
  42.8888553  52.8693833  38.0876493  49.8678553  46.4133833  50.0746493
  49.9228553  46.5383833  49.2126493  50.6208553  46.7333833  50.3766493
  49.9868553  46.4783833  49.9916493  46.0588553  51.7623833  54.3516493
  46.2228553  52.0453833  55.1606493  46.3218553  52.4233833  53.8466493
  46.1218553  51.9023833  54.3966493  50.8998553  36.7113833  53.0616493
  50.2628553  36.3113833  52.6196493  50.9258553  36.2803833  53.8196493
  50.8098553  36.5893833  53.1076493  37.2928553  45.2773833  38.9076493
  37.6168553  44.4983833  38.6856493  37.9388553  45.6453833  39.3626493
  37.4358553  45.2163833  38.9416493  45.5988553  46.2193833  49.6746493
  45.4438553  46.8293833  50.2786493  46.1328553  45.6613833  50.0806493
  45.6548553  46.2273833  49.8236493  43.9828553  44.6193833  40.3326493
  44.0418553  45.2693833  40.9116493  43.7938553  43.9233833  40.8236493
  43.9638553  44.6123833  40.4906493  49.2088553  48.9483833  46.2016493
  48.7298553  49.2463833  45.5356493  48.8528553  48.1723833  46.3796493
  49.0858553  48.8773833  46.1296493  38.4788553  39.1363833  36.8446493
  37.9678553  39.1893833  36.1386493  39.2628553  39.3763833  36.5486493
  38.5188553  39.1793833  36.6966493  43.2058553  46.6663833  44.7636493
  42.3588553  46.4723833  44.8446493  43.5298553  46.5013833  45.5566493
  43.1278553  46.6133833  44.8926493  39.9578553  53.3963833  35.6496493
  40.3968553  52.6993833  35.9376493  40.1648553  54.0203833  36.2226493
  40.0538553  53.3853833  35.7766493  37.0538553  46.3593833  47.0796493
  37.7758553  46.8473833  47.0426493  36.7838553  46.3293833  46.2506493
  37.1208553  46.4273833  46.9516493  40.2838553  41.5303833  43.8146493
  41.1298553  41.3403833  43.9126493  39.9138553  40.7533833  43.6766493
  40.3538553  41.3873833  43.8086493  52.9008553  53.1143833  38.1416493
  53.5948553  52.6473833  37.8936493  52.3618553  52.5163833  38.4786493
  52.9238553  52.9563833  38.1546493  35.1048553  42.8683833  40.4696493
  35.5938553  42.5763833  41.1306493  35.2338553  42.2753833  39.8426493
  35.1958553  42.7373833  40.4746493  50.1398553  45.8903833  47.3206493
  50.1328553  45.1143833  47.7186493  49.2988553  46.1243833  47.3136493
  50.0148553  45.8103833  47.3786493  39.6298553  44.3023833  35.9556493
  39.0198553  43.8973833  36.4296493  39.2438553  44.4203833  35.1826493
  39.4828553  44.2593833  35.9116493  36.4488553  47.4113833  51.3576493
  36.0278553  46.8933833  50.7966493  36.0968553  48.1973833  51.2146493
  36.3348553  47.4513833  51.2536493  51.3958553  45.9613833  44.7576493
  51.1098553  46.3623833  45.4776493  52.2558553  45.8993833  44.8846493
  51.4808553  46.0113833  44.8826493  41.0848553  42.7633833  38.6656493
  41.3568553  43.5893833  38.7326493  40.2218553  42.8383833  38.5696493
  40.9978553  42.8963833  38.6606493  49.0578553  39.8853833  53.2976493
  48.5328553  40.3443833  53.8216493  48.6968553  39.0903833  53.2916493
  48.9268553  39.8353833  53.3736493  52.5268553  51.5943833  45.2866493
  52.8168553  51.8513833  44.5056493  53.2218553  51.6903833  45.8056493
  52.6728553  51.6463833  45.2476493  49.8178553  43.7733833  51.7386493
  50.1368553  44.5593833  51.9416493  49.4478553  43.5033833  52.4816493
  49.8108553  43.8493833  51.8786493  49.1318553  50.1973833  37.2686493
  49.4658553  49.3913833  37.3036493  48.3768553  50.1253833  37.6986493
  49.0698553  50.0673833  37.3376493  49.6138553  42.0313833  42.9276493
  48.8688553  41.7083833  43.2456493  49.6158553  42.8573833  43.2076493
  49.5038553  42.1053833  43.0156493  52.5158553  44.3153833  54.4736493
  52.4638553  43.9743833  53.6726493  53.2528553  44.7823833  54.4516493
  52.6168553  44.3343833  54.3516493  52.0538553  47.9913833  50.6796493
  52.6818553  47.4423833  50.4236493  51.9928553  48.5563833  50.0176493
  52.1378553  47.9943833  50.5436493  46.5058553  48.0723833  36.6716493
  47.1898553  47.5583833  36.5026493  46.0888553  48.1183833  35.9066493
  46.5448553  48.0033833  36.5336493  41.1878553  49.2223833  47.9756493
  40.8898553  49.8143833  48.5426493  41.2428553  49.6643833  47.2266493
  41.1518553  49.3753833  47.9486493  39.1668553  48.1723833  51.3736493
  38.3608553  47.8823833  51.5406493  39.0778553  49.0403833  51.3796493
  39.0348553  48.2573833  51.3986493  48.5258553  38.3613833  50.3886493
  49.2698553  38.8133833  50.3256493  47.9598553  38.8313833  49.9196493
  48.5528553  38.4983833  50.3106493  43.7038553  45.6453833  47.4666493
  44.1798553  46.0193833  48.0946493  42.8808553  45.7793833  47.7256493
  43.6528553  45.7203833  47.5976493  40.4138553  41.2483833  50.2076493
  40.5748553  40.5043833  50.6346493  40.3688553  40.9993833  49.3726493
  40.4308553  41.1013833  50.1476493  42.9678553  53.0383833  42.6946493
  43.5138553  53.7173833  42.7486493  42.6178553  53.1203833  41.8996493
  42.9968553  53.1513833  42.5846493  49.8108553  36.3413833  48.0586493
  49.5308553  37.1663833  48.0146493  50.5268553  36.3943833  48.5546493
  49.8758553  36.4713833  48.1256493  42.1658553  37.0563833  50.0876493
  42.8708553  37.3763833  49.6856493  42.4068553  36.2493833  50.3146493
  42.3048553  36.9843833  50.0616493  41.1508553  51.2663833  46.0836493
  40.5268553  51.8483833  45.9016493  41.3988553  50.9803833  45.2976493
  41.0948553  51.3103833  45.9406493  45.4598553  47.9003833  53.0726493
  46.2168553  48.1863833  52.7466493  44.9128553  47.9523833  52.3946493
  45.4908553  47.9503833  52.9236493  49.3688553  50.4503833  51.5766493
  49.7148553  50.7203833  52.3306493  49.6628553  51.0323833  50.9966493
  49.4638553  50.5763833  51.6026493  51.2318553  42.5963833  36.9156493
  51.6098553  43.2733833  36.5156493  50.3898553  42.8203833  36.9466493
  51.1628553  42.7293833  36.8606493  42.7448553  46.0423833  35.9986493
  41.9398553  45.8653833  35.7136493  42.7118553  46.8933833  36.1906493
  42.6208553  46.1413833  35.9856493  38.6748553  42.1093833  46.1486493
  39.1148553  42.0063833  45.4026493  39.2198553  41.7963833  46.7536493
  38.8198553  42.0483833  46.1276493  46.6908553  41.2113833  51.7406493
  46.0428553  41.6813833  52.0886493  47.2558553  41.1223833  52.3996493
  46.6788553  41.2673833  51.8896493  46.3788553  42.7483833  48.0386493
  46.6808553  43.1683833  48.7416493  46.4148553  41.9083833  48.2706493
  46.4288553  42.6863833  48.1766493  43.8038553  52.9153833  51.9636493
  44.2818553  52.3153833  51.5476493  43.4528553  52.4723833  52.6286493
  43.8228553  52.7613833  52.0006493  48.9268553  42.1953833  40.2906493
  49.1338553  41.9943833  41.1146493  49.6828553  42.4633833  39.9486493
  49.0688553  42.2053833  40.3616493  42.2218553  37.0943833  46.1956493
  41.3958553  36.9453833  46.4326493  42.1818553  37.1293833  45.3246493
  42.0938553  37.0773833  46.1016493  49.9488553  38.2783833  41.7646493
  49.2348553  37.8073833  41.9356493  49.7868553  38.6193833  40.9786493
  49.8198553  38.2593833  41.6736493  50.3918553  46.2223833  40.1446493
  50.8678553  45.4933833  40.0966493  49.5708553  45.9363833  40.0686493
  50.3408553  46.0723833  40.1256493  43.8628553  48.1343833  50.9836493
  43.0678553  48.0703833  51.3346493  43.9338553  48.9813833  50.7886493
  43.7558553  48.2493833  51.0066493  39.6928553  54.3413833  46.3006493
  39.7038553  54.4003833  47.1706493  39.2678553  53.5943833  46.1506493
  39.6318553  54.2393833  46.4066493  37.8508553  40.2363833  39.4556493
  37.9768553  39.9073833  38.6576493  37.0388553  39.9873833  39.6546493
  37.7498553  40.1513833  39.3676493  46.6078553  47.3893833  42.4996493
  46.6838553  47.7303833  43.2986493  46.7768553  46.5423833  42.6206493
  46.6438553  47.3143833  42.6356493  44.1298553  46.6633833  42.0646493
  43.8318553  46.3483833  42.8216493  44.8248553  47.1363833  42.2996493
  44.1888553  46.6863833  42.2116493  44.3518553  50.7813833  50.0916493
  45.0388553  50.6673833  50.6166493  44.4858553  51.5723833  49.7476493
  44.4728553  50.8813833  50.1186493  52.5278553  43.3903833  51.9026493
  51.6728553  43.2683833  52.0286493  52.6808553  42.9953833  51.1396493
  52.4238553  43.3133833  51.8086493  47.0408553  44.0553833  50.4786493
  46.7858553  43.3363833  50.9006493  47.8618553  44.1713833  50.7486493
  47.1248553  43.9663833  50.5806493  36.4568553  53.8393833  51.7426493
  35.8028553  53.2703833  51.8406493  36.0818553  54.6123833  51.8936493
  36.3048553  53.8693833  51.7796493  44.9748553  45.2453833  53.6656493
  45.2978553  45.9313833  53.2336493  44.2708553  45.5683833  54.0676493
  44.9178553  45.3943833  53.6606493  48.0588553  53.6193833  44.5946493
  47.6078553  54.2623833  44.9736493  48.7668553  53.5403833  45.0996493
  48.0968553  53.7023833  44.7256493  44.7598553  48.7093833  47.5246493
  44.0658553  49.1113833  47.8676493  45.4368553  49.1423833  47.8636493
  44.7568553  48.8323833  47.6256493  50.1368553  51.3023833  54.1046493
  50.9128553  50.9123833  54.1876493  49.6678553  50.9663833  54.7596493
  50.1818553  51.1953833  54.2136493  37.8278553  42.2473833  49.8716493
  38.2028553  42.8663833  49.3846493  38.5018553  41.7733833  50.1566493
  37.9828553  42.2693833  49.8416493  35.6028553  40.6953833  49.1466493
  35.6798553  40.5263833  48.2936493  36.3488553  41.1013833  49.3436493
  35.7238553  40.7303833  49.0496493  51.1618553  43.3353833  39.5866493
  51.2648553  43.2773833  38.7226493  51.9028553  43.0033833  39.9046493
  51.2868553  43.2783833  39.5056493  45.0818553  50.3003833  40.6936493
  44.8768553  51.1333833  40.5346493  44.3068553  49.9183833  40.8156493
  44.9368553  50.3673833  40.6886493  50.2638553  43.4813833  48.9426493
  50.2618553  42.6183833  49.0666493  50.3308553  43.8053833  49.7496493
  50.2738553  43.4013833  49.0796493  34.9998553  45.9213833  49.3706493
  35.3198553  46.1403833  48.5896493  34.8998553  45.0563833  49.3156493
  35.0318553  45.8263833  49.2476493  36.4558553  41.8573833  35.9886493
  35.7838553  41.8713833  36.5446493  36.5508553  41.0093833  35.8046493
  36.3708553  41.7343833  36.0436493  46.1428553  38.2813833  52.7246493
  46.2348553  38.9933833  53.2186493  45.5058553  37.8363833  53.1216493
  46.0618553  38.3203833  52.8566493  45.1368553  38.4713833  43.5786493
  44.4368553  38.9893833  43.5226493  45.1748553  38.0913833  42.7946493
  45.0388553  38.4923833  43.4546493  40.4438553  50.5623833  37.1026493
  40.8848553  50.6423833  37.8506493  39.6388553  50.3463833  37.3606493
  40.3898553  50.5423833  37.2516493  48.7348553  38.9873833  46.3786493
  49.5898553  39.0863833  46.5236493  48.3658553  39.5403833  46.9436493
  48.8068553  39.0843833  46.4836493  39.7628553  45.2133833  50.7556493
  39.3668553  45.9873833  50.8306493  39.3568553  44.8403833  50.0796493
  39.6448553  45.2723833  50.6666493  49.0388553  44.2673833  44.8696493
  49.7048553  44.8083833  45.0296493  48.6938553  44.5783833  44.1306493
  49.0858553  44.3933833  44.7846493  49.3518553  52.3333833  40.6766493
  49.1778553  51.6793833  41.2266493  50.0648553  52.0623833  40.2536493
  49.4318553  52.1963833  40.6956493  37.7728553  49.6323833  37.7036493
  37.5288553  49.3253833  38.4836493  37.7398553  48.9293833  37.1876493
  37.7318553  49.4833833  37.7426493  40.5918553  47.8773833  36.4466493
  39.7738553  47.6093833  36.5866493  40.5638553  48.7293833  36.6316493
  40.4668553  47.9643833  36.4946493  40.1918553  38.1903833  48.2056493
  39.3278553  38.2743833  48.2856493  40.4118553  37.6763833  48.8746493
  40.0968553  38.1273833  48.3166493  52.2098553  36.8253833  49.5346493
  52.1578553  36.7813833  50.4046493  52.8968553  36.3223833  49.3446493
  52.3038553  36.7453833  49.6346493  44.2948553  38.9383833  46.5796493
  43.5578553  38.4843833  46.6926493  44.8658553  38.5363833  47.1026493
  44.2698553  38.8113833  46.6736493  47.0268553  49.7863833  48.3676493
  47.2328553  50.0873833  49.1596493  46.9658553  50.5083833  47.8826493
  47.0478553  49.9373833  48.4126493  46.5608553  54.0003833  52.6136493
  45.8078553  53.9823833  52.1726493  46.7288553  54.8523833  52.6976493
  46.4748553  54.1233833  52.5606493  41.7978553  43.2673833  51.7836493
  41.4758553  42.6913833  51.2136493  41.4388553  44.0223833  51.5376493
  41.6978553  43.2933833  51.6636493  42.5938553  36.5193833  36.4106493
  42.6718553  36.7663833  35.5776493  41.8508553  36.8963833  36.6686493
  42.4958553  36.6113833  36.3256493  51.8388553  48.4253833  47.8256493
  51.8068553  47.5633833  47.6906493  51.1458553  48.7273833  47.3916493
  51.7318553  48.3423833  47.7416493  40.2328553  53.6233833  52.0316493
  40.2738553  53.7493833  52.8946493  40.8838553  53.0633833  51.8756493
  40.3348553  53.5593833  52.1366493  49.9438553  51.6853833  46.6226493
  50.4708553  51.6023833  45.9316493  49.5528553  50.9073833  46.6766493
  49.9638553  51.5583833  46.5286493  46.4578553  37.1293833  45.8306493
  47.1278553  37.6733833  45.9576493  45.9548553  37.5533833  45.2576493
  46.4828553  37.2723833  45.7646493  37.8258553  52.0063833  53.3916493
  38.4208553  52.4373833  53.8636493  37.4618553  52.6303833  52.9026493
  37.8598553  52.1623833  53.3886493  45.8168553  42.9373833  43.3236493
  46.3678553  42.3303833  43.6236493  45.3918553  43.2003833  44.0386493
  45.8358553  42.8863833  43.4726493  36.0648553  41.5873833  42.8096493
  35.6968553  41.8893833  43.5406493  36.5988553  40.9583833  43.0936493
  36.0888553  41.5393833  42.9596493  35.7528553  49.9953833  50.3206493
  35.1788553  50.4113833  50.8296493  36.4858553  50.4603833  50.4156493
  35.7768553  50.1253833  50.4096493  47.7868553  44.7683833  39.8856493
  47.8548553  43.9183833  40.0666493  46.9638553  44.8543833  39.6076493
  47.6748553  44.6553833  39.8716493  37.5388553  53.2623833  39.0956493
  37.3938553  53.4183833  38.2496493  38.4048553  53.3413833  39.1736493
  37.6458553  53.2973833  38.9826493  41.7058553  45.6593833  38.8236493
  41.8058553  45.7983833  37.9686493  42.5238553  45.5993833  39.1196493
  41.8408553  45.6703833  38.7406493  50.8658553  53.7233833  36.3036493
  51.5028553  53.5893833  36.8846493  50.5248553  52.9293833  36.1866493
  50.9098553  53.5863833  36.3716493  51.0608553  46.1413833  53.0366493
  51.6948553  45.9713833  53.6106493  51.4778553  46.5443833  52.3846493
  51.2158553  46.1763833  53.0256493  46.9408553  49.9883833  38.6256493
  46.6898553  49.8603833  39.4516493  46.6238553  49.2933833  38.2046493
  46.8568553  49.8673833  38.6856493  51.6858553  40.7053833  53.7746493
  51.4898553  41.3493833  54.3296493  50.9638553  40.2153833  53.7666493
  51.5508553  40.7283833  53.8556493  51.5848553  41.6463833  46.7456493
  50.7518553  41.8963833  46.6736493  51.5288553  40.8063833  46.9746493
  51.4538553  41.5593833  46.7686493  48.4718553  46.2523833  54.3916493
  49.3428553  46.2163833  54.3556493  48.2528553  46.6723833  53.6596493
  48.5688553  46.3083833  54.2786493  38.2258553  52.0773833  45.5726493
  38.1468553  51.2673833  45.2566493  37.7818553  52.5643833  45.0006493
  38.1488553  52.0293833  45.4416493  43.8268553  48.1963833  38.0556493
  44.5438553  47.8493833  37.6996493  43.7928553  48.9963833  37.7076493
  43.9278553  48.2633833  37.9516493  35.7978553  54.3213833  49.1536493
  36.2908553  54.2653833  49.8716493  35.9858553  53.5883833  48.7186493
  35.8988553  54.2043833  49.1956493  45.2358553  36.8373833  22.2944083
  44.9908553  37.3253833  21.6144083  46.0988553  36.7643833  22.1944083
  45.3268553  36.8983833  22.1794083  45.0448553  43.7533833  26.9654083
  44.5208553  44.3493833  27.3284083  45.4418553  43.3853833  27.6494083
  45.0258553  43.7873833  27.1204083  34.9138553  47.8933833  22.4214083
  34.4728553  48.0113833  23.1644083  34.6308553  47.1183833  22.1364083
  34.8068553  47.7963833  22.4894083  51.1888553  51.1943833  19.9364083
  51.8898553  50.6753833  19.9324083  50.6018553  50.7493833  19.4674083
  51.2058553  51.0513833  19.8664083  34.6568553  41.6853833  18.9284083
  33.8788553  41.8473833  18.5684083  34.6958553  40.8143833  18.9504083
  34.5478553  41.5803833  18.8784083  37.7958553  46.9483833  17.6004083
  37.4038553  46.5773833  16.9144083  37.7158553  46.3503833  18.2294083
  37.7258553  46.8053833  17.5914083  47.7158553  44.8203833  23.6414083
  47.7958553  44.8243833  22.7724083  47.1318553  44.1883833  23.7904083
  47.6408553  44.7273833  23.5354083  37.4228553  48.5893833  21.5004083
  38.0308553  48.4193833  22.1034083  36.6718553  48.4493833  21.9214083
  37.4018553  48.5433833  21.6514083  41.7048553  37.9243833  21.4494083
  41.6348553  38.6013833  20.9034083  42.4458553  37.5363833  21.2004083
  41.8038553  37.9673833  21.3314083  36.3138553  51.6803833  17.5774083
  36.7808553  51.7643833  16.8454083  36.7688553  51.1023833  18.0464083
  36.4498553  51.6073833  17.5384083  34.8538553  50.6283833  28.6764083
  34.9828553  50.3483833  29.4924083  34.2438553  50.0873833  28.3674083
  34.7828553  50.5073833  28.7514083  41.4278553  48.1533833  33.7434083
  41.1918553  48.1503833  34.5834083  40.6798553  48.0053833  33.3194083
  41.2818553  48.1303833  33.8044083  36.2998553  45.1493833  22.8784083
  35.8378553  44.7573833  22.2514083  36.9998553  44.6363833  22.9704083
  36.3348553  45.0163833  22.7994083  40.8078553  40.7593833  28.2254083
  41.4858553  40.7773833  27.6764083  40.7628553  39.9233833  28.4704083
  40.9008553  40.6383833  28.1804083  41.4098553  51.3453833  31.0064083
  41.5478553  52.1053833  30.5994083  42.2008553  50.9803833  31.0334083
  41.5468553  51.4043833  30.9504083  38.3008553  43.2493833  22.9014083
  39.1178553  43.0623833  23.1444083  37.8238553  42.6353833  23.2974083
  38.3508553  43.1313833  22.9964083  42.5048553  49.2303833  25.5114083
  42.8528553  48.4313833  25.5414083  43.1698553  49.7343833  25.2564083
  42.6548553  49.1863833  25.4784083  42.5618553  48.6793833  21.7224083
  42.8928553  48.0353833  22.2084083  42.8018553  48.4683833  20.9114083
  42.6458553  48.5533833  21.6744083  44.5298553  42.8103833  33.0614083
  43.6818553  42.7113833  32.8834083  44.5588553  43.5553833  33.5154083
  44.4088553  42.9063833  33.1024083  38.8978553  38.3433833  22.1674083
  38.6018553  38.8443833  21.5174083  39.7648553  38.4213833  22.1104083
  38.9818553  38.4293833  22.0634083  49.0878553  35.7703833  32.1754083
  48.9298553  36.5393833  31.7934083  48.3158553  35.5503833  32.5194083
  48.9498553  35.8513833  32.1704083  41.8768553  37.4853833  24.3904083
  41.9498553  38.3453833  24.5194083  41.8388553  37.4103833  23.5224083
  41.8818553  37.6013833  24.2814083  46.5498553  40.4113833  16.6894083
  46.0998553  41.0923833  16.9964083  46.6638553  39.9073833  17.3924083
  46.5008553  40.4373833  16.8384083  34.7558553  42.9103833  25.8914083
  34.4998553  43.7413833  25.8164083  34.0918553  42.5273833  26.3084083
  34.6198553  42.9763833  25.9424083  34.6658553  52.6203833  23.7914083
  34.0738553  53.1783833  23.4784083  35.0918553  52.3513833  23.0794083
  34.6418553  52.6623833  23.6404083  40.5058553  50.4643833  21.2714083
  39.9268553  50.1893833  21.8634083  41.1298553  49.8553833  21.2964083
  40.5128553  50.3343833  21.3624083  46.6488553  52.7523833  18.7934083
  47.3758553  53.2243833  18.8954083  46.8778553  51.9583833  19.0734083
  46.7908553  52.7053833  18.8504083  44.8168553  53.1443833  20.7834083
  45.0308553  53.6713833  21.4454083  45.5838553  52.9703833  20.4044083
  44.9618553  53.1963833  20.8254083  37.7848553  37.7273833  26.3824083
  37.2638553  37.0993833  26.0744083  38.3758553  37.2903833  26.8534083
  37.7958553  37.5693833  26.4064083  41.0908553  39.8603833  35.6804083
  41.2078553  39.4063833  34.9444083  41.3788553  40.6583833  35.4774083
  41.1508553  39.9113833  35.5414083  36.2108553  51.2903833  21.7224083
  36.8668553  50.7153833  21.7374083  36.5998553  52.0393833  21.5014083
  36.3658553  51.3153833  21.6924083  51.9438553  40.3843833  22.9844083
  51.5978553  41.0623833  23.4104083  51.3078553  39.7863833  23.0004083
  51.7988553  40.3963833  23.0494083  47.2558553  53.1543833  29.0884083
  47.9998553  53.6103833  29.0784083  47.1348553  52.9403833  28.2514083
  47.3478553  53.1903833  28.9634083  36.8238553  39.4573833  34.6644083
  36.0458553  39.0673833  34.5924083  37.3148553  39.0453833  34.0734083
  36.7808553  39.3383833  34.5664083  37.0288553  49.7773833  25.2224083
  37.4518553  49.4213833  24.5484083  37.3528553  49.3553833  25.9144083
  37.1388553  49.6623833  25.2254083  40.2598553  52.6293833  24.5184083
  41.1038553  52.7333833  24.3234083  39.9628553  53.4473833  24.5864083
  40.3408553  52.7653833  24.4994083  43.4728553  37.1003833  33.8324083
  43.6508553  36.2913833  33.5574083  43.3298553  37.5413833  33.0934083
  43.4778553  37.0463833  33.6824083  44.0668553  42.0263833  22.6054083
  44.3538553  41.7943833  21.8154083  44.7988553  42.1053833  23.0744083
  44.2168553  42.0033833  22.5584083  44.7888553  42.3653833  17.7264083
  45.0698553  43.1533833  17.9754083  44.0128553  42.5303833  17.3634083
  44.7158553  42.5063833  17.7094083  48.8298553  54.3393833  19.1934083
  49.4948553  54.1913833  18.6484083  49.1898553  54.2563833  19.9834083
  48.9818553  54.3053833  19.2294083  39.2578553  53.8483833  30.2584083
  39.5498553  53.7813833  31.0784083  38.6318553  53.2433833  30.2134083
  39.2088553  53.7493833  30.3734083  51.6188553  38.7073833  28.3534083
  52.3758553  38.7793833  27.9254083  51.6818553  37.9343833  28.7524083
  51.7398553  38.6043833  28.3484083  34.1718553  40.0053833  32.2504083
  34.1678553  40.5923833  32.8964083  34.7658553  40.3173833  31.6934083
  34.2588553  40.1383833  32.2634083  46.5098553  50.3393833  32.7924083
  46.4758553  50.7213833  33.5764083  47.3638553  50.2973833  32.6214083
  46.6308553  50.3893833  32.8834083  43.6478553  50.5363833  17.5424083
  43.4668553  51.0813833  18.1994083  44.4138553  50.8263833  17.2414083
  43.7338553  50.6603833  17.5954083  47.1548553  38.4323833  18.5964083
  47.6948553  37.7503833  18.6724083  47.2168553  38.8303833  19.3704083
  47.2438553  38.3903833  18.7224083  35.1088553  39.6003833  21.1654083
  34.9948553  38.7363833  21.1964083  34.6338553  39.8943833  21.8354083
  35.0218553  39.5163833  21.2684083  37.2508553  52.0103833  29.3804083
  36.5528553  51.5023833  29.5064083  37.5108553  51.8053833  28.5724083
  37.1858553  51.9053833  29.2794083  44.4128553  40.8083833  19.9104083
  43.9048553  40.1463833  19.6564083  44.4648553  41.3123833  19.2004083
  44.3458553  40.7853833  19.7684083  44.9618553  53.5033833  30.2904083
  45.7298553  53.4233833  29.8844083  44.3788553  53.3823833  29.6524083
  44.9888553  53.4733833  30.1364083  44.4128553  37.7493833  19.8014083
  43.9578553  37.3473833  19.1754083  45.1858553  37.9043833  19.4264083
  44.4598553  37.7133833  19.6534083  51.2388553  54.1063833  23.1914083
  50.7838553  54.8233833  23.3924083  50.6248553  53.5353833  22.9494083
  51.0808553  54.1283833  23.1854083  43.0108553  40.1163833  24.3234083
  43.0848553  40.6843833  23.6654083  43.1318553  40.6083833  25.0334083
  43.0388553  40.2733833  24.3314083  48.2358553  49.9513833  22.7354083
  48.9368553  49.4693833  22.9244083  47.5758553  49.3823833  22.7804083
  48.2418553  49.7963833  22.7694083  38.6118553  50.8613833  31.9474083
  39.4528553  50.9243833  31.7254083  38.5748553  51.2583833  32.7234083
  38.7308553  50.9293833  32.0294083  40.5748553  46.3723833  26.6964083
  40.7468553  46.1623833  27.5254083  39.9198553  45.8383833  26.4804083
  40.5038553  46.2623833  26.7874083  46.8028553  40.2863833  30.2114083
  46.7078553  40.6053833  31.0174083  46.2098553  39.6473833  30.1734083
  46.7008553  40.2383833  30.3254083  41.3248553  46.3103833  29.2864083
  41.3778553  47.1573833  29.4884083  41.0398553  45.9403833  30.0234083
  41.2908553  46.3803833  29.4244083  47.5018553  47.0053833  28.4164083
  46.9878553  46.5933833  28.9874083  47.3758553  47.8493833  28.5974083
  47.4078553  47.0693833  28.5274083  48.0588553  36.2303833  23.0474083
  48.1078553  35.9123833  23.8584083  48.3818553  35.5863833  22.5544083
  48.1138553  36.0883833  23.0944083  34.1458553  50.6813833  35.4974083
  34.9018553  51.0303833  35.7554083  34.3228553  49.8283833  35.4404083
  34.2838553  50.6063833  35.5274083  50.5228553  40.4663833  31.3554083
  51.2948553  40.2413833  31.6924083  50.0478553  40.6833833  32.0554083
  50.5668553  40.4653833  31.5084083  38.0668553  39.7493833  24.3254083
  38.3388553  39.3193833  23.6174083  37.8908553  39.1133833  24.8964083
  38.0808553  39.5923833  24.3054083  50.7548553  47.4443833  18.5434083
  50.8738553  47.1573833  19.3584083  51.5618553  47.4653833  18.2134083
  50.8908553  47.4053833  18.6154083  37.8908553  47.1763833  23.8744083
  38.7418553  47.0963833  23.7014083  37.5338553  46.4943833  23.4624083
  37.9638553  47.0633833  23.7874083  36.6578553  53.9013833  25.1114083
  35.9848553  53.4033833  24.8664083  37.0608553  54.0863833  24.3604083
  36.6178553  53.8553833  24.9644083  36.2078553  40.8513833  27.4074083
  37.0508553  41.0713833  27.3644083  35.8188553  41.4243833  26.8764083
  36.2748553  40.9683833  27.3224083  52.9888553  51.9533833  32.7974083
  52.3068553  52.2633833  32.3504083  52.6198553  51.4953833  33.4424083
  52.8328553  51.9313833  32.8264083  48.6498553  43.9813833  18.1284083
  48.4298553  44.7123833  17.7064083  48.2018553  44.0323833  18.8754083
  48.5508553  44.0963833  18.1764083  40.2588553  47.1833833  22.1094083
  40.9718553  47.6783833  22.1994083  40.4808553  46.6163833  21.4834083
  40.3968553  47.1723833  22.0304083  52.8368553  38.8423833  17.5814083
  52.1748553  38.2743833  17.6044083  52.6438553  39.3543833  16.9014083
  52.7108553  38.8343833  17.4844083  34.4148553  48.8263833  25.4294083
  33.7478553  49.3143833  25.7054083  35.0948553  49.3713833  25.4584083
  34.4168553  48.9783833  25.4744083  42.0618553  42.5363833  35.5254083
  41.5778553  43.1133833  35.9674083  42.0338553  42.8313833  34.7044083
  41.9858553  42.6653833  35.4694083  53.1598553  43.2203833  30.1374083
  53.3748553  42.4203833  29.8614083  52.3098553  43.2803833  29.9484083
  53.0658553  43.1113833  30.0684083  34.4808553  45.5103833  20.5324083
  34.2958553  44.6713833  20.6844083  35.1398553  45.4743833  19.9624083
  34.5508553  45.3813833  20.4704083  50.8388553  38.4003833  19.8604083
  51.5848553  37.9933833  20.0594083  51.1018553  39.1153833  19.4354083
  50.9878553  38.4463833  19.8274083  44.7818553  50.8863833  24.4364083
  44.2588553  51.5203833  24.1434083  45.0918553  50.5223833  23.7074083
  44.7498553  50.9263833  24.2854083  34.6528553  49.6743833  20.1074083
  35.2048553  50.2433833  20.4714083  34.4208553  49.1593833  20.7724083
  34.6998553  49.6823833  20.2594083  38.8568553  48.6743833  27.1964083
  39.3238553  48.9633833  27.8744083  39.4288553  48.1963833  26.7424083
  39.0108553  48.6463833  27.2294083  47.2928553  40.6883833  24.9334083
  47.6368553  40.8403833  25.7204083  46.8398553  39.9503833  25.0464083
  47.2768553  40.6013833  25.0664083  34.4828553  48.1233833  17.7354083
  35.2388553  47.6913833  17.7934083  34.4978553  48.6553833  18.4264083
  34.5968553  48.1383833  17.8464083  35.4228553  46.3443833  25.7404083
  35.8538553  46.2153833  24.9934083  35.2178553  47.1923833  25.7144083
  35.4558553  46.4503833  25.6264083  41.7688553  39.9083833  19.3904083
  41.7668553  39.7913833  18.5254083  41.5878553  40.7563833  19.4824083
  41.7418553  40.0163833  19.2764083  50.8228553  52.3353833  30.8874083
  50.1518553  52.8493833  31.1054083  50.8858553  52.4353833  30.0234083
  50.7328553  52.4263833  30.7924083  39.5068553  49.8603833  24.0224083
  39.6328553  50.7033833  24.2094083  40.1748553  49.4613833  24.4184083
  39.6248553  49.9263833  24.1084083  37.6368553  43.3433833  33.8844083
  37.1008553  42.8373833  34.3524083  37.6568553  42.9533833  33.1044083
  37.5598553  43.2103833  33.8384083  38.1218553  42.7403833  19.0244083
  37.9938553  42.2923833  19.7624083  37.5398553  42.3983833  18.4724083
  38.0168553  42.6233833  19.0524083  38.2888553  44.5703833  25.6234083
  37.5078553  44.5113833  25.2404083  38.3608553  43.8183833  26.0604083
  38.1838553  44.4513833  25.6314083  38.7188553  44.3073833  29.0914083
  38.7438553  43.6323833  28.5404083  38.0728553  44.8033833  28.7794083
  38.6278553  44.2803833  28.9644083  48.6138553  42.0203833  27.4874083
  47.9518553  42.3483833  27.9504083  48.8008553  42.6543833  26.9184083
  48.5438553  42.1623833  27.4714083  42.8188553  53.0843833  28.4834083
  42.5418553  52.4433833  27.9604083  42.6108553  53.8103833  28.0454083
  42.7478553  53.0973833  28.3414083  45.2588553  37.9263833  30.9164083
  45.4078553  37.1013833  30.6734083  45.6378553  37.9813833  31.7004083
  45.3368553  37.8123833  30.9964083  46.8068553  39.9893833  20.9984083
  47.2968553  40.7063833  20.9214083  46.0168553  40.2503833  20.7354083
  46.7628553  40.1333833  20.9484083  36.5178553  45.6623833  34.6504083
  36.4808553  46.1633833  33.9364083  36.8488553  44.9103833  34.3554083
  36.5608553  45.6243833  34.5014083  48.1208553  47.8673833  32.9084083
  48.6048553  48.5853833  33.0064083  48.5148553  47.4403833  32.2574083
  48.2508553  47.9103833  32.8264083  42.4168553  50.7123833  34.0854083
  42.7708553  50.5343833  34.8624083  41.9808553  49.9833833  33.8864083
  42.4048553  50.5783833  34.1714083  43.3888553  41.4593833  26.7234083
  43.8688553  42.1583833  26.9314083  43.7618553  40.8123833  27.1744083
  43.5148553  41.4673833  26.8204083  45.5778553  44.6283833  18.9974083
  45.5698553  45.3503833  18.5074083  44.9388553  44.7633833  19.5744083
  45.4828553  44.7553833  19.0104083  50.5498553  48.4983833  22.9784083
  50.9058553  48.1483833  23.6934083  50.5418553  47.8373833  22.4084083
  50.6018553  48.3483833  22.9994083  46.5948553  51.5643833  26.8224083
  45.9918553  51.2683833  26.2654083  47.1398553  52.0163833  26.3134083
  46.5858553  51.5873833  26.6644083  46.6078553  48.4153833  26.2224083
  45.8108553  48.6393833  26.4964083  46.8658553  47.8213833  26.8074083
  46.5278553  48.3603833  26.3494083  40.4998553  53.2273833  20.6704083
  40.3528553  52.4513833  21.0414083  41.1888553  53.0803833  20.1554083
  40.5798553  53.0903833  20.6494083  40.1708553  36.9703833  18.6584083
  40.2678553  36.8633833  19.5194083  39.4628553  37.4763833  18.5934083
  40.0808553  37.0293833  18.7764083  42.7918553  52.7433833  19.0724083
  43.4138553  52.9063833  19.6624083  42.8278553  53.4343833  18.5404083
  42.8888553  52.8693833  19.0814083  49.8678553  46.4133833  31.0684083
  49.9228553  46.5383833  30.2064083  50.6208553  46.7333833  31.3704083
  49.9868553  46.4783833  30.9854083  46.0588553  51.7623833  35.3454083
  46.2228553  52.0453833  36.1544083  46.3218553  52.4233833  34.8404083
  46.1218553  51.9023833  35.3904083  50.8998553  36.7113833  34.0554083
  50.2628553  36.3113833  33.6134083  50.9258553  36.2803833  34.8134083
  50.8098553  36.5893833  34.1014083  37.2928553  45.2773833  19.9014083
  37.6168553  44.4983833  19.6794083  37.9388553  45.6453833  20.3564083
  37.4358553  45.2163833  19.9354083  45.5988553  46.2193833  30.6684083
  45.4438553  46.8293833  31.2724083  46.1328553  45.6613833  31.0744083
  45.6548553  46.2273833  30.8174083  34.2898553  36.9383833  20.8694083
  34.4188553  36.2303833  20.3774083  33.9228553  36.6203833  21.5944083
  34.2548553  36.7863833  20.9044083  43.9828553  44.6193833  21.3264083
  44.0418553  45.2693833  21.9054083  43.7938553  43.9233833  21.8174083
  43.9638553  44.6123833  21.4844083  49.2088553  48.9483833  27.1954083
  48.7298553  49.2463833  26.5294083  48.8528553  48.1723833  27.3734083
  49.0858553  48.8773833  27.1234083  38.4788553  39.1363833  17.8384083
  37.9678553  39.1893833  17.1324083  39.2628553  39.3763833  17.5424083
  38.5188553  39.1793833  17.6904083  43.2058553  46.6663833  25.7574083
  42.3588553  46.4723833  25.8384083  43.5298553  46.5013833  26.5504083
  43.1278553  46.6133833  25.8864083  39.9578553  53.3963833  16.6434083
  40.3968553  52.6993833  16.9314083  40.1648553  54.0203833  17.2164083
  40.0538553  53.3853833  16.7704083  37.0538553  46.3593833  28.0734083
  37.7758553  46.8473833  28.0364083  36.7838553  46.3293833  27.2444083
  37.1208553  46.4273833  27.9454083  40.2838553  41.5303833  24.8084083
  41.1298553  41.3403833  24.9064083  39.9138553  40.7533833  24.6704083
  40.3538553  41.3873833  24.8024083  52.9008553  53.1143833  19.1354083
  53.5948553  52.6473833  18.8874083  52.3618553  52.5163833  19.4724083
  52.9238553  52.9563833  19.1484083  35.1048553  42.8683833  21.4634083
  35.5938553  42.5763833  22.1244083  35.2338553  42.2753833  20.8364083
  35.1958553  42.7373833  21.4684083  50.1398553  45.8903833  28.3144083
  50.1328553  45.1143833  28.7124083  49.2988553  46.1243833  28.3074083
  50.0148553  45.8103833  28.3724083  39.6298553  44.3023833  16.9494083
  39.0198553  43.8973833  17.4234083  39.2438553  44.4203833  16.1764083
  39.4828553  44.2593833  16.9054083  36.4488553  47.4113833  32.3514083
  36.0278553  46.8933833  31.7904083  36.0968553  48.1973833  32.2084083
  36.3348553  47.4513833  32.2474083  51.3958553  45.9613833  25.7514083
  51.1098553  46.3623833  26.4714083  52.2558553  45.8993833  25.8784083
  51.4808553  46.0113833  25.8764083  41.0848553  42.7633833  19.6594083
  41.3568553  43.5893833  19.7264083  40.2218553  42.8383833  19.5634083
  40.9978553  42.8963833  19.6544083  49.0578553  39.8853833  34.2914083
  48.5328553  40.3443833  34.8154083  48.6968553  39.0903833  34.2854083
  48.9268553  39.8353833  34.3674083  34.5648553  38.7333833  26.1954083
  34.6088553  39.0773833  25.3944083  35.3198553  38.9703833  26.5624083
  34.6828553  38.8193833  26.1314083  52.5268553  51.5943833  26.2804083
  52.8168553  51.8513833  25.4994083  53.2218553  51.6903833  26.7994083
  52.6728553  51.6463833  26.2414083  47.5498553  43.4543833  34.3674083
  47.6228553  43.5583833  35.2304083  46.9158553  44.0123833  34.1464083
  47.4668553  43.5523833  34.4624083  49.8178553  43.7733833  32.7324083
  50.1368553  44.5593833  32.9354083  49.4478553  43.5033833  33.4754083
  49.8108553  43.8493833  32.8724083  49.1318553  50.1973833  18.2624083
  49.4658553  49.3913833  18.2974083  48.3768553  50.1253833  18.6924083
  49.0698553  50.0673833  18.3314083  49.6138553  42.0313833  23.9214083
  48.8688553  41.7083833  24.2394083  49.6158553  42.8573833  24.2014083
  49.5038553  42.1053833  24.0094083  52.5158553  44.3153833  35.4674083
  52.4638553  43.9743833  34.6664083  53.2528553  44.7823833  35.4454083
  52.6168553  44.3343833  35.3454083  52.0538553  47.9913833  31.6734083
  52.6818553  47.4423833  31.4174083  51.9928553  48.5563833  31.0114083
  52.1378553  47.9943833  31.5374083  46.5058553  48.0723833  17.6654083
  47.1898553  47.5583833  17.4964083  46.0888553  48.1183833  16.9004083
  46.5448553  48.0033833  17.5274083  41.1878553  49.2223833  28.9694083
  40.8898553  49.8143833  29.5364083  41.2428553  49.6643833  28.2204083
  41.1518553  49.3753833  28.9424083  39.1668553  48.1723833  32.3674083
  38.3608553  47.8823833  32.5344083  39.0778553  49.0403833  32.3734083
  39.0348553  48.2573833  32.3924083  48.5258553  38.3613833  31.3824083
  49.2698553  38.8133833  31.3194083  47.9598553  38.8313833  30.9134083
  48.5528553  38.4983833  31.3044083  43.7038553  45.6453833  28.4604083
  44.1798553  46.0193833  29.0884083  42.8808553  45.7793833  28.7194083
  43.6528553  45.7203833  28.5914083  40.4138553  41.2483833  31.2014083
  40.5748553  40.5043833  31.6284083  40.3688553  40.9993833  30.3664083
  40.4308553  41.1013833  31.1414083  42.9678553  53.0383833  23.6884083
  43.5138553  53.7173833  23.7424083  42.6178553  53.1203833  22.8934083
  42.9968553  53.1513833  23.5784083  49.8108553  36.3413833  29.0524083
  49.5308553  37.1663833  29.0084083  50.5268553  36.3943833  29.5484083
  49.8758553  36.4713833  29.1194083  42.1658553  37.0563833  31.0814083
  42.8708553  37.3763833  30.6794083  42.4068553  36.2493833  31.3084083
  42.3048553  36.9843833  31.0554083  41.1508553  51.2663833  27.0774083
  40.5268553  51.8483833  26.8954083  41.3988553  50.9803833  26.2914083
  41.0948553  51.3103833  26.9344083  45.4598553  47.9003833  34.0664083
  46.2168553  48.1863833  33.7404083  44.9128553  47.9523833  33.3884083
  45.4908553  47.9503833  33.9174083  49.3688553  50.4503833  32.5704083
  49.7148553  50.7203833  33.3244083  49.6628553  51.0323833  31.9904083
  49.4638553  50.5763833  32.5964083  51.2318553  42.5963833  17.9094083
  51.6098553  43.2733833  17.5094083  50.3898553  42.8203833  17.9404083
  51.1628553  42.7293833  17.8544083  42.7448553  46.0423833  16.9924083
  41.9398553  45.8653833  16.7074083  42.7118553  46.8933833  17.1844083
  42.6208553  46.1413833  16.9794083  38.6748553  42.1093833  27.1424083
  39.1148553  42.0063833  26.3964083  39.2198553  41.7963833  27.7474083
  38.8198553  42.0483833  27.1214083  46.6908553  41.2113833  32.7344083
  46.0428553  41.6813833  33.0824083  47.2558553  41.1223833  33.3934083
  46.6788553  41.2673833  32.8834083  46.3788553  42.7483833  29.0324083
  46.6808553  43.1683833  29.7354083  46.4148553  41.9083833  29.2644083
  46.4288553  42.6863833  29.1704083  43.8038553  52.9153833  32.9574083
  44.2818553  52.3153833  32.5414083  43.4528553  52.4723833  33.6224083
  43.8228553  52.7613833  32.9944083  48.9268553  42.1953833  21.2844083
  49.1338553  41.9943833  22.1084083  49.6828553  42.4633833  20.9424083
  49.0688553  42.2053833  21.3554083  42.2218553  37.0943833  27.1894083
  41.3958553  36.9453833  27.4264083  42.1818553  37.1293833  26.3184083
  42.0938553  37.0773833  27.0954083  49.9488553  38.2783833  22.7584083
  49.2348553  37.8073833  22.9294083  49.7868553  38.6193833  21.9724083
  49.8198553  38.2593833  22.6674083  50.3918553  46.2223833  21.1384083
  50.8678553  45.4933833  21.0904083  49.5708553  45.9363833  21.0624083
  50.3408553  46.0723833  21.1194083  43.8628553  48.1343833  31.9774083
  43.0678553  48.0703833  32.3284083  43.9338553  48.9813833  31.7824083
  43.7558553  48.2493833  32.0004083  34.7868553  37.4923833  33.2244083
  34.6468553  38.2873833  32.8934083  34.0008553  37.2493833  33.5134083
  34.6498553  37.5743833  33.2184083  39.6928553  54.3413833  27.2944083
  39.7038553  54.4003833  28.1644083  39.2678553  53.5943833  27.1444083
  39.6318553  54.2393833  27.4004083  37.8508553  40.2363833  20.4494083
  37.9768553  39.9073833  19.6514083  37.0388553  39.9873833  20.6484083
  37.7498553  40.1513833  20.3614083  46.6078553  47.3893833  23.4934083
  46.6838553  47.7303833  24.2924083  46.7768553  46.5423833  23.6144083
  46.6438553  47.3143833  23.6294083  44.1298553  46.6633833  23.0584083
  43.8318553  46.3483833  23.8154083  44.8248553  47.1363833  23.2934083
  44.1888553  46.6863833  23.2054083  44.3518553  50.7813833  31.0854083
  45.0388553  50.6673833  31.6104083  44.4858553  51.5723833  30.7414083
  44.4728553  50.8813833  31.1124083  52.5278553  43.3903833  32.8964083
  51.6728553  43.2683833  33.0224083  52.6808553  42.9953833  32.1334083
  52.4238553  43.3133833  32.8024083  47.0408553  44.0553833  31.4724083
  46.7858553  43.3363833  31.8944083  47.8618553  44.1713833  31.7424083
  47.1248553  43.9663833  31.5744083  36.4568553  53.8393833  32.7364083
  35.8028553  53.2703833  32.8344083  36.0818553  54.6123833  32.8874083
  36.3048553  53.8693833  32.7734083  44.9748553  45.2453833  34.6594083
  45.2978553  45.9313833  34.2274083  44.2708553  45.5683833  35.0614083
  44.9178553  45.3943833  34.6544083  48.0588553  53.6193833  25.5884083
  47.6078553  54.2623833  25.9674083  48.7668553  53.5403833  26.0934083
  48.0968553  53.7023833  25.7194083  44.7598553  48.7093833  28.5184083
  44.0658553  49.1113833  28.8614083  45.4368553  49.1423833  28.8574083
  44.7568553  48.8323833  28.6194083  50.1368553  51.3023833  35.0984083
  50.9128553  50.9123833  35.1814083  49.6678553  50.9663833  35.7534083
  50.1818553  51.1953833  35.2074083  37.8278553  42.2473833  30.8654083
  38.2028553  42.8663833  30.3784083  38.5018553  41.7733833  31.1504083
  37.9828553  42.2693833  30.8354083  35.6028553  40.6953833  30.1404083
  35.6798553  40.5263833  29.2874083  36.3488553  41.1013833  30.3374083
  35.7238553  40.7303833  30.0434083  51.1618553  43.3353833  20.5804083
  51.2648553  43.2773833  19.7164083  51.9028553  43.0033833  20.8984083
  51.2868553  43.2783833  20.4994083  38.1568553  38.1053833  32.5514083
  38.0758553  37.2613833  32.7574083  37.8428553  38.1493833  31.7384083
  38.0988553  37.9873833  32.4614083  45.0818553  50.3003833  21.6874083
  44.8768553  51.1333833  21.5284083  44.3068553  49.9183833  21.8094083
  44.9368553  50.3673833  21.6824083  50.2638553  43.4813833  29.9364083
  50.2618553  42.6183833  30.0604083  50.3308553  43.8053833  30.7434083
  50.2738553  43.4013833  30.0734083  34.9998553  45.9213833  30.3644083
  35.3198553  46.1403833  29.5834083  34.8998553  45.0563833  30.3094083
  35.0318553  45.8263833  30.2414083  36.4558553  41.8573833  16.9824083
  35.7838553  41.8713833  17.5384083  36.5508553  41.0093833  16.7984083
  36.3708553  41.7343833  17.0374083  46.1428553  38.2813833  33.7184083
  46.2348553  38.9933833  34.2124083  45.5058553  37.8363833  34.1154083
  46.0618553  38.3203833  33.8504083  45.1368553  38.4713833  24.5724083
  44.4368553  38.9893833  24.5164083  45.1748553  38.0913833  23.7884083
  45.0388553  38.4923833  24.4484083  40.4438553  50.5623833  18.0964083
  40.8848553  50.6423833  18.8444083  39.6388553  50.3463833  18.3544083
  40.3898553  50.5423833  18.2454083  48.7348553  38.9873833  27.3724083
  49.5898553  39.0863833  27.5174083  48.3658553  39.5403833  27.9374083
  48.8068553  39.0843833  27.4774083  39.7628553  45.2133833  31.7494083
  39.3668553  45.9873833  31.8244083  39.3568553  44.8403833  31.0734083
  39.6448553  45.2723833  31.6604083  49.0388553  44.2673833  25.8634083
  49.7048553  44.8083833  26.0234083  48.6938553  44.5783833  25.1244083
  49.0858553  44.3933833  25.7784083  49.3518553  52.3333833  21.6704083
  49.1778553  51.6793833  22.2204083  50.0648553  52.0623833  21.2474083
  49.4318553  52.1963833  21.6894083  37.7728553  49.6323833  18.6974083
  37.5288553  49.3253833  19.4774083  37.7398553  48.9293833  18.1814083
  37.7318553  49.4833833  18.7364083  40.5918553  47.8773833  17.4404083
  39.7738553  47.6093833  17.5804083  40.5638553  48.7293833  17.6254083
  40.4668553  47.9643833  17.4884083  40.1918553  38.1903833  29.1994083
  39.3278553  38.2743833  29.2794083  40.4118553  37.6763833  29.8684083
  40.0968553  38.1273833  29.3104083  52.2098553  36.8253833  30.5284083
  52.1578553  36.7813833  31.3984083  52.8968553  36.3223833  30.3384083
  52.3038553  36.7453833  30.6284083  44.2948553  38.9383833  27.5734083
  43.5578553  38.4843833  27.6864083  44.8658553  38.5363833  28.0964083
  44.2698553  38.8113833  27.6674083  47.0268553  49.7863833  29.3614083
  47.2328553  50.0873833  30.1534083  46.9658553  50.5083833  28.8764083
  47.0478553  49.9373833  29.4064083  46.5608553  54.0003833  33.6074083
  45.8078553  53.9823833  33.1664083  46.7288553  54.8523833  33.6914083
  46.4748553  54.1233833  33.5544083  41.7978553  43.2673833  32.7774083
  41.4758553  42.6913833  32.2074083  41.4388553  44.0223833  32.5314083
  41.6978553  43.2933833  32.6574083  42.5938553  36.5193833  17.4044083
  42.6718553  36.7663833  16.5714083  41.8508553  36.8963833  17.6624083
  42.4958553  36.6113833  17.3194083  51.8388553  48.4253833  28.8194083
  51.8068553  47.5633833  28.6844083  51.1458553  48.7273833  28.3854083
  51.7318553  48.3423833  28.7354083  40.2328553  53.6233833  33.0254083
  40.2738553  53.7493833  33.8884083  40.8838553  53.0633833  32.8694083
  40.3348553  53.5593833  33.1304083  49.9438553  51.6853833  27.6164083
  50.4708553  51.6023833  26.9254083  49.5528553  50.9073833  27.6704083
  49.9638553  51.5583833  27.5224083  37.4118553  38.2733833  29.8474083
  37.0688553  37.5063833  29.6134083  36.7168553  38.7973833  29.9114083
  37.2588553  38.2373833  29.8224083  46.4578553  37.1293833  26.8244083
  47.1278553  37.6733833  26.9514083  45.9548553  37.5533833  26.2514083
  46.4828553  37.2723833  26.7584083  37.8258553  52.0063833  34.3854083
  38.4208553  52.4373833  34.8574083  37.4618553  52.6303833  33.8964083
  37.8598553  52.1623833  34.3824083  45.8168553  42.9373833  24.3174083
  46.3678553  42.3303833  24.6174083  45.3918553  43.2003833  25.0324083
  45.8358553  42.8863833  24.4664083  36.0648553  41.5873833  23.8034083
  35.6968553  41.8893833  24.5344083  36.5988553  40.9583833  24.0874083
  36.0888553  41.5393833  23.9534083  35.7528553  49.9953833  31.3144083
  35.1788553  50.4113833  31.8234083  36.4858553  50.4603833  31.4094083
  35.7768553  50.1253833  31.4034083  47.7868553  44.7683833  20.8794083
  47.8548553  43.9183833  21.0604083  46.9638553  44.8543833  20.6014083
  47.6748553  44.6553833  20.8654083  37.5388553  53.2623833  20.0894083
  37.3938553  53.4183833  19.2434083  38.4048553  53.3413833  20.1674083
  37.6458553  53.2973833  19.9764083  41.7058553  45.6593833  19.8174083
  41.8058553  45.7983833  18.9624083  42.5238553  45.5993833  20.1134083
  41.8408553  45.6703833  19.7344083  50.8658553  53.7233833  17.2974083
  51.5028553  53.5893833  17.8784083  50.5248553  52.9293833  17.1804083
  50.9098553  53.5863833  17.3654083  51.0608553  46.1413833  34.0304083
  51.6948553  45.9713833  34.6044083  51.4778553  46.5443833  33.3784083
  51.2158553  46.1763833  34.0194083  46.9408553  49.9883833  19.6194083
  46.6898553  49.8603833  20.4454083  46.6238553  49.2933833  19.1984083
  46.8568553  49.8673833  19.6794083  51.6858553  40.7053833  34.7684083
  51.4898553  41.3493833  35.3234083  50.9638553  40.2153833  34.7604083
  51.5508553  40.7283833  34.8494083  51.5848553  41.6463833  27.7394083
  50.7518553  41.8963833  27.6674083  51.5288553  40.8063833  27.9684083
  51.4538553  41.5593833  27.7624083  40.8448553  38.6343833  32.9334083
  41.0788553  38.0583833  32.3204083  40.0028553  38.4533833  33.0744083
  40.7548553  38.5223833  32.8634083  48.4718553  46.2523833  35.3854083
  49.3428553  46.2163833  35.3494083  48.2528553  46.6723833  34.6534083
  48.5688553  46.3083833  35.2724083  38.2258553  52.0773833  26.5664083
  38.1468553  51.2673833  26.2504083  37.7818553  52.5643833  25.9944083
  38.1488553  52.0293833  26.4354083  43.8268553  48.1963833  19.0494083
  44.5438553  47.8493833  18.6934083  43.7928553  48.9963833  18.7014083
  43.9278553  48.2633833  18.9454083  35.7978553  54.3213833  30.1474083
  36.2908553  54.2653833  30.8654083  35.9858553  53.5883833  29.7124083
  35.8988553  54.2043833  30.1894083  45.2358553  36.8373833   3.2881673
  44.9908553  37.3253833   2.6081673  46.0988553  36.7643833   3.1881673
  45.3268553  36.8983833   3.1731673  45.0448553  43.7533833   7.9591673
  44.5208553  44.3493833   8.3221673  45.4418553  43.3853833   8.6431673
  45.0258553  43.7873833   8.1141673  34.9138553  47.8933833   3.4151673
  34.4728553  48.0113833   4.1581673  34.6308553  47.1183833   3.1301673
  34.8068553  47.7963833   3.4831673  47.7158553  44.8203833   4.6351673
  47.7958553  44.8243833   3.7661673  47.1318553  44.1883833   4.7841673
  47.6408553  44.7273833   4.5291673  37.4228553  48.5893833   2.4941673
  38.0308553  48.4193833   3.0971673  36.6718553  48.4493833   2.9151673
  37.4018553  48.5433833   2.6451673  41.7048553  37.9243833   2.4431673
  41.6348553  38.6013833   1.8971673  42.4458553  37.5363833   2.1941673
  41.8038553  37.9673833   2.3251673  34.8538553  50.6283833   9.6701673
  34.9828553  50.3483833  10.4861673  34.2438553  50.0873833   9.3611673
  34.7828553  50.5073833   9.7451673  41.4278553  48.1533833  14.7371673
  41.1918553  48.1503833  15.5771673  40.6798553  48.0053833  14.3131673
  41.2818553  48.1303833  14.7981673  36.2998553  45.1493833   3.8721673
  35.8378553  44.7573833   3.2451673  36.9998553  44.6363833   3.9641673
  36.3348553  45.0163833   3.7931673  40.8078553  40.7593833   9.2191673
  41.4858553  40.7773833   8.6701673  40.7628553  39.9233833   9.4641673
  40.9008553  40.6383833   9.1741673  41.4098553  51.3453833  12.0001673
  41.5478553  52.1053833  11.5931673  42.2008553  50.9803833  12.0271673
  41.5468553  51.4043833  11.9441673  38.3008553  43.2493833   3.8951673
  39.1178553  43.0623833   4.1381673  37.8238553  42.6353833   4.2911673
  38.3508553  43.1313833   3.9901673  42.5048553  49.2303833   6.5051673
  42.8528553  48.4313833   6.5351673  43.1698553  49.7343833   6.2501673
  42.6548553  49.1863833   6.4721673  42.5618553  48.6793833   2.7161673
  42.8928553  48.0353833   3.2021673  42.8018553  48.4683833   1.9051673
  42.6458553  48.5533833   2.6681673  44.5298553  42.8103833  14.0551673
  43.6818553  42.7113833  13.8771673  44.5588553  43.5553833  14.5091673
  44.4088553  42.9063833  14.0961673  38.8978553  38.3433833   3.1611673
  38.6018553  38.8443833   2.5111673  39.7648553  38.4213833   3.1041673
  38.9818553  38.4293833   3.0571673  49.0878553  35.7703833  13.1691673
  48.9298553  36.5393833  12.7871673  48.3158553  35.5503833  13.5131673
  48.9498553  35.8513833  13.1641673  41.8768553  37.4853833   5.3841673
  41.9498553  38.3453833   5.5131673  41.8388553  37.4103833   4.5161673
  41.8818553  37.6013833   5.2751673  34.7558553  42.9103833   6.8851673
  34.4998553  43.7413833   6.8101673  34.0918553  42.5273833   7.3021673
  34.6198553  42.9763833   6.9361673  34.6658553  52.6203833   4.7851673
  34.0738553  53.1783833   4.4721673  35.0918553  52.3513833   4.0731673
  34.6418553  52.6623833   4.6341673  40.5058553  50.4643833   2.2651673
  39.9268553  50.1893833   2.8571673  41.1298553  49.8553833   2.2901673
  40.5128553  50.3343833   2.3561673  44.8168553  53.1443833   1.7771673
  45.0308553  53.6713833   2.4391673  45.5838553  52.9703833   1.3981673
  44.9618553  53.1963833   1.8191673  37.7848553  37.7273833   7.3761673
  37.2638553  37.0993833   7.0681673  38.3758553  37.2903833   7.8471673
  37.7958553  37.5693833   7.4001673  41.0908553  39.8603833  16.6741673
  41.2078553  39.4063833  15.9381673  41.3788553  40.6583833  16.4711673
  41.1508553  39.9113833  16.5351673  36.2108553  51.2903833   2.7161673
  36.8668553  50.7153833   2.7311673  36.5998553  52.0393833   2.4951673
  36.3658553  51.3153833   2.6861673  51.9438553  40.3843833   3.9781673
  51.5978553  41.0623833   4.4041673  51.3078553  39.7863833   3.9941673
  51.7988553  40.3963833   4.0431673  47.2558553  53.1543833  10.0821673
  47.9998553  53.6103833  10.0721673  47.1348553  52.9403833   9.2451673
  47.3478553  53.1903833   9.9571673  36.8238553  39.4573833  15.6581673
  36.0458553  39.0673833  15.5861673  37.3148553  39.0453833  15.0671673
  36.7808553  39.3383833  15.5601673  37.0288553  49.7773833   6.2161673
  37.4518553  49.4213833   5.5421673  37.3528553  49.3553833   6.9081673
  37.1388553  49.6623833   6.2191673  40.2598553  52.6293833   5.5121673
  41.1038553  52.7333833   5.3171673  39.9628553  53.4473833   5.5801673
  40.3408553  52.7653833   5.4931673  43.4728553  37.1003833  14.8261673
  43.6508553  36.2913833  14.5511673  43.3298553  37.5413833  14.0871673
  43.4778553  37.0463833  14.6761673  44.0668553  42.0263833   3.5991673
  44.3538553  41.7943833   2.8091673  44.7988553  42.1053833   4.0681673
  44.2168553  42.0033833   3.5521673  39.2578553  53.8483833  11.2521673
  39.5498553  53.7813833  12.0721673  38.6318553  53.2433833  11.2071673
  39.2088553  53.7493833  11.3671673  51.6188553  38.7073833   9.3471673
  52.3758553  38.7793833   8.9191673  51.6818553  37.9343833   9.7461673
  51.7398553  38.6043833   9.3421673  34.1718553  40.0053833  13.2441673
  34.1678553  40.5923833  13.8901673  34.7658553  40.3173833  12.6871673
  34.2588553  40.1383833  13.2571673  46.5098553  50.3393833  13.7861673
  46.4758553  50.7213833  14.5701673  47.3638553  50.2973833  13.6151673
  46.6308553  50.3893833  13.8771673  35.1088553  39.6003833   2.1591673
  34.9948553  38.7363833   2.1901673  34.6338553  39.8943833   2.8291673
  35.0218553  39.5163833   2.2621673  37.2508553  52.0103833  10.3741673
  36.5528553  51.5023833  10.5001673  37.5108553  51.8053833   9.5661673
  37.1858553  51.9053833  10.2731673  44.9618553  53.5033833  11.2841673
  45.7298553  53.4233833  10.8781673  44.3788553  53.3823833  10.6461673
  44.9888553  53.4733833  11.1301673  51.2388553  54.1063833   4.1851673
  50.7838553  54.8233833   4.3861673  50.6248553  53.5353833   3.9431673
  51.0808553  54.1283833   4.1791673  43.0108553  40.1163833   5.3171673
  43.0848553  40.6843833   4.6591673  43.1318553  40.6083833   6.0271673
  43.0388553  40.2733833   5.3251673  48.2358553  49.9513833   3.7291673
  48.9368553  49.4693833   3.9181673  47.5758553  49.3823833   3.7741673
  48.2418553  49.7963833   3.7631673  38.6118553  50.8613833  12.9411673
  39.4528553  50.9243833  12.7191673  38.5748553  51.2583833  13.7171673
  38.7308553  50.9293833  13.0231673  37.6188553  35.9393833   3.6651673
  38.1548553  36.6273833   3.6551673  37.6218553  35.6653833   2.8371673
  37.6978553  36.0003833   3.5411673  40.5748553  46.3723833   7.6901673
  40.7468553  46.1623833   8.5191673  39.9198553  45.8383833   7.4741673
  40.5038553  46.2623833   7.7811673  46.8028553  40.2863833  11.2051673
  46.7078553  40.6053833  12.0111673  46.2098553  39.6473833  11.1671673
  46.7008553  40.2383833  11.3191673  41.3248553  46.3103833  10.2801673
  41.3778553  47.1573833  10.4821673  41.0398553  45.9403833  11.0171673
  41.2908553  46.3803833  10.4181673  47.5018553  47.0053833   9.4101673
  46.9878553  46.5933833   9.9811673  47.3758553  47.8493833   9.5911673
  47.4078553  47.0693833   9.5211673  48.0588553  36.2303833   4.0411673
  48.1078553  35.9123833   4.8521673  48.3818553  35.5863833   3.5481673
  48.1138553  36.0883833   4.0881673  34.1458553  50.6813833  16.4911673
  34.9018553  51.0303833  16.7491673  34.3228553  49.8283833  16.4341673
  34.2838553  50.6063833  16.5211673  50.5228553  40.4663833  12.3491673
  51.2948553  40.2413833  12.6861673  50.0478553  40.6833833  13.0491673
  50.5668553  40.4653833  12.5021673  38.0668553  39.7493833   5.3191673
  38.3388553  39.3193833   4.6111673  37.8908553  39.1133833   5.8901673
  38.0808553  39.5923833   5.2991673  37.8908553  47.1763833   4.8681673
  38.7418553  47.0963833   4.6951673  37.5338553  46.4943833   4.4561673
  37.9638553  47.0633833   4.7811673  36.6578553  53.9013833   6.1051673
  35.9848553  53.4033833   5.8601673  37.0608553  54.0863833   5.3541673
  36.6178553  53.8553833   5.9581673  36.2078553  40.8513833   8.4011673
  37.0508553  41.0713833   8.3581673  35.8188553  41.4243833   7.8701673
  36.2748553  40.9683833   8.3161673  52.9888553  51.9533833  13.7911673
  52.3068553  52.2633833  13.3441673  52.6198553  51.4953833  14.4361673
  52.8328553  51.9313833  13.8201673  40.2588553  47.1833833   3.1031673
  40.9718553  47.6783833   3.1931673  40.4808553  46.6163833   2.4771673
  40.3968553  47.1723833   3.0241673  34.4148553  48.8263833   6.4231673
  33.7478553  49.3143833   6.6991673  35.0948553  49.3713833   6.4521673
  34.4168553  48.9783833   6.4681673  42.0618553  42.5363833  16.5191673
  41.5778553  43.1133833  16.9611673  42.0338553  42.8313833  15.6981673
  41.9858553  42.6653833  16.4631673  53.1598553  43.2203833  11.1311673
  53.3748553  42.4203833  10.8551673  52.3098553  43.2803833  10.9421673
  53.0658553  43.1113833  11.0621673  44.7818553  50.8863833   5.4301673
  44.2588553  51.5203833   5.1371673  45.0918553  50.5223833   4.7011673
  44.7498553  50.9263833   5.2791673  38.8568553  48.6743833   8.1901673
  39.3238553  48.9633833   8.8681673  39.4288553  48.1963833   7.7361673
  39.0108553  48.6463833   8.2231673  47.2928553  40.6883833   5.9271673
  47.6368553  40.8403833   6.7141673  46.8398553  39.9503833   6.0401673
  47.2768553  40.6013833   6.0601673  35.4228553  46.3443833   6.7341673
  35.8538553  46.2153833   5.9871673  35.2178553  47.1923833   6.7081673
  35.4558553  46.4503833   6.6201673  50.8228553  52.3353833  11.8811673
  50.1518553  52.8493833  12.0991673  50.8858553  52.4353833  11.0171673
  50.7328553  52.4263833  11.7861673  39.5068553  49.8603833   5.0161673
  39.6328553  50.7033833   5.2031673  40.1748553  49.4613833   5.4121673
  39.6248553  49.9263833   5.1021673  37.6368553  43.3433833  14.8781673
  37.1008553  42.8373833  15.3461673  37.6568553  42.9533833  14.0981673
  37.5598553  43.2103833  14.8321673  38.2888553  44.5703833   6.6171673
  37.5078553  44.5113833   6.2341673  38.3608553  43.8183833   7.0541673
  38.1838553  44.4513833   6.6251673  38.7188553  44.3073833  10.0851673
  38.7438553  43.6323833   9.5341673  38.0728553  44.8033833   9.7731673
  38.6278553  44.2803833   9.9581673  48.6138553  42.0203833   8.4811673
  47.9518553  42.3483833   8.9441673  48.8008553  42.6543833   7.9121673
  48.5438553  42.1623833   8.4651673  42.8188553  53.0843833   9.4771673
  42.5418553  52.4433833   8.9541673  42.6108553  53.8103833   9.0391673
  42.7478553  53.0973833   9.3351673  45.2588553  37.9263833  11.9101673
  45.4078553  37.1013833  11.6671673  45.6378553  37.9813833  12.6941673
  45.3368553  37.8123833  11.9901673  46.8068553  39.9893833   1.9921673
  47.2968553  40.7063833   1.9151673  46.0168553  40.2503833   1.7291673
  46.7628553  40.1333833   1.9421673  36.5178553  45.6623833  15.6441673
  36.4808553  46.1633833  14.9301673  36.8488553  44.9103833  15.3491673
  36.5608553  45.6243833  15.4951673  48.1208553  47.8673833  13.9021673
  48.6048553  48.5853833  14.0001673  48.5148553  47.4403833  13.2511673
  48.2508553  47.9103833  13.8201673  42.4168553  50.7123833  15.0791673
  42.7708553  50.5343833  15.8561673  41.9808553  49.9833833  14.8801673
  42.4048553  50.5783833  15.1651673  43.3888553  41.4593833   7.7171673
  43.8688553  42.1583833   7.9251673  43.7618553  40.8123833   8.1681673
  43.5148553  41.4673833   7.8141673  50.5498553  48.4983833   3.9721673
  50.9058553  48.1483833   4.6871673  50.5418553  47.8373833   3.4021673
  50.6018553  48.3483833   3.9931673  46.5948553  51.5643833   7.8161673
  45.9918553  51.2683833   7.2591673  47.1398553  52.0163833   7.3071673
  46.5858553  51.5873833   7.6581673  46.6078553  48.4153833   7.2161673
  45.8108553  48.6393833   7.4901673  46.8658553  47.8213833   7.8011673
  46.5278553  48.3603833   7.3431673  49.8678553  46.4133833  12.0621673
  49.9228553  46.5383833  11.2001673  50.6208553  46.7333833  12.3641673
  49.9868553  46.4783833  11.9791673  46.0588553  51.7623833  16.3391673
  46.2228553  52.0453833  17.1481673  46.3218553  52.4233833  15.8341673
  46.1218553  51.9023833  16.3841673  50.8998553  36.7113833  15.0491673
  50.2628553  36.3113833  14.6071673  50.9258553  36.2803833  15.8071673
  50.8098553  36.5893833  15.0951673  45.5988553  46.2193833  11.6621673
  45.4438553  46.8293833  12.2661673  46.1328553  45.6613833  12.0681673
  45.6548553  46.2273833  11.8111673  34.2898553  36.9383833   1.8631673
  34.4188553  36.2303833   1.3711673  33.9228553  36.6203833   2.5881673
  34.2548553  36.7863833   1.8981673  43.9828553  44.6193833   2.3201673
  44.0418553  45.2693833   2.8991673  43.7938553  43.9233833   2.8111673
  43.9638553  44.6123833   2.4781673  49.2088553  48.9483833   8.1891673
  48.7298553  49.2463833   7.5231673  48.8528553  48.1723833   8.3671673
  49.0858553  48.8773833   8.1171673  43.2058553  46.6663833   6.7511673
  42.3588553  46.4723833   6.8321673  43.5298553  46.5013833   7.5441673
  43.1278553  46.6133833   6.8801673  37.0538553  46.3593833   9.0671673
  37.7758553  46.8473833   9.0301673  36.7838553  46.3293833   8.2381673
  37.1208553  46.4273833   8.9391673  40.2838553  41.5303833   5.8021673
  41.1298553  41.3403833   5.9001673  39.9138553  40.7533833   5.6641673
  40.3538553  41.3873833   5.7961673  35.1048553  42.8683833   2.4571673
  35.5938553  42.5763833   3.1181673  35.2338553  42.2753833   1.8301673
  35.1958553  42.7373833   2.4621673  50.1398553  45.8903833   9.3081673
  50.1328553  45.1143833   9.7061673  49.2988553  46.1243833   9.3011673
  50.0148553  45.8103833   9.3661673  36.4488553  47.4113833  13.3451673
  36.0278553  46.8933833  12.7841673  36.0968553  48.1973833  13.2021673
  36.3348553  47.4513833  13.2411673  51.3958553  45.9613833   6.7451673
  51.1098553  46.3623833   7.4651673  52.2558553  45.8993833   6.8721673
  51.4808553  46.0113833   6.8701673  49.0578553  39.8853833  15.2851673
  48.5328553  40.3443833  15.8091673  48.6968553  39.0903833  15.2791673
  48.9268553  39.8353833  15.3611673  34.5648553  38.7333833   7.1891673
  34.6088553  39.0773833   6.3881673  35.3198553  38.9703833   7.5561673
  34.6828553  38.8193833   7.1251673  52.5268553  51.5943833   7.2741673
  52.8168553  51.8513833   6.4931673  53.2218553  51.6903833   7.7931673
  52.6728553  51.6463833   7.2351673  47.5498553  43.4543833  15.3611673
  47.6228553  43.5583833  16.2241673  46.9158553  44.0123833  15.1401673
  47.4668553  43.5523833  15.4561673  49.8178553  43.7733833  13.7261673
  50.1368553  44.5593833  13.9291673  49.4478553  43.5033833  14.4691673
  49.8108553  43.8493833  13.8661673  49.6138553  42.0313833   4.9151673
  48.8688553  41.7083833   5.2331673  49.6158553  42.8573833   5.1951673
  49.5038553  42.1053833   5.0031673  52.5158553  44.3153833  16.4611673
  52.4638553  43.9743833  15.6601673  53.2528553  44.7823833  16.4391673
  52.6168553  44.3343833  16.3391673  52.0538553  47.9913833  12.6671673
  52.6818553  47.4423833  12.4111673  51.9928553  48.5563833  12.0051673
  52.1378553  47.9943833  12.5311673  41.1878553  49.2223833   9.9631673
  40.8898553  49.8143833  10.5301673  41.2428553  49.6643833   9.2141673
  41.1518553  49.3753833   9.9361673  39.1668553  48.1723833  13.3611673
  38.3608553  47.8823833  13.5281673  39.0778553  49.0403833  13.3671673
  39.0348553  48.2573833  13.3861673  48.5258553  38.3613833  12.3761673
  49.2698553  38.8133833  12.3131673  47.9598553  38.8313833  11.9071673
  48.5528553  38.4983833  12.2981673  43.7038553  45.6453833   9.4541673
  44.1798553  46.0193833  10.0821673  42.8808553  45.7793833   9.7131673
  43.6528553  45.7203833   9.5851673  40.4138553  41.2483833  12.1951673
  40.5748553  40.5043833  12.6221673  40.3688553  40.9993833  11.3601673
  40.4308553  41.1013833  12.1351673  42.9678553  53.0383833   4.6821673
  43.5138553  53.7173833   4.7361673  42.6178553  53.1203833   3.8871673
  42.9968553  53.1513833   4.5721673  49.8108553  36.3413833  10.0461673
  49.5308553  37.1663833  10.0021673  50.5268553  36.3943833  10.5421673
  49.8758553  36.4713833  10.1131673  42.1658553  37.0563833  12.0751673
  42.8708553  37.3763833  11.6731673  42.4068553  36.2493833  12.3021673
  42.3048553  36.9843833  12.0491673  41.1508553  51.2663833   8.0711673
  40.5268553  51.8483833   7.8891673  41.3988553  50.9803833   7.2851673
  41.0948553  51.3103833   7.9281673  45.4598553  47.9003833  15.0601673
  46.2168553  48.1863833  14.7341673  44.9128553  47.9523833  14.3821673
  45.4908553  47.9503833  14.9111673  49.3688553  50.4503833  13.5641673
  49.7148553  50.7203833  14.3181673  49.6628553  51.0323833  12.9841673
  49.4638553  50.5763833  13.5901673  38.6748553  42.1093833   8.1361673
  39.1148553  42.0063833   7.3901673  39.2198553  41.7963833   8.7411673
  38.8198553  42.0483833   8.1151673  46.6908553  41.2113833  13.7281673
  46.0428553  41.6813833  14.0761673  47.2558553  41.1223833  14.3871673
  46.6788553  41.2673833  13.8771673  46.3788553  42.7483833  10.0261673
  46.6808553  43.1683833  10.7291673  46.4148553  41.9083833  10.2581673
  46.4288553  42.6863833  10.1641673  43.8038553  52.9153833  13.9511673
  44.2818553  52.3153833  13.5351673  43.4528553  52.4723833  14.6161673
  43.8228553  52.7613833  13.9881673  48.9268553  42.1953833   2.2781673
  49.1338553  41.9943833   3.1021673  49.6828553  42.4633833   1.9361673
  49.0688553  42.2053833   2.3491673  42.2218553  37.0943833   8.1831673
  41.3958553  36.9453833   8.4201673  42.1818553  37.1293833   7.3121673
  42.0938553  37.0773833   8.0891673  49.9488553  38.2783833   3.7521673
  49.2348553  37.8073833   3.9231673  49.7868553  38.6193833   2.9661673
  49.8198553  38.2593833   3.6611673  50.3918553  46.2223833   2.1321673
  50.8678553  45.4933833   2.0841673  49.5708553  45.9363833   2.0561673
  50.3408553  46.0723833   2.1131673  43.8628553  48.1343833  12.9711673
  43.0678553  48.0703833  13.3221673  43.9338553  48.9813833  12.7761673
  43.7558553  48.2493833  12.9941673  34.7868553  37.4923833  14.2181673
  34.6468553  38.2873833  13.8871673  34.0008553  37.2493833  14.5071673
  34.6498553  37.5743833  14.2121673  39.6928553  54.3413833   8.2881673
  39.7038553  54.4003833   9.1581673  39.2678553  53.5943833   8.1381673
  39.6318553  54.2393833   8.3941673  46.6078553  47.3893833   4.4871673
  46.6838553  47.7303833   5.2861673  46.7768553  46.5423833   4.6081673
  46.6438553  47.3143833   4.6231673  44.1298553  46.6633833   4.0521673
  43.8318553  46.3483833   4.8091673  44.8248553  47.1363833   4.2871673
  44.1888553  46.6863833   4.1991673  44.3518553  50.7813833  12.0791673
  45.0388553  50.6673833  12.6041673  44.4858553  51.5723833  11.7351673
  44.4728553  50.8813833  12.1061673  52.5278553  43.3903833  13.8901673
  51.6728553  43.2683833  14.0161673  52.6808553  42.9953833  13.1271673
  52.4238553  43.3133833  13.7961673  47.0408553  44.0553833  12.4661673
  46.7858553  43.3363833  12.8881673  47.8618553  44.1713833  12.7361673
  47.1248553  43.9663833  12.5681673  36.4568553  53.8393833  13.7301673
  35.8028553  53.2703833  13.8281673  36.0818553  54.6123833  13.8811673
  36.3048553  53.8693833  13.7671673  44.9748553  45.2453833  15.6531673
  45.2978553  45.9313833  15.2211673  44.2708553  45.5683833  16.0551673
  44.9178553  45.3943833  15.6481673  48.0588553  53.6193833   6.5821673
  47.6078553  54.2623833   6.9611673  48.7668553  53.5403833   7.0871673
  48.0968553  53.7023833   6.7131673  44.7598553  48.7093833   9.5121673
  44.0658553  49.1113833   9.8551673  45.4368553  49.1423833   9.8511673
  44.7568553  48.8323833   9.6131673  50.1368553  51.3023833  16.0921673
  50.9128553  50.9123833  16.1751673  49.6678553  50.9663833  16.7471673
  50.1818553  51.1953833  16.2011673  37.8278553  42.2473833  11.8591673
  38.2028553  42.8663833  11.3721673  38.5018553  41.7733833  12.1441673
  37.9828553  42.2693833  11.8291673  35.6028553  40.6953833  11.1341673
  35.6798553  40.5263833  10.2811673  36.3488553  41.1013833  11.3311673
  35.7238553  40.7303833  11.0371673  38.1568553  38.1053833  13.5451673
  38.0758553  37.2613833  13.7511673  37.8428553  38.1493833  12.7321673
  38.0988553  37.9873833  13.4551673  45.0818553  50.3003833   2.6811673
  44.8768553  51.1333833   2.5221673  44.3068553  49.9183833   2.8031673
  44.9368553  50.3673833   2.6761673  50.2638553  43.4813833  10.9301673
  50.2618553  42.6183833  11.0541673  50.3308553  43.8053833  11.7371673
  50.2738553  43.4013833  11.0671673  34.9998553  45.9213833  11.3581673
  35.3198553  46.1403833  10.5771673  34.8998553  45.0563833  11.3031673
  35.0318553  45.8263833  11.2351673  46.1428553  38.2813833  14.7121673
  46.2348553  38.9933833  15.2061673  45.5058553  37.8363833  15.1091673
  46.0618553  38.3203833  14.8441673  45.1368553  38.4713833   5.5661673
  44.4368553  38.9893833   5.5101673  45.1748553  38.0913833   4.7821673
  45.0388553  38.4923833   5.4421673  48.7348553  38.9873833   8.3661673
  49.5898553  39.0863833   8.5111673  48.3658553  39.5403833   8.9311673
  48.8068553  39.0843833   8.4711673  39.7628553  45.2133833  12.7431673
  39.3668553  45.9873833  12.8181673  39.3568553  44.8403833  12.0671673
  39.6448553  45.2723833  12.6541673  49.0388553  44.2673833   6.8571673
  49.7048553  44.8083833   7.0171673  48.6938553  44.5783833   6.1181673
  49.0858553  44.3933833   6.7721673  49.3518553  52.3333833   2.6641673
  49.1778553  51.6793833   3.2141673  50.0648553  52.0623833   2.2411673
  49.4318553  52.1963833   2.6831673  40.1918553  38.1903833  10.1931673
  39.3278553  38.2743833  10.2731673  40.4118553  37.6763833  10.8621673
  40.0968553  38.1273833  10.3041673  52.2098553  36.8253833  11.5221673
  52.1578553  36.7813833  12.3921673  52.8968553  36.3223833  11.3321673
  52.3038553  36.7453833  11.6221673  44.2948553  38.9383833   8.5671673
  43.5578553  38.4843833   8.6801673  44.8658553  38.5363833   9.0901673
  44.2698553  38.8113833   8.6611673  47.0268553  49.7863833  10.3551673
  47.2328553  50.0873833  11.1471673  46.9658553  50.5083833   9.8701673
  47.0478553  49.9373833  10.4001673  46.5608553  54.0003833  14.6011673
  45.8078553  53.9823833  14.1601673  46.7288553  54.8523833  14.6851673
  46.4748553  54.1233833  14.5481673  41.7978553  43.2673833  13.7711673
  41.4758553  42.6913833  13.2011673  41.4388553  44.0223833  13.5251673
  41.6978553  43.2933833  13.6511673  51.8388553  48.4253833   9.8131673
  51.8068553  47.5633833   9.6781673  51.1458553  48.7273833   9.3791673
  51.7318553  48.3423833   9.7291673  40.2328553  53.6233833  14.0191673
  40.2738553  53.7493833  14.8821673  40.8838553  53.0633833  13.8631673
  40.3348553  53.5593833  14.1241673  49.9438553  51.6853833   8.6101673
  50.4708553  51.6023833   7.9191673  49.5528553  50.9073833   8.6641673
  49.9638553  51.5583833   8.5161673  37.4118553  38.2733833  10.8411673
  37.0688553  37.5063833  10.6071673  36.7168553  38.7973833  10.9051673
  37.2588553  38.2373833  10.8161673  46.4578553  37.1293833   7.8181673
  47.1278553  37.6733833   7.9451673  45.9548553  37.5533833   7.2451673
  46.4828553  37.2723833   7.7521673  37.8258553  52.0063833  15.3791673
  38.4208553  52.4373833  15.8511673  37.4618553  52.6303833  14.8901673
  37.8598553  52.1623833  15.3761673  45.8168553  42.9373833   5.3111673
  46.3678553  42.3303833   5.6111673  45.3918553  43.2003833   6.0261673
  45.8358553  42.8863833   5.4601673  36.0648553  41.5873833   4.7971673
  35.6968553  41.8893833   5.5281673  36.5988553  40.9583833   5.0811673
  36.0888553  41.5393833   4.9471673  35.7528553  49.9953833  12.3081673
  35.1788553  50.4113833  12.8171673  36.4858553  50.4603833  12.4031673
  35.7768553  50.1253833  12.3971673  47.7868553  44.7683833   1.8731673
  47.8548553  43.9183833   2.0541673  46.9638553  44.8543833   1.5951673
  47.6748553  44.6553833   1.8591673  51.0608553  46.1413833  15.0241673
  51.6948553  45.9713833  15.5981673  51.4778553  46.5443833  14.3721673
  51.2158553  46.1763833  15.0131673  51.6858553  40.7053833  15.7621673
  51.4898553  41.3493833  16.3171673  50.9638553  40.2153833  15.7541673
  51.5508553  40.7283833  15.8431673  51.5848553  41.6463833   8.7331673
  50.7518553  41.8963833   8.6611673  51.5288553  40.8063833   8.9621673
  51.4538553  41.5593833   8.7561673  40.8448553  38.6343833  13.9271673
  41.0788553  38.0583833  13.3141673  40.0028553  38.4533833  14.0681673
  40.7548553  38.5223833  13.8571673  48.4718553  46.2523833  16.3791673
  49.3428553  46.2163833  16.3431673  48.2528553  46.6723833  15.6471673
  48.5688553  46.3083833  16.2661673  38.2258553  52.0773833   7.5601673
  38.1468553  51.2673833   7.2441673  37.7818553  52.5643833   6.9881673
  38.1488553  52.0293833   7.4291673  35.7978553  54.3213833  11.1411673
  36.2908553  54.2653833  11.8591673  35.9858553  53.5883833  10.7061673
  35.8988553  54.2043833  11.1831673  45.2358553  18.3592753  79.3131313
  44.9908553  18.8472753  78.6331313  46.0988553  18.2862753  79.2131313
  45.3268553  18.4202753  79.1981313  45.0448553  25.2752753  83.9841313
  44.5208553  25.8712753  84.3471313  45.4418553  24.9072753  84.6681313
  45.0258553  25.3092753  84.1391313  34.9138553  29.4152753  79.4401313
  34.4728553  29.5332753  80.1831313  34.6308553  28.6402753  79.1551313
  34.8068553  29.3182753  79.5081313  51.1888553  32.7162753  76.9551313
  51.8898553  32.1972753  76.9511313  50.6018553  32.2712753  76.4861313
  51.2058553  32.5732753  76.8851313  34.6568553  23.2072753  75.9471313
  33.8788553  23.3692753  75.5871313  34.6958553  22.3362753  75.9691313
  34.5478553  23.1022753  75.8971313  37.7958553  28.4702753  74.6191313
  37.4038553  28.0992753  73.9331313  37.7158553  27.8722753  75.2481313
  37.7258553  28.3272753  74.6101313  47.7158553  26.3422753  80.6601313
  47.7958553  26.3462753  79.7911313  47.1318553  25.7102753  80.8091313
  47.6408553  26.2492753  80.5541313  37.4228553  30.1112753  78.5191313
  38.0308553  29.9412753  79.1221313  36.6718553  29.9712753  78.9401313
  37.4018553  30.0652753  78.6701313  41.7048553  19.4462753  78.4681313
  41.6348553  20.1232753  77.9221313  42.4458553  19.0582753  78.2191313
  41.8038553  19.4892753  78.3501313  36.3138553  33.2022753  74.5961313
  36.7808553  33.2862753  73.8641313  36.7688553  32.6242753  75.0651313
  36.4498553  33.1292753  74.5571313  34.8538553  32.1502753  85.6951313
  34.9828553  31.8702753  86.5111313  34.2438553  31.6092753  85.3861313
  34.7828553  32.0292753  85.7701313  36.2998553  26.6712753  79.8971313
  35.8378553  26.2792753  79.2701313  36.9998553  26.1582753  79.9891313
  36.3348553  26.5382753  79.8181313  40.8078553  22.2812753  85.2441313
  41.4858553  22.2992753  84.6951313  40.7628553  21.4452753  85.4891313
  40.9008553  22.1602753  85.1991313  41.4098553  32.8672753  88.0251313
  41.5478553  33.6272753  87.6181313  42.2008553  32.5022753  88.0521313
  41.5468553  32.9262753  87.9691313  38.3008553  24.7712753  79.9201313
  39.1178553  24.5842753  80.1631313  37.8238553  24.1572753  80.3161313
  38.3508553  24.6532753  80.0151313  42.5048553  30.7522753  82.5301313
  42.8528553  29.9532753  82.5601313  43.1698553  31.2562753  82.2751313
  42.6548553  30.7082753  82.4971313  42.5618553  30.2012753  78.7411313
  42.8928553  29.5572753  79.2271313  42.8018553  29.9902753  77.9301313
  42.6458553  30.0752753  78.6931313  38.8978553  19.8652753  79.1861313
  38.6018553  20.3662753  78.5361313  39.7648553  19.9432753  79.1291313
  38.9818553  19.9512753  79.0821313  41.8768553  19.0072753  81.4091313
  41.9498553  19.8672753  81.5381313  41.8388553  18.9322753  80.5411313
  41.8818553  19.1232753  81.3001313  46.5498553  21.9332753  73.7081313
  46.0998553  22.6142753  74.0151313  46.6638553  21.4292753  74.4111313
  46.5008553  21.9592753  73.8571313  34.7558553  24.4322753  82.9101313
  34.4998553  25.2632753  82.8351313  34.0918553  24.0492753  83.3271313
  34.6198553  24.4982753  82.9611313  34.6658553  34.1422753  80.8101313
  34.0738553  34.7002753  80.4971313  35.0918553  33.8732753  80.0981313
  34.6418553  34.1842753  80.6591313  40.5058553  31.9862753  78.2901313
  39.9268553  31.7112753  78.8821313  41.1298553  31.3772753  78.3151313
  40.5128553  31.8562753  78.3811313  46.6488553  34.2742753  75.8121313
  47.3758553  34.7462753  75.9141313  46.8778553  33.4802753  76.0921313
  46.7908553  34.2272753  75.8691313  44.8168553  34.6662753  77.8021313
  45.0308553  35.1932753  78.4641313  45.5838553  34.4922753  77.4231313
  44.9618553  34.7182753  77.8441313  37.7848553  19.2492753  83.4011313
  37.2638553  18.6212753  83.0931313  38.3758553  18.8122753  83.8721313
  37.7958553  19.0912753  83.4251313  36.2108553  32.8122753  78.7411313
  36.8668553  32.2372753  78.7561313  36.5998553  33.5612753  78.5201313
  36.3658553  32.8372753  78.7111313  51.9438553  21.9062753  80.0031313
  51.5978553  22.5842753  80.4291313  51.3078553  21.3082753  80.0191313
  51.7988553  21.9182753  80.0681313  47.2558553  34.6762753  86.1071313
  47.9998553  35.1322753  86.0971313  47.1348553  34.4622753  85.2701313
  47.3478553  34.7122753  85.9821313  37.0288553  31.2992753  82.2411313
  37.4518553  30.9432753  81.5671313  37.3528553  30.8772753  82.9331313
  37.1388553  31.1842753  82.2441313  40.2598553  34.1512753  81.5371313
  41.1038553  34.2552753  81.3421313  39.9628553  34.9692753  81.6051313
  40.3408553  34.2872753  81.5181313  44.0668553  23.5482753  79.6241313
  44.3538553  23.3162753  78.8341313  44.7988553  23.6272753  80.0931313
  44.2168553  23.5252753  79.5771313  44.7888553  23.8872753  74.7451313
  45.0698553  24.6752753  74.9941313  44.0128553  24.0522753  74.3821313
  44.7158553  24.0282753  74.7281313  48.8298553  35.8612753  76.2121313
  49.4948553  35.7132753  75.6671313  49.1898553  35.7782753  77.0021313
  48.9818553  35.8272753  76.2481313  39.2578553  35.3702753  87.2771313
  39.5498553  35.3032753  88.0971313  38.6318553  34.7652753  87.2321313
  39.2088553  35.2712753  87.3921313  51.6188553  20.2292753  85.3721313
  52.3758553  20.3012753  84.9441313  51.6818553  19.4562753  85.7711313
  51.7398553  20.1262753  85.3671313  43.6478553  32.0582753  74.5611313
  43.4668553  32.6032753  75.2181313  44.4138553  32.3482753  74.2601313
  43.7338553  32.1822753  74.6141313  47.1548553  19.9542753  75.6151313
  47.6948553  19.2722753  75.6911313  47.2168553  20.3522753  76.3891313
  47.2438553  19.9122753  75.7411313  35.1088553  21.1222753  78.1841313
  34.9948553  20.2582753  78.2151313  34.6338553  21.4162753  78.8541313
  35.0218553  21.0382753  78.2871313  37.2508553  33.5322753  86.3991313
  36.5528553  33.0242753  86.5251313  37.5108553  33.3272753  85.5911313
  37.1858553  33.4272753  86.2981313  44.4128553  22.3302753  76.9291313
  43.9048553  21.6682753  76.6751313  44.4648553  22.8342753  76.2191313
  44.3458553  22.3072753  76.7871313  44.9618553  35.0252753  87.3091313
  45.7298553  34.9452753  86.9031313  44.3788553  34.9042753  86.6711313
  44.9888553  34.9952753  87.1551313  44.4128553  19.2712753  76.8201313
  43.9578553  18.8692753  76.1941313  45.1858553  19.4262753  76.4451313
  44.4598553  19.2352753  76.6721313  51.2388553  35.6282753  80.2101313
  50.7838553  36.3452753  80.4111313  50.6248553  35.0572753  79.9681313
  51.0808553  35.6502753  80.2041313  43.0108553  21.6382753  81.3421313
  43.0848553  22.2062753  80.6841313  43.1318553  22.1302753  82.0521313
  43.0388553  21.7952753  81.3501313  48.2358553  31.4732753  79.7541313
  48.9368553  30.9912753  79.9431313  47.5758553  30.9042753  79.7991313
  48.2418553  31.3182753  79.7881313  37.6188553  17.4612753  79.6901313
  38.1548553  18.1492753  79.6801313  37.6218553  17.1872753  78.8621313
  37.6978553  17.5222753  79.5661313  40.5748553  27.8942753  83.7151313
  40.7468553  27.6842753  84.5441313  39.9198553  27.3602753  83.4991313
  40.5038553  27.7842753  83.8061313  46.8028553  21.8082753  87.2301313
  46.7078553  22.1272753  88.0361313  46.2098553  21.1692753  87.1921313
  46.7008553  21.7602753  87.3441313  41.3248553  27.8322753  86.3051313
  41.3778553  28.6792753  86.5071313  41.0398553  27.4622753  87.0421313
  41.2908553  27.9022753  86.4431313  47.5018553  28.5272753  85.4351313
  46.9878553  28.1152753  86.0061313  47.3758553  29.3712753  85.6161313
  47.4078553  28.5912753  85.5461313  48.0588553  17.7522753  80.0661313
  48.1078553  17.4342753  80.8771313  48.3818553  17.1082753  79.5731313
  48.1138553  17.6102753  80.1131313  38.0668553  21.2712753  81.3441313
  38.3388553  20.8412753  80.6361313  37.8908553  20.6352753  81.9151313
  38.0808553  21.1142753  81.3241313  50.7548553  28.9662753  75.5621313
  50.8738553  28.6792753  76.3771313  51.5618553  28.9872753  75.2321313
  50.8908553  28.9272753  75.6341313  37.8908553  28.6982753  80.8931313
  38.7418553  28.6182753  80.7201313  37.5338553  28.0162753  80.4811313
  37.9638553  28.5852753  80.8061313  36.6578553  35.4232753  82.1301313
  35.9848553  34.9252753  81.8851313  37.0608553  35.6082753  81.3791313
  36.6178553  35.3772753  81.9831313  36.2078553  22.3732753  84.4261313
  37.0508553  22.5932753  84.3831313  35.8188553  22.9462753  83.8951313
  36.2748553  22.4902753  84.3411313  48.6498553  25.5032753  75.1471313
  48.4298553  26.2342753  74.7251313  48.2018553  25.5542753  75.8941313
  48.5508553  25.6182753  75.1951313  40.2588553  28.7052753  79.1281313
  40.9718553  29.2002753  79.2181313  40.4808553  28.1382753  78.5021313
  40.3968553  28.6942753  79.0491313  52.8368553  20.3642753  74.6001313
  52.1748553  19.7962753  74.6231313  52.6438553  20.8762753  73.9201313
  52.7108553  20.3562753  74.5031313  34.4148553  30.3482753  82.4481313
  33.7478553  30.8362753  82.7241313  35.0948553  30.8932753  82.4771313
  34.4168553  30.5002753  82.4931313  53.1598553  24.7422753  87.1561313
  53.3748553  23.9422753  86.8801313  52.3098553  24.8022753  86.9671313
  53.0658553  24.6332753  87.0871313  34.4808553  27.0322753  77.5511313
  34.2958553  26.1932753  77.7031313  35.1398553  26.9962753  76.9811313
  34.5508553  26.9032753  77.4891313  50.8388553  19.9222753  76.8791313
  51.5848553  19.5152753  77.0781313  51.1018553  20.6372753  76.4541313
  50.9878553  19.9682753  76.8461313  44.7818553  32.4082753  81.4551313
  44.2588553  33.0422753  81.1621313  45.0918553  32.0442753  80.7261313
  44.7498553  32.4482753  81.3041313  34.6528553  31.1962753  77.1261313
  35.2048553  31.7652753  77.4901313  34.4208553  30.6812753  77.7911313
  34.6998553  31.2042753  77.2781313  38.8568553  30.1962753  84.2151313
  39.3238553  30.4852753  84.8931313  39.4288553  29.7182753  83.7611313
  39.0108553  30.1682753  84.2481313  47.2928553  22.2102753  81.9521313
  47.6368553  22.3622753  82.7391313  46.8398553  21.4722753  82.0651313
  47.2768553  22.1232753  82.0851313  34.4828553  29.6452753  74.7541313
  35.2388553  29.2132753  74.8121313  34.4978553  30.1772753  75.4451313
  34.5968553  29.6602753  74.8651313  35.4228553  27.8662753  82.7591313
  35.8538553  27.7372753  82.0121313  35.2178553  28.7142753  82.7331313
  35.4558553  27.9722753  82.6451313  41.7688553  21.4302753  76.4091313
  41.7668553  21.3132753  75.5441313  41.5878553  22.2782753  76.5011313
  41.7418553  21.5382753  76.2951313  50.8228553  33.8572753  87.9061313
  50.1518553  34.3712753  88.1241313  50.8858553  33.9572753  87.0421313
  50.7328553  33.9482753  87.8111313  39.5068553  31.3822753  81.0411313
  39.6328553  32.2252753  81.2281313  40.1748553  30.9832753  81.4371313
  39.6248553  31.4482753  81.1271313  38.1218553  24.2622753  76.0431313
  37.9938553  23.8142753  76.7811313  37.5398553  23.9202753  75.4911313
  38.0168553  24.1452753  76.0711313  38.2888553  26.0922753  82.6421313
  37.5078553  26.0332753  82.2591313  38.3608553  25.3402753  83.0791313
  38.1838553  25.9732753  82.6501313  38.7188553  25.8292753  86.1101313
  38.7438553  25.1542753  85.5591313  38.0728553  26.3252753  85.7981313
  38.6278553  25.8022753  85.9831313  48.6138553  23.5422753  84.5061313
  47.9518553  23.8702753  84.9691313  48.8008553  24.1762753  83.9371313
  48.5438553  23.6842753  84.4901313  42.8188553  34.6062753  85.5021313
  42.5418553  33.9652753  84.9791313  42.6108553  35.3322753  85.0641313
  42.7478553  34.6192753  85.3601313  45.2588553  19.4482753  87.9351313
  45.4078553  18.6232753  87.6921313  45.6378553  19.5032753  88.7191313
  45.3368553  19.3342753  88.0151313  46.8068553  21.5112753  78.0171313
  47.2968553  22.2282753  77.9401313  46.0168553  21.7722753  77.7541313
  46.7628553  21.6552753  77.9671313  43.3888553  22.9812753  83.7421313
  43.8688553  23.6802753  83.9501313  43.7618553  22.3342753  84.1931313
  43.5148553  22.9892753  83.8391313  45.5778553  26.1502753  76.0161313
  45.5698553  26.8722753  75.5261313  44.9388553  26.2852753  76.5931313
  45.4828553  26.2772753  76.0291313  50.5498553  30.0202753  79.9971313
  50.9058553  29.6702753  80.7121313  50.5418553  29.3592753  79.4271313
  50.6018553  29.8702753  80.0181313  46.5948553  33.0862753  83.8411313
  45.9918553  32.7902753  83.2841313  47.1398553  33.5382753  83.3321313
  46.5858553  33.1092753  83.6831313  46.6078553  29.9372753  83.2411313
  45.8108553  30.1612753  83.5151313  46.8658553  29.3432753  83.8261313
  46.5278553  29.8822753  83.3681313  40.4998553  34.7492753  77.6891313
  40.3528553  33.9732753  78.0601313  41.1888553  34.6022753  77.1741313
  40.5798553  34.6122753  77.6681313  40.1708553  18.4922753  75.6771313
  40.2678553  18.3852753  76.5381313  39.4628553  18.9982753  75.6121313
  40.0808553  18.5512753  75.7951313  42.7918553  34.2652753  76.0911313
  43.4138553  34.4282753  76.6811313  42.8278553  34.9562753  75.5591313
  42.8888553  34.3912753  76.1001313  49.8678553  27.9352753  88.0871313
  49.9228553  28.0602753  87.2251313  50.6208553  28.2552753  88.3891313
  49.9868553  28.0002753  88.0041313  37.2928553  26.7992753  76.9201313
  37.6168553  26.0202753  76.6981313  37.9388553  27.1672753  77.3751313
  37.4358553  26.7382753  76.9541313  45.5988553  27.7412753  87.6871313
  45.4438553  28.3512753  88.2911313  46.1328553  27.1832753  88.0931313
  45.6548553  27.7492753  87.8361313  34.2898553  18.4602753  77.8881313
  34.4188553  17.7522753  77.3961313  33.9228553  18.1422753  78.6131313
  34.2548553  18.3082753  77.9231313  43.9828553  26.1412753  78.3451313
  44.0418553  26.7912753  78.9241313  43.7938553  25.4452753  78.8361313
  43.9638553  26.1342753  78.5031313  49.2088553  30.4702753  84.2141313
  48.7298553  30.7682753  83.5481313  48.8528553  29.6942753  84.3921313
  49.0858553  30.3992753  84.1421313  38.4788553  20.6582753  74.8571313
  37.9678553  20.7112753  74.1511313  39.2628553  20.8982753  74.5611313
  38.5188553  20.7012753  74.7091313  43.2058553  28.1882753  82.7761313
  42.3588553  27.9942753  82.8571313  43.5298553  28.0232753  83.5691313
  43.1278553  28.1352753  82.9051313  39.9578553  34.9182753  73.6621313
  40.3968553  34.2212753  73.9501313  40.1648553  35.5422753  74.2351313
  40.0538553  34.9072753  73.7891313  37.0538553  27.8812753  85.0921313
  37.7758553  28.3692753  85.0551313  36.7838553  27.8512753  84.2631313
  37.1208553  27.9492753  84.9641313  40.2838553  23.0522753  81.8271313
  41.1298553  22.8622753  81.9251313  39.9138553  22.2752753  81.6891313
  40.3538553  22.9092753  81.8211313  52.9008553  34.6362753  76.1541313
  53.5948553  34.1692753  75.9061313  52.3618553  34.0382753  76.4911313
  52.9238553  34.4782753  76.1671313  35.1048553  24.3902753  78.4821313
  35.5938553  24.0982753  79.1431313  35.2338553  23.7972753  77.8551313
  35.1958553  24.2592753  78.4871313  50.1398553  27.4122753  85.3331313
  50.1328553  26.6362753  85.7311313  49.2988553  27.6462753  85.3261313
  50.0148553  27.3322753  85.3911313  39.6298553  25.8242753  73.9681313
  39.0198553  25.4192753  74.4421313  39.2438553  25.9422753  73.1951313
  39.4828553  25.7812753  73.9241313  51.3958553  27.4832753  82.7701313
  51.1098553  27.8842753  83.4901313  52.2558553  27.4212753  82.8971313
  51.4808553  27.5332753  82.8951313  41.0848553  24.2852753  76.6781313
  41.3568553  25.1112753  76.7451313  40.2218553  24.3602753  76.5821313
  40.9978553  24.4182753  76.6731313  34.5648553  20.2552753  83.2141313
  34.6088553  20.5992753  82.4131313  35.3198553  20.4922753  83.5811313
  34.6828553  20.3412753  83.1501313  52.5268553  33.1162753  83.2991313
  52.8168553  33.3732753  82.5181313  53.2218553  33.2122753  83.8181313
  52.6728553  33.1682753  83.2601313  49.1318553  31.7192753  75.2811313
  49.4658553  30.9132753  75.3161313  48.3768553  31.6472753  75.7111313
  49.0698553  31.5892753  75.3501313  49.6138553  23.5532753  80.9401313
  48.8688553  23.2302753  81.2581313  49.6158553  24.3792753  81.2201313
  49.5038553  23.6272753  81.0281313  52.0538553  29.5132753  88.6921313
  52.6818553  28.9642753  88.4361313  51.9928553  30.0782753  88.0301313
  52.1378553  29.5162753  88.5561313  46.5058553  29.5942753  74.6841313
  47.1898553  29.0802753  74.5151313  46.0888553  29.6402753  73.9191313
  46.5448553  29.5252753  74.5461313  41.1878553  30.7442753  85.9881313
  40.8898553  31.3362753  86.5551313  41.2428553  31.1862753  85.2391313
  41.1518553  30.8972753  85.9611313  48.5258553  19.8832753  88.4011313
  49.2698553  20.3352753  88.3381313  47.9598553  20.3532753  87.9321313
  48.5528553  20.0202753  88.3231313  43.7038553  27.1672753  85.4791313
  44.1798553  27.5412753  86.1071313  42.8808553  27.3012753  85.7381313
  43.6528553  27.2422753  85.6101313  40.4138553  22.7702753  88.2201313
  40.5748553  22.0262753  88.6471313  40.3688553  22.5212753  87.3851313
  40.4308553  22.6232753  88.1601313  42.9678553  34.5602753  80.7071313
  43.5138553  35.2392753  80.7611313  42.6178553  34.6422753  79.9121313
  42.9968553  34.6732753  80.5971313  49.8108553  17.8632753  86.0711313
  49.5308553  18.6882753  86.0271313  50.5268553  17.9162753  86.5671313
  49.8758553  17.9932753  86.1381313  42.1658553  18.5782753  88.1001313
  42.8708553  18.8982753  87.6981313  42.4068553  17.7712753  88.3271313
  42.3048553  18.5062753  88.0741313  41.1508553  32.7882753  84.0961313
  40.5268553  33.3702753  83.9141313  41.3988553  32.5022753  83.3101313
  41.0948553  32.8322753  83.9531313  51.2318553  24.1182753  74.9281313
  51.6098553  24.7952753  74.5281313  50.3898553  24.3422753  74.9591313
  51.1628553  24.2512753  74.8731313  42.7448553  27.5642753  74.0111313
  41.9398553  27.3872753  73.7261313  42.7118553  28.4152753  74.2031313
  42.6208553  27.6632753  73.9981313  38.6748553  23.6312753  84.1611313
  39.1148553  23.5282753  83.4151313  39.2198553  23.3182753  84.7661313
  38.8198553  23.5702753  84.1401313  46.3788553  24.2702753  86.0511313
  46.6808553  24.6902753  86.7541313  46.4148553  23.4302753  86.2831313
  46.4288553  24.2082753  86.1891313  48.9268553  23.7172753  78.3031313
  49.1338553  23.5162753  79.1271313  49.6828553  23.9852753  77.9611313
  49.0688553  23.7272753  78.3741313  42.2218553  18.6162753  84.2081313
  41.3958553  18.4672753  84.4451313  42.1818553  18.6512753  83.3371313
  42.0938553  18.5992753  84.1141313  49.9488553  19.8002753  79.7771313
  49.2348553  19.3292753  79.9481313  49.7868553  20.1412753  78.9911313
  49.8198553  19.7812753  79.6861313  50.3918553  27.7442753  78.1571313
  50.8678553  27.0152753  78.1091313  49.5708553  27.4582753  78.0811313
  50.3408553  27.5942753  78.1381313  39.6928553  35.8632753  84.3131313
  39.7038553  35.9222753  85.1831313  39.2678553  35.1162753  84.1631313
  39.6318553  35.7612753  84.4191313  37.8508553  21.7582753  77.4681313
  37.9768553  21.4292753  76.6701313  37.0388553  21.5092753  77.6671313
  37.7498553  21.6732753  77.3801313  46.6078553  28.9112753  80.5121313
  46.6838553  29.2522753  81.3111313  46.7768553  28.0642753  80.6331313
  46.6438553  28.8362753  80.6481313  44.1298553  28.1852753  80.0771313
  43.8318553  27.8702753  80.8341313  44.8248553  28.6582753  80.3121313
  44.1888553  28.2082753  80.2241313  44.3518553  32.3032753  88.1041313
  45.0388553  32.1892753  88.6291313  44.4858553  33.0942753  87.7601313
  44.4728553  32.4032753  88.1311313  47.0408553  25.5772753  88.4911313
  46.7858553  24.8582753  88.9131313  47.8618553  25.6932753  88.7611313
  47.1248553  25.4882753  88.5931313  48.0588553  35.1412753  82.6071313
  47.6078553  35.7842753  82.9861313  48.7668553  35.0622753  83.1121313
  48.0968553  35.2242753  82.7381313  44.7598553  30.2312753  85.5371313
  44.0658553  30.6332753  85.8801313  45.4368553  30.6642753  85.8761313
  44.7568553  30.3542753  85.6381313  37.8278553  23.7692753  87.8841313
  38.2028553  24.3882753  87.3971313  38.5018553  23.2952753  88.1691313
  37.9828553  23.7912753  87.8541313  35.6028553  22.2172753  87.1591313
  35.6798553  22.0482753  86.3061313  36.3488553  22.6232753  87.3561313
  35.7238553  22.2522753  87.0621313  51.1618553  24.8572753  77.5991313
  51.2648553  24.7992753  76.7351313  51.9028553  24.5252753  77.9171313
  51.2868553  24.8002753  77.5181313  45.0818553  31.8222753  78.7061313
  44.8768553  32.6552753  78.5471313  44.3068553  31.4402753  78.8281313
  44.9368553  31.8892753  78.7011313  50.2638553  25.0032753  86.9551313
  50.2618553  24.1402753  87.0791313  50.3308553  25.3272753  87.7621313
  50.2738553  24.9232753  87.0921313  34.9998553  27.4432753  87.3831313
  35.3198553  27.6622753  86.6021313  34.8998553  26.5782753  87.3281313
  35.0318553  27.3482753  87.2601313  36.4558553  23.3792753  74.0011313
  35.7838553  23.3932753  74.5571313  36.5508553  22.5312753  73.8171313
  36.3708553  23.2562753  74.0561313  45.1368553  19.9932753  81.5911313
  44.4368553  20.5112753  81.5351313  45.1748553  19.6132753  80.8071313
  45.0388553  20.0142753  81.4671313  40.4438553  32.0842753  75.1151313
  40.8848553  32.1642753  75.8631313  39.6388553  31.8682753  75.3731313
  40.3898553  32.0642753  75.2641313  48.7348553  20.5092753  84.3911313
  49.5898553  20.6082753  84.5361313  48.3658553  21.0622753  84.9561313
  48.8068553  20.6062753  84.4961313  39.7628553  26.7352753  88.7681313
  39.3668553  27.5092753  88.8431313  39.3568553  26.3622753  88.0921313
  39.6448553  26.7942753  88.6791313  49.0388553  25.7892753  82.8821313
  49.7048553  26.3302753  83.0421313  48.6938553  26.1002753  82.1431313
  49.0858553  25.9152753  82.7971313  49.3518553  33.8552753  78.6891313
  49.1778553  33.2012753  79.2391313  50.0648553  33.5842753  78.2661313
  49.4318553  33.7182753  78.7081313  37.7728553  31.1542753  75.7161313
  37.5288553  30.8472753  76.4961313  37.7398553  30.4512753  75.2001313
  37.7318553  31.0052753  75.7551313  40.5918553  29.3992753  74.4591313
  39.7738553  29.1312753  74.5991313  40.5638553  30.2512753  74.6441313
  40.4668553  29.4862753  74.5071313  40.1918553  19.7122753  86.2181313
  39.3278553  19.7962753  86.2981313  40.4118553  19.1982753  86.8871313
  40.0968553  19.6492753  86.3291313  52.2098553  18.3472753  87.5471313
  52.1578553  18.3032753  88.4171313  52.8968553  17.8442753  87.3571313
  52.3038553  18.2672753  87.6471313  44.2948553  20.4602753  84.5921313
  43.5578553  20.0062753  84.7051313  44.8658553  20.0582753  85.1151313
  44.2698553  20.3332753  84.6861313  47.0268553  31.3082753  86.3801313
  47.2328553  31.6092753  87.1721313  46.9658553  32.0302753  85.8951313
  47.0478553  31.4592753  86.4251313  51.8388553  29.9472753  85.8381313
  51.8068553  29.0852753  85.7031313  51.1458553  30.2492753  85.4041313
  51.7318553  29.8642753  85.7541313  49.9438553  33.2072753  84.6351313
  50.4708553  33.1242753  83.9441313  49.5528553  32.4292753  84.6891313
  49.9638553  33.0802753  84.5411313  37.4118553  19.7952753  86.8661313
  37.0688553  19.0282753  86.6321313  36.7168553  20.3192753  86.9301313
  37.2588553  19.7592753  86.8411313  46.4578553  18.6512753  83.8431313
  47.1278553  19.1952753  83.9701313  45.9548553  19.0752753  83.2701313
  46.4828553  18.7942753  83.7771313  45.8168553  24.4592753  81.3361313
  46.3678553  23.8522753  81.6361313  45.3918553  24.7222753  82.0511313
  45.8358553  24.4082753  81.4851313  36.0648553  23.1092753  80.8221313
  35.6968553  23.4112753  81.5531313  36.5988553  22.4802753  81.1061313
  36.0888553  23.0612753  80.9721313  35.7528553  31.5172753  88.3331313
  35.1788553  31.9332753  88.8421313  36.4858553  31.9822753  88.4281313
  35.7768553  31.6472753  88.4221313  47.7868553  26.2902753  77.8981313
  47.8548553  25.4402753  78.0791313  46.9638553  26.3762753  77.6201313
  47.6748553  26.1772753  77.8841313  37.5388553  34.7842753  77.1081313
  37.3938553  34.9402753  76.2621313  38.4048553  34.8632753  77.1861313
  37.6458553  34.8192753  76.9951313  41.7058553  27.1812753  76.8361313
  41.8058553  27.3202753  75.9811313  42.5238553  27.1212753  77.1321313
  41.8408553  27.1922753  76.7531313  50.8658553  35.2452753  74.3161313
  51.5028553  35.1112753  74.8971313  50.5248553  34.4512753  74.1991313
  50.9098553  35.1082753  74.3841313  46.9408553  31.5102753  76.6381313
  46.6898553  31.3822753  77.4641313  46.6238553  30.8152753  76.2171313
  46.8568553  31.3892753  76.6981313  51.5848553  23.1682753  84.7581313
  50.7518553  23.4182753  84.6861313  51.5288553  22.3282753  84.9871313
  51.4538553  23.0812753  84.7811313  38.2258553  33.5992753  83.5851313
  38.1468553  32.7892753  83.2691313  37.7818553  34.0862753  83.0131313
  38.1488553  33.5512753  83.4541313  43.8268553  29.7182753  76.0681313
  44.5438553  29.3712753  75.7121313  43.7928553  30.5182753  75.7201313
  43.9278553  29.7852753  75.9641313  35.7978553  35.8432753  87.1661313
  36.2908553  35.7872753  87.8841313  35.9858553  35.1102753  86.7311313
  35.8988553  35.7262753  87.2081313  45.2358553  18.3592753  60.3068903
  44.9908553  18.8472753  59.6268903  46.0988553  18.2862753  60.2068903
  45.3268553  18.4202753  60.1918903  51.1888553  32.7162753  57.9488903
  51.8898553  32.1972753  57.9448903  50.6018553  32.2712753  57.4798903
  51.2058553  32.5732753  57.8788903  34.6568553  23.2072753  56.9408903
  33.8788553  23.3692753  56.5808903  34.6958553  22.3362753  56.9628903
  34.5478553  23.1022753  56.8908903  47.7158553  26.3422753  61.6538903
  47.7958553  26.3462753  60.7848903  47.1318553  25.7102753  61.8028903
  47.6408553  26.2492753  61.5478903  41.7048553  19.4462753  59.4618903
  41.6348553  20.1232753  58.9158903  42.4458553  19.0582753  59.2128903
  41.8038553  19.4892753  59.3438903  41.4278553  29.6752753  71.7558903
  41.1918553  29.6722753  72.5958903  40.6798553  29.5272753  71.3318903
  41.2818553  29.6522753  71.8168903  41.4098553  32.8672753  69.0188903
  41.5478553  33.6272753  68.6118903  42.2008553  32.5022753  69.0458903
  41.5468553  32.9262753  68.9628903  44.5298553  24.3322753  71.0738903
  43.6818553  24.2332753  70.8958903  44.5588553  25.0772753  71.5278903
  44.4088553  24.4282753  71.1148903  38.8978553  19.8652753  60.1798903
  38.6018553  20.3662753  59.5298903  39.7648553  19.9432753  60.1228903
  38.9818553  19.9512753  60.0758903  49.0878553  17.2922753  70.1878903
  48.9298553  18.0612753  69.8058903  48.3158553  17.0722753  70.5318903
  48.9498553  17.3732753  70.1828903  41.8768553  19.0072753  62.4028903
  41.9498553  19.8672753  62.5318903  41.8388553  18.9322753  61.5348903
  41.8818553  19.1232753  62.2938903  46.5498553  21.9332753  54.7018903
  46.0998553  22.6142753  55.0088903  46.6638553  21.4292753  55.4048903
  46.5008553  21.9592753  54.8508903  46.6488553  34.2742753  56.8058903
  47.3758553  34.7462753  56.9078903  46.8778553  33.4802753  57.0858903
  46.7908553  34.2272753  56.8628903  44.8168553  34.6662753  58.7958903
  45.0308553  35.1932753  59.4578903  45.5838553  34.4922753  58.4168903
  44.9618553  34.7182753  58.8378903  37.7848553  19.2492753  64.3948903
  37.2638553  18.6212753  64.0868903  38.3758553  18.8122753  64.8658903
  37.7958553  19.0912753  64.4188903  41.0908553  21.3822753  73.6928903
  41.2078553  20.9282753  72.9568903  41.3788553  22.1802753  73.4898903
  41.1508553  21.4332753  73.5538903  51.9438553  21.9062753  60.9968903
  51.5978553  22.5842753  61.4228903  51.3078553  21.3082753  61.0128903
  51.7988553  21.9182753  61.0618903  47.2558553  34.6762753  67.1008903
  47.9998553  35.1322753  67.0908903  47.1348553  34.4622753  66.2638903
  47.3478553  34.7122753  66.9758903  36.8238553  20.9792753  72.6768903
  36.0458553  20.5892753  72.6048903  37.3148553  20.5672753  72.0858903
  36.7808553  20.8602753  72.5788903  43.4728553  18.6222753  71.8448903
  43.6508553  17.8132753  71.5698903  43.3298553  19.0632753  71.1058903
  43.4778553  18.5682753  71.6948903  44.0668553  23.5482753  60.6178903
  44.3538553  23.3162753  59.8278903  44.7988553  23.6272753  61.0868903
  44.2168553  23.5252753  60.5708903  44.7888553  23.8872753  55.7388903
  45.0698553  24.6752753  55.9878903  44.0128553  24.0522753  55.3758903
  44.7158553  24.0282753  55.7218903  48.8298553  35.8612753  57.2058903
  49.4948553  35.7132753  56.6608903  49.1898553  35.7782753  57.9958903
  48.9818553  35.8272753  57.2418903  39.2578553  35.3702753  68.2708903
  39.5498553  35.3032753  69.0908903  38.6318553  34.7652753  68.2258903
  39.2088553  35.2712753  68.3858903  51.6188553  20.2292753  66.3658903
  52.3758553  20.3012753  65.9378903  51.6818553  19.4562753  66.7648903
  51.7398553  20.1262753  66.3608903  34.1718553  21.5272753  70.2628903
  34.1678553  22.1142753  70.9088903  34.7658553  21.8392753  69.7058903
  34.2588553  21.6602753  70.2758903  46.5098553  31.8612753  70.8048903
  46.4758553  32.2432753  71.5888903  47.3638553  31.8192753  70.6338903
  46.6308553  31.9112753  70.8958903  43.6478553  32.0582753  55.5548903
  43.4668553  32.6032753  56.2118903  44.4138553  32.3482753  55.2538903
  43.7338553  32.1822753  55.6078903  47.1548553  19.9542753  56.6088903
  47.6948553  19.2722753  56.6848903  47.2168553  20.3522753  57.3828903
  47.2438553  19.9122753  56.7348903  35.1088553  21.1222753  59.1778903
  34.9948553  20.2582753  59.2088903  34.6338553  21.4162753  59.8478903
  35.0218553  21.0382753  59.2808903  44.4128553  22.3302753  57.9228903
  43.9048553  21.6682753  57.6688903  44.4648553  22.8342753  57.2128903
  44.3458553  22.3072753  57.7808903  44.9618553  35.0252753  68.3028903
  45.7298553  34.9452753  67.8968903  44.3788553  34.9042753  67.6648903
  44.9888553  34.9952753  68.1488903  44.4128553  19.2712753  57.8138903
  43.9578553  18.8692753  57.1878903  45.1858553  19.4262753  57.4388903
  44.4598553  19.2352753  57.6658903  51.2388553  35.6282753  61.2038903
  50.7838553  36.3452753  61.4048903  50.6248553  35.0572753  60.9618903
  51.0808553  35.6502753  61.1978903  43.0108553  21.6382753  62.3358903
  43.0848553  22.2062753  61.6778903  43.1318553  22.1302753  63.0458903
  43.0388553  21.7952753  62.3438903  48.2358553  31.4732753  60.7478903
  48.9368553  30.9912753  60.9368903  47.5758553  30.9042753  60.7928903
  48.2418553  31.3182753  60.7818903  37.6188553  17.4612753  60.6838903
  38.1548553  18.1492753  60.6738903  37.6218553  17.1872753  59.8558903
  37.6978553  17.5222753  60.5598903  46.8028553  21.8082753  68.2238903
  46.7078553  22.1272753  69.0298903  46.2098553  21.1692753  68.1858903
  46.7008553  21.7602753  68.3378903  47.5018553  28.5272753  66.4288903
  46.9878553  28.1152753  66.9998903  47.3758553  29.3712753  66.6098903
  47.4078553  28.5912753  66.5398903  48.0588553  17.7522753  61.0598903
  48.1078553  17.4342753  61.8708903  48.3818553  17.1082753  60.5668903
  48.1138553  17.6102753  61.1068903  34.1458553  32.2032753  73.5098903
  34.9018553  32.5522753  73.7678903  34.3228553  31.3502753  73.4528903
  34.2838553  32.1282753  73.5398903  50.5228553  21.9882753  69.3678903
  51.2948553  21.7632753  69.7048903  50.0478553  22.2052753  70.0678903
  50.5668553  21.9872753  69.5208903  38.0668553  21.2712753  62.3378903
  38.3388553  20.8412753  61.6298903  37.8908553  20.6352753  62.9088903
  38.0808553  21.1142753  62.3178903  50.7548553  28.9662753  56.5558903
  50.8738553  28.6792753  57.3708903  51.5618553  28.9872753  56.2258903
  50.8908553  28.9272753  56.6278903  36.2078553  22.3732753  65.4198903
  37.0508553  22.5932753  65.3768903  35.8188553  22.9462753  64.8888903
  36.2748553  22.4902753  65.3348903  52.9888553  33.4752753  70.8098903
  52.3068553  33.7852753  70.3628903  52.6198553  33.0172753  71.4548903
  52.8328553  33.4532753  70.8388903  48.6498553  25.5032753  56.1408903
  48.4298553  26.2342753  55.7188903  48.2018553  25.5542753  56.8878903
  48.5508553  25.6182753  56.1888903  52.8368553  20.3642753  55.5938903
  52.1748553  19.7962753  55.6168903  52.6438553  20.8762753  54.9138903
  52.7108553  20.3562753  55.4968903  42.0618553  24.0582753  73.5378903
  41.5778553  24.6352753  73.9798903  42.0338553  24.3532753  72.7168903
  41.9858553  24.1872753  73.4818903  53.1598553  24.7422753  68.1498903
  53.3748553  23.9422753  67.8738903  52.3098553  24.8022753  67.9608903
  53.0658553  24.6332753  68.0808903  50.8388553  19.9222753  57.8728903
  51.5848553  19.5152753  58.0718903  51.1018553  20.6372753  57.4478903
  50.9878553  19.9682753  57.8398903  47.2928553  22.2102753  62.9458903
  47.6368553  22.3622753  63.7328903  46.8398553  21.4722753  63.0588903
  47.2768553  22.1232753  63.0788903  41.7688553  21.4302753  57.4028903
  41.7668553  21.3132753  56.5378903  41.5878553  22.2782753  57.4948903
  41.7418553  21.5382753  57.2888903  50.8228553  33.8572753  68.8998903
  50.1518553  34.3712753  69.1178903  50.8858553  33.9572753  68.0358903
  50.7328553  33.9482753  68.8048903  37.6368553  24.8652753  71.8968903
  37.1008553  24.3592753  72.3648903  37.6568553  24.4752753  71.1168903
  37.5598553  24.7322753  71.8508903  48.6138553  23.5422753  65.4998903
  47.9518553  23.8702753  65.9628903  48.8008553  24.1762753  64.9308903
  48.5438553  23.6842753  65.4838903  45.2588553  19.4482753  68.9288903
  45.4078553  18.6232753  68.6858903  45.6378553  19.5032753  69.7128903
  45.3368553  19.3342753  69.0088903  46.8068553  21.5112753  59.0108903
  47.2968553  22.2282753  58.9338903  46.0168553  21.7722753  58.7478903
  46.7628553  21.6552753  58.9608903  36.5178553  27.1842753  72.6628903
  36.4808553  27.6852753  71.9488903  36.8488553  26.4322753  72.3678903
  36.5608553  27.1462753  72.5138903  48.1208553  29.3892753  70.9208903
  48.6048553  30.1072753  71.0188903  48.5148553  28.9622753  70.2698903
  48.2508553  29.4322753  70.8388903  42.4168553  32.2342753  72.0978903
  42.7708553  32.0562753  72.8748903  41.9808553  31.5052753  71.8988903
  42.4048553  32.1002753  72.1838903  50.5498553  30.0202753  60.9908903
  50.9058553  29.6702753  61.7058903  50.5418553  29.3592753  60.4208903
  50.6018553  29.8702753  61.0118903  40.1708553  18.4922753  56.6708903
  40.2678553  18.3852753  57.5318903  39.4628553  18.9982753  56.6058903
  40.0808553  18.5512753  56.7888903  42.7918553  34.2652753  57.0848903
  43.4138553  34.4282753  57.6748903  42.8278553  34.9562753  56.5528903
  42.8888553  34.3912753  57.0938903  49.8678553  27.9352753  69.0808903
  49.9228553  28.0602753  68.2188903  50.6208553  28.2552753  69.3828903
  49.9868553  28.0002753  68.9978903  46.0588553  33.2842753  73.3578903
  46.2228553  33.5672753  74.1668903  46.3218553  33.9452753  72.8528903
  46.1218553  33.4242753  73.4028903  50.8998553  18.2332753  72.0678903
  50.2628553  17.8332753  71.6258903  50.9258553  17.8022753  72.8258903
  50.8098553  18.1112753  72.1138903  45.5988553  27.7412753  68.6808903
  45.4438553  28.3512753  69.2848903  46.1328553  27.1832753  69.0868903
  45.6548553  27.7492753  68.8298903  34.2898553  18.4602753  58.8818903
  34.4188553  17.7522753  58.3898903  33.9228553  18.1422753  59.6068903
  34.2548553  18.3082753  58.9168903  43.9828553  26.1412753  59.3388903
  44.0418553  26.7912753  59.9178903  43.7938553  25.4452753  59.8298903
  43.9638553  26.1342753  59.4968903  49.2088553  30.4702753  65.2078903
  48.7298553  30.7682753  64.5418903  48.8528553  29.6942753  65.3858903
  49.0858553  30.3992753  65.1358903  38.4788553  20.6582753  55.8508903
  37.9678553  20.7112753  55.1448903  39.2628553  20.8982753  55.5548903
  38.5188553  20.7012753  55.7028903  52.9008553  34.6362753  57.1478903
  53.5948553  34.1692753  56.8998903  52.3618553  34.0382753  57.4848903
  52.9238553  34.4782753  57.1608903  50.1398553  27.4122753  66.3268903
  50.1328553  26.6362753  66.7248903  49.2988553  27.6462753  66.3198903
  50.0148553  27.3322753  66.3848903  39.6298553  25.8242753  54.9618903
  39.0198553  25.4192753  55.4358903  39.2438553  25.9422753  54.1888903
  39.4828553  25.7812753  54.9178903  36.4488553  28.9332753  70.3638903
  36.0278553  28.4152753  69.8028903  36.0968553  29.7192753  70.2208903
  36.3348553  28.9732753  70.2598903  51.3958553  27.4832753  63.7638903
  51.1098553  27.8842753  64.4838903  52.2558553  27.4212753  63.8908903
  51.4808553  27.5332753  63.8888903  41.0848553  24.2852753  57.6718903
  41.3568553  25.1112753  57.7388903  40.2218553  24.3602753  57.5758903
  40.9978553  24.4182753  57.6668903  49.0578553  21.4072753  72.3038903
  48.5328553  21.8662753  72.8278903  48.6968553  20.6122753  72.2978903
  48.9268553  21.3572753  72.3798903  34.5648553  20.2552753  64.2078903
  34.6088553  20.5992753  63.4068903  35.3198553  20.4922753  64.5748903
  34.6828553  20.3412753  64.1438903  52.5268553  33.1162753  64.2928903
  52.8168553  33.3732753  63.5118903  53.2218553  33.2122753  64.8118903
  52.6728553  33.1682753  64.2538903  49.8178553  25.2952753  70.7448903
  50.1368553  26.0812753  70.9478903  49.4478553  25.0252753  71.4878903
  49.8108553  25.3712753  70.8848903  49.1318553  31.7192753  56.2748903
  49.4658553  30.9132753  56.3098903  48.3768553  31.6472753  56.7048903
  49.0698553  31.5892753  56.3438903  49.6138553  23.5532753  61.9338903
  48.8688553  23.2302753  62.2518903  49.6158553  24.3792753  62.2138903
  49.5038553  23.6272753  62.0218903  52.5158553  25.8372753  73.4798903
  52.4638553  25.4962753  72.6788903  53.2528553  26.3042753  73.4578903
  52.6168553  25.8562753  73.3578903  52.0538553  29.5132753  69.6858903
  52.6818553  28.9642753  69.4298903  51.9928553  30.0782753  69.0238903
  52.1378553  29.5162753  69.5498903  46.5058553  29.5942753  55.6778903
  47.1898553  29.0802753  55.5088903  46.0888553  29.6402753  54.9128903
  46.5448553  29.5252753  55.5398903  39.1668553  29.6942753  70.3798903
  38.3608553  29.4042753  70.5468903  39.0778553  30.5622753  70.3858903
  39.0348553  29.7792753  70.4048903  48.5258553  19.8832753  69.3948903
  49.2698553  20.3352753  69.3318903  47.9598553  20.3532753  68.9258903
  48.5528553  20.0202753  69.3168903  42.1658553  18.5782753  69.0938903
  42.8708553  18.8982753  68.6918903  42.4068553  17.7712753  69.3208903
  42.3048553  18.5062753  69.0678903  45.4598553  29.4222753  72.0788903
  46.2168553  29.7082753  71.7528903  44.9128553  29.4742753  71.4008903
  45.4908553  29.4722753  71.9298903  49.3688553  31.9722753  70.5828903
  49.7148553  32.2422753  71.3368903  49.6628553  32.5542753  70.0028903
  49.4638553  32.0982753  70.6088903  51.2318553  24.1182753  55.9218903
  51.6098553  24.7952753  55.5218903  50.3898553  24.3422753  55.9528903
  51.1628553  24.2512753  55.8668903  42.7448553  27.5642753  55.0048903
  41.9398553  27.3872753  54.7198903  42.7118553  28.4152753  55.1968903
  42.6208553  27.6632753  54.9918903  46.6908553  22.7332753  70.7468903
  46.0428553  23.2032753  71.0948903  47.2558553  22.6442753  71.4058903
  46.6788553  22.7892753  70.8958903  46.3788553  24.2702753  67.0448903
  46.6808553  24.6902753  67.7478903  46.4148553  23.4302753  67.2768903
  46.4288553  24.2082753  67.1828903  43.8038553  34.4372753  70.9698903
  44.2818553  33.8372753  70.5538903  43.4528553  33.9942753  71.6348903
  43.8228553  34.2832753  71.0068903  48.9268553  23.7172753  59.2968903
  49.1338553  23.5162753  60.1208903  49.6828553  23.9852753  58.9548903
  49.0688553  23.7272753  59.3678903  42.2218553  18.6162753  65.2018903
  41.3958553  18.4672753  65.4388903  42.1818553  18.6512753  64.3308903
  42.0938553  18.5992753  65.1078903  49.9488553  19.8002753  60.7708903
  49.2348553  19.3292753  60.9418903  49.7868553  20.1412753  59.9848903
  49.8198553  19.7812753  60.6798903  50.3918553  27.7442753  59.1508903
  50.8678553  27.0152753  59.1028903  49.5708553  27.4582753  59.0748903
  50.3408553  27.5942753  59.1318903  43.8628553  29.6562753  69.9898903
  43.0678553  29.5922753  70.3408903  43.9338553  30.5032753  69.7948903
  43.7558553  29.7712753  70.0128903  34.7868553  19.0142753  71.2368903
  34.6468553  19.8092753  70.9058903  34.0008553  18.7712753  71.5258903
  34.6498553  19.0962753  71.2308903  37.8508553  21.7582753  58.4618903
  37.9768553  21.4292753  57.6638903  37.0388553  21.5092753  58.6608903
  37.7498553  21.6732753  58.3738903  52.5278553  24.9122753  70.9088903
  51.6728553  24.7902753  71.0348903  52.6808553  24.5172753  70.1458903
  52.4238553  24.8352753  70.8148903  47.0408553  25.5772753  69.4848903
  46.7858553  24.8582753  69.9068903  47.8618553  25.6932753  69.7548903
  47.1248553  25.4882753  69.5868903  36.4568553  35.3612753  70.7488903
  35.8028553  34.7922753  70.8468903  36.0818553  36.1342753  70.8998903
  36.3048553  35.3912753  70.7858903  44.9748553  26.7672753  72.6718903
  45.2978553  27.4532753  72.2398903  44.2708553  27.0902753  73.0738903
  44.9178553  26.9162753  72.6668903  48.0588553  35.1412753  63.6008903
  47.6078553  35.7842753  63.9798903  48.7668553  35.0622753  64.1058903
  48.0968553  35.2242753  63.7318903  50.1368553  32.8242753  73.1108903
  50.9128553  32.4342753  73.1938903  49.6678553  32.4882753  73.7658903
  50.1818553  32.7172753  73.2198903  35.6028553  22.2172753  68.1528903
  35.6798553  22.0482753  67.2998903  36.3488553  22.6232753  68.3498903
  35.7238553  22.2522753  68.0558903  51.1618553  24.8572753  58.5928903
  51.2648553  24.7992753  57.7288903  51.9028553  24.5252753  58.9108903
  51.2868553  24.8002753  58.5118903  38.1568553  19.6272753  70.5638903
  38.0758553  18.7832753  70.7698903  37.8428553  19.6712753  69.7508903
  38.0988553  19.5092753  70.4738903  45.0818553  31.8222753  59.6998903
  44.8768553  32.6552753  59.5408903  44.3068553  31.4402753  59.8218903
  44.9368553  31.8892753  59.6948903  50.2638553  25.0032753  67.9488903
  50.2618553  24.1402753  68.0728903  50.3308553  25.3272753  68.7558903
  50.2738553  24.9232753  68.0858903  34.9998553  27.4432753  68.3768903
  35.3198553  27.6622753  67.5958903  34.8998553  26.5782753  68.3218903
  35.0318553  27.3482753  68.2538903  36.4558553  23.3792753  54.9948903
  35.7838553  23.3932753  55.5508903  36.5508553  22.5312753  54.8108903
  36.3708553  23.2562753  55.0498903  46.1428553  19.8032753  71.7308903
  46.2348553  20.5152753  72.2248903  45.5058553  19.3582753  72.1278903
  46.0618553  19.8422753  71.8628903  45.1368553  19.9932753  62.5848903
  44.4368553  20.5112753  62.5288903  45.1748553  19.6132753  61.8008903
  45.0388553  20.0142753  62.4608903  48.7348553  20.5092753  65.3848903
  49.5898553  20.6082753  65.5298903  48.3658553  21.0622753  65.9498903
  48.8068553  20.6062753  65.4898903  49.0388553  25.7892753  63.8758903
  49.7048553  26.3302753  64.0358903  48.6938553  26.1002753  63.1368903
  49.0858553  25.9152753  63.7908903  49.3518553  33.8552753  59.6828903
  49.1778553  33.2012753  60.2328903  50.0648553  33.5842753  59.2598903
  49.4318553  33.7182753  59.7018903  40.5918553  29.3992753  55.4528903
  39.7738553  29.1312753  55.5928903  40.5638553  30.2512753  55.6378903
  40.4668553  29.4862753  55.5008903  40.1918553  19.7122753  67.2118903
  39.3278553  19.7962753  67.2918903  40.4118553  19.1982753  67.8808903
  40.0968553  19.6492753  67.3228903  52.2098553  18.3472753  68.5408903
  52.1578553  18.3032753  69.4108903  52.8968553  17.8442753  68.3508903
  52.3038553  18.2672753  68.6408903  44.2948553  20.4602753  65.5858903
  43.5578553  20.0062753  65.6988903  44.8658553  20.0582753  66.1088903
  44.2698553  20.3332753  65.6798903  47.0268553  31.3082753  67.3738903
  47.2328553  31.6092753  68.1658903  46.9658553  32.0302753  66.8888903
  47.0478553  31.4592753  67.4188903  46.5608553  35.5222753  71.6198903
  45.8078553  35.5042753  71.1788903  46.7288553  36.3742753  71.7038903
  46.4748553  35.6452753  71.5668903  41.7978553  24.7892753  70.7898903
  41.4758553  24.2132753  70.2198903  41.4388553  25.5442753  70.5438903
  41.6978553  24.8152753  70.6698903  42.5938553  18.0412753  55.4168903
  42.6718553  18.2882753  54.5838903  41.8508553  18.4182753  55.6748903
  42.4958553  18.1332753  55.3318903  51.8388553  29.9472753  66.8318903
  51.8068553  29.0852753  66.6968903  51.1458553  30.2492753  66.3978903
  51.7318553  29.8642753  66.7478903  40.2328553  35.1452753  71.0378903
  40.2738553  35.2712753  71.9008903  40.8838553  34.5852753  70.8818903
  40.3348553  35.0812753  71.1428903  49.9438553  33.2072753  65.6288903
  50.4708553  33.1242753  64.9378903  49.5528553  32.4292753  65.6828903
  49.9638553  33.0802753  65.5348903  37.4118553  19.7952753  67.8598903
  37.0688553  19.0282753  67.6258903  36.7168553  20.3192753  67.9238903
  37.2588553  19.7592753  67.8348903  46.4578553  18.6512753  64.8368903
  47.1278553  19.1952753  64.9638903  45.9548553  19.0752753  64.2638903
  46.4828553  18.7942753  64.7708903  37.8258553  33.5282753  72.3978903
  38.4208553  33.9592753  72.8698903  37.4618553  34.1522753  71.9088903
  37.8598553  33.6842753  72.3948903  45.8168553  24.4592753  62.3298903
  46.3678553  23.8522753  62.6298903  45.3918553  24.7222753  63.0448903
  45.8358553  24.4082753  62.4788903  47.7868553  26.2902753  58.8918903
  47.8548553  25.4402753  59.0728903  46.9638553  26.3762753  58.6138903
  47.6748553  26.1772753  58.8778903  41.7058553  27.1812753  57.8298903
  41.8058553  27.3202753  56.9748903  42.5238553  27.1212753  58.1258903
  41.8408553  27.1922753  57.7468903  50.8658553  35.2452753  55.3098903
  51.5028553  35.1112753  55.8908903  50.5248553  34.4512753  55.1928903
  50.9098553  35.1082753  55.3778903  51.0608553  27.6632753  72.0428903
  51.6948553  27.4932753  72.6168903  51.4778553  28.0662753  71.3908903
  51.2158553  27.6982753  72.0318903  46.9408553  31.5102753  57.6318903
  46.6898553  31.3822753  58.4578903  46.6238553  30.8152753  57.2108903
  46.8568553  31.3892753  57.6918903  51.6858553  22.2272753  72.7808903
  51.4898553  22.8712753  73.3358903  50.9638553  21.7372753  72.7728903
  51.5508553  22.2502753  72.8618903  51.5848553  23.1682753  65.7518903
  50.7518553  23.4182753  65.6798903  51.5288553  22.3282753  65.9808903
  51.4538553  23.0812753  65.7748903  40.8448553  20.1562753  70.9458903
  41.0788553  19.5802753  70.3328903  40.0028553  19.9752753  71.0868903
  40.7548553  20.0442753  70.8758903  48.4718553  27.7742753  73.3978903
  49.3428553  27.7382753  73.3618903  48.2528553  28.1942753  72.6658903
  48.5688553  27.8302753  73.2848903  43.8268553  29.7182753  57.0618903
  44.5438553  29.3712753  56.7058903  43.7928553  30.5182753  56.7138903
  43.9278553  29.7852753  56.9578903  35.7978553  35.8432753  68.1598903
  36.2908553  35.7872753  68.8778903  35.9858553  35.1102753  67.7248903
  35.8988553  35.7262753  68.2018903  45.2358553  18.3592753  41.3006493
  44.9908553  18.8472753  40.6206493  46.0988553  18.2862753  41.2006493
  45.3268553  18.4202753  41.1856493  45.0448553  25.2752753  45.9716493
  44.5208553  25.8712753  46.3346493  45.4418553  24.9072753  46.6556493
  45.0258553  25.3092753  46.1266493  34.9138553  29.4152753  41.4276493
  34.4728553  29.5332753  42.1706493  34.6308553  28.6402753  41.1426493
  34.8068553  29.3182753  41.4956493  51.1888553  32.7162753  38.9426493
  51.8898553  32.1972753  38.9386493  50.6018553  32.2712753  38.4736493
  51.2058553  32.5732753  38.8726493  34.6568553  23.2072753  37.9346493
  33.8788553  23.3692753  37.5746493  34.6958553  22.3362753  37.9566493
  34.5478553  23.1022753  37.8846493  37.7958553  28.4702753  36.6066493
  37.4038553  28.0992753  35.9206493  37.7158553  27.8722753  37.2356493
  37.7258553  28.3272753  36.5976493  47.7158553  26.3422753  42.6476493
  47.7958553  26.3462753  41.7786493  47.1318553  25.7102753  42.7966493
  47.6408553  26.2492753  42.5416493  37.4228553  30.1112753  40.5066493
  38.0308553  29.9412753  41.1096493  36.6718553  29.9712753  40.9276493
  37.4018553  30.0652753  40.6576493  41.7048553  19.4462753  40.4556493
  41.6348553  20.1232753  39.9096493  42.4458553  19.0582753  40.2066493
  41.8038553  19.4892753  40.3376493  36.2998553  26.6712753  41.8846493
  35.8378553  26.2792753  41.2576493  36.9998553  26.1582753  41.9766493
  36.3348553  26.5382753  41.8056493  40.8078553  22.2812753  47.2316493
  41.4858553  22.2992753  46.6826493  40.7628553  21.4452753  47.4766493
  40.9008553  22.1602753  47.1866493  41.4098553  32.8672753  50.0126493
  41.5478553  33.6272753  49.6056493  42.2008553  32.5022753  50.0396493
  41.5468553  32.9262753  49.9566493  38.3008553  24.7712753  41.9076493
  39.1178553  24.5842753  42.1506493  37.8238553  24.1572753  42.3036493
  38.3508553  24.6532753  42.0026493  42.5048553  30.7522753  44.5176493
  42.8528553  29.9532753  44.5476493  43.1698553  31.2562753  44.2626493
  42.6548553  30.7082753  44.4846493  42.5618553  30.2012753  40.7286493
  42.8928553  29.5572753  41.2146493  42.8018553  29.9902753  39.9176493
  42.6458553  30.0752753  40.6806493  44.5298553  24.3322753  52.0676493
  43.6818553  24.2332753  51.8896493  44.5588553  25.0772753  52.5216493
  44.4088553  24.4282753  52.1086493  38.8978553  19.8652753  41.1736493
  38.6018553  20.3662753  40.5236493  39.7648553  19.9432753  41.1166493
  38.9818553  19.9512753  41.0696493  49.0878553  17.2922753  51.1816493
  48.9298553  18.0612753  50.7996493  48.3158553  17.0722753  51.5256493
  48.9498553  17.3732753  51.1766493  41.8768553  19.0072753  43.3966493
  41.9498553  19.8672753  43.5256493  41.8388553  18.9322753  42.5286493
  41.8818553  19.1232753  43.2876493  46.5498553  21.9332753  35.6956493
  46.0998553  22.6142753  36.0026493  46.6638553  21.4292753  36.3986493
  46.5008553  21.9592753  35.8446493  34.7558553  24.4322753  44.8976493
  34.4998553  25.2632753  44.8226493  34.0918553  24.0492753  45.3146493
  34.6198553  24.4982753  44.9486493  34.6658553  34.1422753  42.7976493
  34.0738553  34.7002753  42.4846493  35.0918553  33.8732753  42.0856493
  34.6418553  34.1842753  42.6466493  40.5058553  31.9862753  40.2776493
  39.9268553  31.7112753  40.8696493  41.1298553  31.3772753  40.3026493
  40.5128553  31.8562753  40.3686493  46.6488553  34.2742753  37.7996493
  47.3758553  34.7462753  37.9016493  46.8778553  33.4802753  38.0796493
  46.7908553  34.2272753  37.8566493  44.8168553  34.6662753  39.7896493
  45.0308553  35.1932753  40.4516493  45.5838553  34.4922753  39.4106493
  44.9618553  34.7182753  39.8316493  37.7848553  19.2492753  45.3886493
  37.2638553  18.6212753  45.0806493  38.3758553  18.8122753  45.8596493
  37.7958553  19.0912753  45.4126493  41.0908553  21.3822753  54.6866493
  41.2078553  20.9282753  53.9506493  41.3788553  22.1802753  54.4836493
  41.1508553  21.4332753  54.5476493  51.9438553  21.9062753  41.9906493
  51.5978553  22.5842753  42.4166493  51.3078553  21.3082753  42.0066493
  51.7988553  21.9182753  42.0556493  47.2558553  34.6762753  48.0946493
  47.9998553  35.1322753  48.0846493  47.1348553  34.4622753  47.2576493
  47.3478553  34.7122753  47.9696493  36.8238553  20.9792753  53.6706493
  36.0458553  20.5892753  53.5986493  37.3148553  20.5672753  53.0796493
  36.7808553  20.8602753  53.5726493  37.0288553  31.2992753  44.2286493
  37.4518553  30.9432753  43.5546493  37.3528553  30.8772753  44.9206493
  37.1388553  31.1842753  44.2316493  40.2598553  34.1512753  43.5246493
  41.1038553  34.2552753  43.3296493  39.9628553  34.9692753  43.5926493
  40.3408553  34.2872753  43.5056493  43.4728553  18.6222753  52.8386493
  43.6508553  17.8132753  52.5636493  43.3298553  19.0632753  52.0996493
  43.4778553  18.5682753  52.6886493  44.0668553  23.5482753  41.6116493
  44.3538553  23.3162753  40.8216493  44.7988553  23.6272753  42.0806493
  44.2168553  23.5252753  41.5646493  44.7888553  23.8872753  36.7326493
  45.0698553  24.6752753  36.9816493  44.0128553  24.0522753  36.3696493
  44.7158553  24.0282753  36.7156493  48.8298553  35.8612753  38.1996493
  49.4948553  35.7132753  37.6546493  49.1898553  35.7782753  38.9896493
  48.9818553  35.8272753  38.2356493  51.6188553  20.2292753  47.3596493
  52.3758553  20.3012753  46.9316493  51.6818553  19.4562753  47.7586493
  51.7398553  20.1262753  47.3546493  34.1718553  21.5272753  51.2566493
  34.1678553  22.1142753  51.9026493  34.7658553  21.8392753  50.6996493
  34.2588553  21.6602753  51.2696493  46.5098553  31.8612753  51.7986493
  46.4758553  32.2432753  52.5826493  47.3638553  31.8192753  51.6276493
  46.6308553  31.9112753  51.8896493  43.6478553  32.0582753  36.5486493
  43.4668553  32.6032753  37.2056493  44.4138553  32.3482753  36.2476493
  43.7338553  32.1822753  36.6016493  47.1548553  19.9542753  37.6026493
  47.6948553  19.2722753  37.6786493  47.2168553  20.3522753  38.3766493
  47.2438553  19.9122753  37.7286493  35.1088553  21.1222753  40.1716493
  34.9948553  20.2582753  40.2026493  34.6338553  21.4162753  40.8416493
  35.0218553  21.0382753  40.2746493  44.4128553  22.3302753  38.9166493
  43.9048553  21.6682753  38.6626493  44.4648553  22.8342753  38.2066493
  44.3458553  22.3072753  38.7746493  44.9618553  35.0252753  49.2966493
  45.7298553  34.9452753  48.8906493  44.3788553  34.9042753  48.6586493
  44.9888553  34.9952753  49.1426493  44.4128553  19.2712753  38.8076493
  43.9578553  18.8692753  38.1816493  45.1858553  19.4262753  38.4326493
  44.4598553  19.2352753  38.6596493  51.2388553  35.6282753  42.1976493
  50.7838553  36.3452753  42.3986493  50.6248553  35.0572753  41.9556493
  51.0808553  35.6502753  42.1916493  43.0108553  21.6382753  43.3296493
  43.0848553  22.2062753  42.6716493  43.1318553  22.1302753  44.0396493
  43.0388553  21.7952753  43.3376493  48.2358553  31.4732753  41.7416493
  48.9368553  30.9912753  41.9306493  47.5758553  30.9042753  41.7866493
  48.2418553  31.3182753  41.7756493  37.6188553  17.4612753  41.6776493
  38.1548553  18.1492753  41.6676493  37.6218553  17.1872753  40.8496493
  37.6978553  17.5222753  41.5536493  40.5748553  27.8942753  45.7026493
  40.7468553  27.6842753  46.5316493  39.9198553  27.3602753  45.4866493
  40.5038553  27.7842753  45.7936493  46.8028553  21.8082753  49.2176493
  46.7078553  22.1272753  50.0236493  46.2098553  21.1692753  49.1796493
  46.7008553  21.7602753  49.3316493  41.3248553  27.8322753  48.2926493
  41.3778553  28.6792753  48.4946493  41.0398553  27.4622753  49.0296493
  41.2908553  27.9022753  48.4306493  47.5018553  28.5272753  47.4226493
  46.9878553  28.1152753  47.9936493  47.3758553  29.3712753  47.6036493
  47.4078553  28.5912753  47.5336493  48.0588553  17.7522753  42.0536493
  48.1078553  17.4342753  42.8646493  48.3818553  17.1082753  41.5606493
  48.1138553  17.6102753  42.1006493  50.5228553  21.9882753  50.3616493
  51.2948553  21.7632753  50.6986493  50.0478553  22.2052753  51.0616493
  50.5668553  21.9872753  50.5146493  38.0668553  21.2712753  43.3316493
  38.3388553  20.8412753  42.6236493  37.8908553  20.6352753  43.9026493
  38.0808553  21.1142753  43.3116493  50.7548553  28.9662753  37.5496493
  50.8738553  28.6792753  38.3646493  51.5618553  28.9872753  37.2196493
  50.8908553  28.9272753  37.6216493  37.8908553  28.6982753  42.8806493
  38.7418553  28.6182753  42.7076493  37.5338553  28.0162753  42.4686493
  37.9638553  28.5852753  42.7936493  36.6578553  35.4232753  44.1176493
  35.9848553  34.9252753  43.8726493  37.0608553  35.6082753  43.3666493
  36.6178553  35.3772753  43.9706493  36.2078553  22.3732753  46.4136493
  37.0508553  22.5932753  46.3706493  35.8188553  22.9462753  45.8826493
  36.2748553  22.4902753  46.3286493  52.9888553  33.4752753  51.8036493
  52.3068553  33.7852753  51.3566493  52.6198553  33.0172753  52.4486493
  52.8328553  33.4532753  51.8326493  48.6498553  25.5032753  37.1346493
  48.4298553  26.2342753  36.7126493  48.2018553  25.5542753  37.8816493
  48.5508553  25.6182753  37.1826493  40.2588553  28.7052753  41.1156493
  40.9718553  29.2002753  41.2056493  40.4808553  28.1382753  40.4896493
  40.3968553  28.6942753  41.0366493  52.8368553  20.3642753  36.5876493
  52.1748553  19.7962753  36.6106493  52.6438553  20.8762753  35.9076493
  52.7108553  20.3562753  36.4906493  34.4148553  30.3482753  44.4356493
  33.7478553  30.8362753  44.7116493  35.0948553  30.8932753  44.4646493
  34.4168553  30.5002753  44.4806493  42.0618553  24.0582753  54.5316493
  41.5778553  24.6352753  54.9736493  42.0338553  24.3532753  53.7106493
  41.9858553  24.1872753  54.4756493  53.1598553  24.7422753  49.1436493
  53.3748553  23.9422753  48.8676493  52.3098553  24.8022753  48.9546493
  53.0658553  24.6332753  49.0746493  50.8388553  19.9222753  38.8666493
  51.5848553  19.5152753  39.0656493  51.1018553  20.6372753  38.4416493
  50.9878553  19.9682753  38.8336493  44.7818553  32.4082753  43.4426493
  44.2588553  33.0422753  43.1496493  45.0918553  32.0442753  42.7136493
  44.7498553  32.4482753  43.2916493  38.8568553  30.1962753  46.2026493
  39.3238553  30.4852753  46.8806493  39.4288553  29.7182753  45.7486493
  39.0108553  30.1682753  46.2356493  47.2928553  22.2102753  43.9396493
  47.6368553  22.3622753  44.7266493  46.8398553  21.4722753  44.0526493
  47.2768553  22.1232753  44.0726493  35.4228553  27.8662753  44.7466493
  35.8538553  27.7372753  43.9996493  35.2178553  28.7142753  44.7206493
  35.4558553  27.9722753  44.6326493  41.7688553  21.4302753  38.3966493
  41.7668553  21.3132753  37.5316493  41.5878553  22.2782753  38.4886493
  41.7418553  21.5382753  38.2826493  50.8228553  33.8572753  49.8936493
  50.1518553  34.3712753  50.1116493  50.8858553  33.9572753  49.0296493
  50.7328553  33.9482753  49.7986493  39.5068553  31.3822753  43.0286493
  39.6328553  32.2252753  43.2156493  40.1748553  30.9832753  43.4246493
  39.6248553  31.4482753  43.1146493  37.6368553  24.8652753  52.8906493
  37.1008553  24.3592753  53.3586493  37.6568553  24.4752753  52.1106493
  37.5598553  24.7322753  52.8446493  38.1218553  24.2622753  38.0306493
  37.9938553  23.8142753  38.7686493  37.5398553  23.9202753  37.4786493
  38.0168553  24.1452753  38.0586493  38.2888553  26.0922753  44.6296493
  37.5078553  26.0332753  44.2466493  38.3608553  25.3402753  45.0666493
  38.1838553  25.9732753  44.6376493  38.7188553  25.8292753  48.0976493
  38.7438553  25.1542753  47.5466493  38.0728553  26.3252753  47.7856493
  38.6278553  25.8022753  47.9706493  48.6138553  23.5422753  46.4936493
  47.9518553  23.8702753  46.9566493  48.8008553  24.1762753  45.9246493
  48.5438553  23.6842753  46.4776493  42.8188553  34.6062753  47.4896493
  42.5418553  33.9652753  46.9666493  42.6108553  35.3322753  47.0516493
  42.7478553  34.6192753  47.3476493  45.2588553  19.4482753  49.9226493
  45.4078553  18.6232753  49.6796493  45.6378553  19.5032753  50.7066493
  45.3368553  19.3342753  50.0026493  46.8068553  21.5112753  40.0046493
  47.2968553  22.2282753  39.9276493  46.0168553  21.7722753  39.7416493
  46.7628553  21.6552753  39.9546493  48.1208553  29.3892753  51.9146493
  48.6048553  30.1072753  52.0126493  48.5148553  28.9622753  51.2636493
  48.2508553  29.4322753  51.8326493  42.4168553  32.2342753  53.0916493
  42.7708553  32.0562753  53.8686493  41.9808553  31.5052753  52.8926493
  42.4048553  32.1002753  53.1776493  43.3888553  22.9812753  45.7296493
  43.8688553  23.6802753  45.9376493  43.7618553  22.3342753  46.1806493
  43.5148553  22.9892753  45.8266493  45.5778553  26.1502753  38.0036493
  45.5698553  26.8722753  37.5136493  44.9388553  26.2852753  38.5806493
  45.4828553  26.2772753  38.0166493  50.5498553  30.0202753  41.9846493
  50.9058553  29.6702753  42.6996493  50.5418553  29.3592753  41.4146493
  50.6018553  29.8702753  42.0056493  46.5948553  33.0862753  45.8286493
  45.9918553  32.7902753  45.2716493  47.1398553  33.5382753  45.3196493
  46.5858553  33.1092753  45.6706493  46.6078553  29.9372753  45.2286493
  45.8108553  30.1612753  45.5026493  46.8658553  29.3432753  45.8136493
  46.5278553  29.8822753  45.3556493  40.4998553  34.7492753  39.6766493
  40.3528553  33.9732753  40.0476493  41.1888553  34.6022753  39.1616493
  40.5798553  34.6122753  39.6556493  40.1708553  18.4922753  37.6646493
  40.2678553  18.3852753  38.5256493  39.4628553  18.9982753  37.5996493
  40.0808553  18.5512753  37.7826493  42.7918553  34.2652753  38.0786493
  43.4138553  34.4282753  38.6686493  42.8278553  34.9562753  37.5466493
  42.8888553  34.3912753  38.0876493  49.8678553  27.9352753  50.0746493
  49.9228553  28.0602753  49.2126493  50.6208553  28.2552753  50.3766493
  49.9868553  28.0002753  49.9916493  46.0588553  33.2842753  54.3516493
  46.2228553  33.5672753  55.1606493  46.3218553  33.9452753  53.8466493
  46.1218553  33.4242753  54.3966493  50.8998553  18.2332753  53.0616493
  50.2628553  17.8332753  52.6196493  50.9258553  17.8022753  53.8196493
  50.8098553  18.1112753  53.1076493  37.2928553  26.7992753  38.9076493
  37.6168553  26.0202753  38.6856493  37.9388553  27.1672753  39.3626493
  37.4358553  26.7382753  38.9416493  45.5988553  27.7412753  49.6746493
  45.4438553  28.3512753  50.2786493  46.1328553  27.1832753  50.0806493
  45.6548553  27.7492753  49.8236493  34.2898553  18.4602753  39.8756493
  34.4188553  17.7522753  39.3836493  33.9228553  18.1422753  40.6006493
  34.2548553  18.3082753  39.9106493  43.9828553  26.1412753  40.3326493
  44.0418553  26.7912753  40.9116493  43.7938553  25.4452753  40.8236493
  43.9638553  26.1342753  40.4906493  49.2088553  30.4702753  46.2016493
  48.7298553  30.7682753  45.5356493  48.8528553  29.6942753  46.3796493
  49.0858553  30.3992753  46.1296493  38.4788553  20.6582753  36.8446493
  37.9678553  20.7112753  36.1386493  39.2628553  20.8982753  36.5486493
  38.5188553  20.7012753  36.6966493  43.2058553  28.1882753  44.7636493
  42.3588553  27.9942753  44.8446493  43.5298553  28.0232753  45.5566493
  43.1278553  28.1352753  44.8926493  39.9578553  34.9182753  35.6496493
  40.3968553  34.2212753  35.9376493  40.1648553  35.5422753  36.2226493
  40.0538553  34.9072753  35.7766493  37.0538553  27.8812753  47.0796493
  37.7758553  28.3692753  47.0426493  36.7838553  27.8512753  46.2506493
  37.1208553  27.9492753  46.9516493  40.2838553  23.0522753  43.8146493
  41.1298553  22.8622753  43.9126493  39.9138553  22.2752753  43.6766493
  40.3538553  22.9092753  43.8086493  52.9008553  34.6362753  38.1416493
  53.5948553  34.1692753  37.8936493  52.3618553  34.0382753  38.4786493
  52.9238553  34.4782753  38.1546493  35.1048553  24.3902753  40.4696493
  35.5938553  24.0982753  41.1306493  35.2338553  23.7972753  39.8426493
  35.1958553  24.2592753  40.4746493  50.1398553  27.4122753  47.3206493
  50.1328553  26.6362753  47.7186493  49.2988553  27.6462753  47.3136493
  50.0148553  27.3322753  47.3786493  39.6298553  25.8242753  35.9556493
  39.0198553  25.4192753  36.4296493  39.2438553  25.9422753  35.1826493
  39.4828553  25.7812753  35.9116493  51.3958553  27.4832753  44.7576493
  51.1098553  27.8842753  45.4776493  52.2558553  27.4212753  44.8846493
  51.4808553  27.5332753  44.8826493  41.0848553  24.2852753  38.6656493
  41.3568553  25.1112753  38.7326493  40.2218553  24.3602753  38.5696493
  40.9978553  24.4182753  38.6606493  49.0578553  21.4072753  53.2976493
  48.5328553  21.8662753  53.8216493  48.6968553  20.6122753  53.2916493
  48.9268553  21.3572753  53.3736493  34.5648553  20.2552753  45.2016493
  34.6088553  20.5992753  44.4006493  35.3198553  20.4922753  45.5686493
  34.6828553  20.3412753  45.1376493  52.5268553  33.1162753  45.2866493
  52.8168553  33.3732753  44.5056493  53.2218553  33.2122753  45.8056493
  52.6728553  33.1682753  45.2476493  47.5498553  24.9762753  53.3736493
  47.6228553  25.0802753  54.2366493  46.9158553  25.5342753  53.1526493
  47.4668553  25.0742753  53.4686493  49.8178553  25.2952753  51.7386493
  50.1368553  26.0812753  51.9416493  49.4478553  25.0252753  52.4816493
  49.8108553  25.3712753  51.8786493  49.1318553  31.7192753  37.2686493
  49.4658553  30.9132753  37.3036493  48.3768553  31.6472753  37.6986493
  49.0698553  31.5892753  37.3376493  49.6138553  23.5532753  42.9276493
  48.8688553  23.2302753  43.2456493  49.6158553  24.3792753  43.2076493
  49.5038553  23.6272753  43.0156493  52.5158553  25.8372753  54.4736493
  52.4638553  25.4962753  53.6726493  53.2528553  26.3042753  54.4516493
  52.6168553  25.8562753  54.3516493  52.0538553  29.5132753  50.6796493
  52.6818553  28.9642753  50.4236493  51.9928553  30.0782753  50.0176493
  52.1378553  29.5162753  50.5436493  46.5058553  29.5942753  36.6716493
  47.1898553  29.0802753  36.5026493  46.0888553  29.6402753  35.9066493
  46.5448553  29.5252753  36.5336493  48.5258553  19.8832753  50.3886493
  49.2698553  20.3352753  50.3256493  47.9598553  20.3532753  49.9196493
  48.5528553  20.0202753  50.3106493  43.7038553  27.1672753  47.4666493
  44.1798553  27.5412753  48.0946493  42.8808553  27.3012753  47.7256493
  43.6528553  27.2422753  47.5976493  40.4138553  22.7702753  50.2076493
  40.5748553  22.0262753  50.6346493  40.3688553  22.5212753  49.3726493
  40.4308553  22.6232753  50.1476493  42.9678553  34.5602753  42.6946493
  43.5138553  35.2392753  42.7486493  42.6178553  34.6422753  41.8996493
  42.9968553  34.6732753  42.5846493  49.8108553  17.8632753  48.0586493
  49.5308553  18.6882753  48.0146493  50.5268553  17.9162753  48.5546493
  49.8758553  17.9932753  48.1256493  42.1658553  18.5782753  50.0876493
  42.8708553  18.8982753  49.6856493  42.4068553  17.7712753  50.3146493
  42.3048553  18.5062753  50.0616493  41.1508553  32.7882753  46.0836493
  40.5268553  33.3702753  45.9016493  41.3988553  32.5022753  45.2976493
  41.0948553  32.8322753  45.9406493  45.4598553  29.4222753  53.0726493
  46.2168553  29.7082753  52.7466493  44.9128553  29.4742753  52.3946493
  45.4908553  29.4722753  52.9236493  49.3688553  31.9722753  51.5766493
  49.7148553  32.2422753  52.3306493  49.6628553  32.5542753  50.9966493
  49.4638553  32.0982753  51.6026493  51.2318553  24.1182753  36.9156493
  51.6098553  24.7952753  36.5156493  50.3898553  24.3422753  36.9466493
  51.1628553  24.2512753  36.8606493  42.7448553  27.5642753  35.9986493
  41.9398553  27.3872753  35.7136493  42.7118553  28.4152753  36.1906493
  42.6208553  27.6632753  35.9856493  38.6748553  23.6312753  46.1486493
  39.1148553  23.5282753  45.4026493  39.2198553  23.3182753  46.7536493
  38.8198553  23.5702753  46.1276493  46.6908553  22.7332753  51.7406493
  46.0428553  23.2032753  52.0886493  47.2558553  22.6442753  52.3996493
  46.6788553  22.7892753  51.8896493  46.3788553  24.2702753  48.0386493
  46.6808553  24.6902753  48.7416493  46.4148553  23.4302753  48.2706493
  46.4288553  24.2082753  48.1766493  43.8038553  34.4372753  51.9636493
  44.2818553  33.8372753  51.5476493  43.4528553  33.9942753  52.6286493
  43.8228553  34.2832753  52.0006493  48.9268553  23.7172753  40.2906493
  49.1338553  23.5162753  41.1146493  49.6828553  23.9852753  39.9486493
  49.0688553  23.7272753  40.3616493  42.2218553  18.6162753  46.1956493
  41.3958553  18.4672753  46.4326493  42.1818553  18.6512753  45.3246493
  42.0938553  18.5992753  46.1016493  49.9488553  19.8002753  41.7646493
  49.2348553  19.3292753  41.9356493  49.7868553  20.1412753  40.9786493
  49.8198553  19.7812753  41.6736493  50.3918553  27.7442753  40.1446493
  50.8678553  27.0152753  40.0966493  49.5708553  27.4582753  40.0686493
  50.3408553  27.5942753  40.1256493  43.8628553  29.6562753  50.9836493
  43.0678553  29.5922753  51.3346493  43.9338553  30.5032753  50.7886493
  43.7558553  29.7712753  51.0066493  34.7868553  19.0142753  52.2306493
  34.6468553  19.8092753  51.8996493  34.0008553  18.7712753  52.5196493
  34.6498553  19.0962753  52.2246493  39.6928553  35.8632753  46.3006493
  39.7038553  35.9222753  47.1706493  39.2678553  35.1162753  46.1506493
  39.6318553  35.7612753  46.4066493  37.8508553  21.7582753  39.4556493
  37.9768553  21.4292753  38.6576493  37.0388553  21.5092753  39.6546493
  37.7498553  21.6732753  39.3676493  46.6078553  28.9112753  42.4996493
  46.6838553  29.2522753  43.2986493  46.7768553  28.0642753  42.6206493
  46.6438553  28.8362753  42.6356493  44.1298553  28.1852753  42.0646493
  43.8318553  27.8702753  42.8216493  44.8248553  28.6582753  42.2996493
  44.1888553  28.2082753  42.2116493  44.3518553  32.3032753  50.0916493
  45.0388553  32.1892753  50.6166493  44.4858553  33.0942753  49.7476493
  44.4728553  32.4032753  50.1186493  52.5278553  24.9122753  51.9026493
  51.6728553  24.7902753  52.0286493  52.6808553  24.5172753  51.1396493
  52.4238553  24.8352753  51.8086493  47.0408553  25.5772753  50.4786493
  46.7858553  24.8582753  50.9006493  47.8618553  25.6932753  50.7486493
  47.1248553  25.4882753  50.5806493  44.9748553  26.7672753  53.6656493
  45.2978553  27.4532753  53.2336493  44.2708553  27.0902753  54.0676493
  44.9178553  26.9162753  53.6606493  48.0588553  35.1412753  44.5946493
  47.6078553  35.7842753  44.9736493  48.7668553  35.0622753  45.0996493
  48.0968553  35.2242753  44.7256493  44.7598553  30.2312753  47.5246493
  44.0658553  30.6332753  47.8676493  45.4368553  30.6642753  47.8636493
  44.7568553  30.3542753  47.6256493  50.1368553  32.8242753  54.1046493
  50.9128553  32.4342753  54.1876493  49.6678553  32.4882753  54.7596493
  50.1818553  32.7172753  54.2136493  37.8278553  23.7692753  49.8716493
  38.2028553  24.3882753  49.3846493  38.5018553  23.2952753  50.1566493
  37.9828553  23.7912753  49.8416493  35.6028553  22.2172753  49.1466493
  35.6798553  22.0482753  48.2936493  36.3488553  22.6232753  49.3436493
  35.7238553  22.2522753  49.0496493  51.1618553  24.8572753  39.5866493
  51.2648553  24.7992753  38.7226493  51.9028553  24.5252753  39.9046493
  51.2868553  24.8002753  39.5056493  38.1568553  19.6272753  51.5576493
  38.0758553  18.7832753  51.7636493  37.8428553  19.6712753  50.7446493
  38.0988553  19.5092753  51.4676493  45.0818553  31.8222753  40.6936493
  44.8768553  32.6552753  40.5346493  44.3068553  31.4402753  40.8156493
  44.9368553  31.8892753  40.6886493  50.2638553  25.0032753  48.9426493
  50.2618553  24.1402753  49.0666493  50.3308553  25.3272753  49.7496493
  50.2738553  24.9232753  49.0796493  34.9998553  27.4432753  49.3706493
  35.3198553  27.6622753  48.5896493  34.8998553  26.5782753  49.3156493
  35.0318553  27.3482753  49.2476493  36.4558553  23.3792753  35.9886493
  35.7838553  23.3932753  36.5446493  36.5508553  22.5312753  35.8046493
  36.3708553  23.2562753  36.0436493  46.1428553  19.8032753  52.7246493
  46.2348553  20.5152753  53.2186493  45.5058553  19.3582753  53.1216493
  46.0618553  19.8422753  52.8566493  45.1368553  19.9932753  43.5786493
  44.4368553  20.5112753  43.5226493  45.1748553  19.6132753  42.7946493
  45.0388553  20.0142753  43.4546493  40.4438553  32.0842753  37.1026493
  40.8848553  32.1642753  37.8506493  39.6388553  31.8682753  37.3606493
  40.3898553  32.0642753  37.2516493  48.7348553  20.5092753  46.3786493
  49.5898553  20.6082753  46.5236493  48.3658553  21.0622753  46.9436493
  48.8068553  20.6062753  46.4836493  49.0388553  25.7892753  44.8696493
  49.7048553  26.3302753  45.0296493  48.6938553  26.1002753  44.1306493
  49.0858553  25.9152753  44.7846493  49.3518553  33.8552753  40.6766493
  49.1778553  33.2012753  41.2266493  50.0648553  33.5842753  40.2536493
  49.4318553  33.7182753  40.6956493  37.7728553  31.1542753  37.7036493
  37.5288553  30.8472753  38.4836493  37.7398553  30.4512753  37.1876493
  37.7318553  31.0052753  37.7426493  40.5918553  29.3992753  36.4466493
  39.7738553  29.1312753  36.5866493  40.5638553  30.2512753  36.6316493
  40.4668553  29.4862753  36.4946493  40.1918553  19.7122753  48.2056493
  39.3278553  19.7962753  48.2856493  40.4118553  19.1982753  48.8746493
  40.0968553  19.6492753  48.3166493  52.2098553  18.3472753  49.5346493
  52.1578553  18.3032753  50.4046493  52.8968553  17.8442753  49.3446493
  52.3038553  18.2672753  49.6346493  44.2948553  20.4602753  46.5796493
  43.5578553  20.0062753  46.6926493  44.8658553  20.0582753  47.1026493
  44.2698553  20.3332753  46.6736493  47.0268553  31.3082753  48.3676493
  47.2328553  31.6092753  49.1596493  46.9658553  32.0302753  47.8826493
  47.0478553  31.4592753  48.4126493  46.5608553  35.5222753  52.6136493
  45.8078553  35.5042753  52.1726493  46.7288553  36.3742753  52.6976493
  46.4748553  35.6452753  52.5606493  41.7978553  24.7892753  51.7836493
  41.4758553  24.2132753  51.2136493  41.4388553  25.5442753  51.5376493
  41.6978553  24.8152753  51.6636493  42.5938553  18.0412753  36.4106493
  42.6718553  18.2882753  35.5776493  41.8508553  18.4182753  36.6686493
  42.4958553  18.1332753  36.3256493  51.8388553  29.9472753  47.8256493
  51.8068553  29.0852753  47.6906493  51.1458553  30.2492753  47.3916493
  51.7318553  29.8642753  47.7416493  49.9438553  33.2072753  46.6226493
  50.4708553  33.1242753  45.9316493  49.5528553  32.4292753  46.6766493
  49.9638553  33.0802753  46.5286493  37.4118553  19.7952753  48.8536493
  37.0688553  19.0282753  48.6196493  36.7168553  20.3192753  48.9176493
  37.2588553  19.7592753  48.8286493  46.4578553  18.6512753  45.8306493
  47.1278553  19.1952753  45.9576493  45.9548553  19.0752753  45.2576493
  46.4828553  18.7942753  45.7646493  45.8168553  24.4592753  43.3236493
  46.3678553  23.8522753  43.6236493  45.3918553  24.7222753  44.0386493
  45.8358553  24.4082753  43.4726493  36.0648553  23.1092753  42.8096493
  35.6968553  23.4112753  43.5406493  36.5988553  22.4802753  43.0936493
  36.0888553  23.0612753  42.9596493  47.7868553  26.2902753  39.8856493
  47.8548553  25.4402753  40.0666493  46.9638553  26.3762753  39.6076493
  47.6748553  26.1772753  39.8716493  37.5388553  34.7842753  39.0956493
  37.3938553  34.9402753  38.2496493  38.4048553  34.8632753  39.1736493
  37.6458553  34.8192753  38.9826493  41.7058553  27.1812753  38.8236493
  41.8058553  27.3202753  37.9686493  42.5238553  27.1212753  39.1196493
  41.8408553  27.1922753  38.7406493  50.8658553  35.2452753  36.3036493
  51.5028553  35.1112753  36.8846493  50.5248553  34.4512753  36.1866493
  50.9098553  35.1082753  36.3716493  51.0608553  27.6632753  53.0366493
  51.6948553  27.4932753  53.6106493  51.4778553  28.0662753  52.3846493
  51.2158553  27.6982753  53.0256493  46.9408553  31.5102753  38.6256493
  46.6898553  31.3822753  39.4516493  46.6238553  30.8152753  38.2046493
  46.8568553  31.3892753  38.6856493  51.6858553  22.2272753  53.7746493
  51.4898553  22.8712753  54.3296493  50.9638553  21.7372753  53.7666493
  51.5508553  22.2502753  53.8556493  51.5848553  23.1682753  46.7456493
  50.7518553  23.4182753  46.6736493  51.5288553  22.3282753  46.9746493
  51.4538553  23.0812753  46.7686493  40.8448553  20.1562753  51.9396493
  41.0788553  19.5802753  51.3266493  40.0028553  19.9752753  52.0806493
  40.7548553  20.0442753  51.8696493  48.4718553  27.7742753  54.3916493
  49.3428553  27.7382753  54.3556493  48.2528553  28.1942753  53.6596493
  48.5688553  27.8302753  54.2786493  38.2258553  33.5992753  45.5726493
  38.1468553  32.7892753  45.2566493  37.7818553  34.0862753  45.0006493
  38.1488553  33.5512753  45.4416493  43.8268553  29.7182753  38.0556493
  44.5438553  29.3712753  37.6996493  43.7928553  30.5182753  37.7076493
  43.9278553  29.7852753  37.9516493  45.2358553  18.3592753  22.2944083
  44.9908553  18.8472753  21.6144083  46.0988553  18.2862753  22.1944083
  45.3268553  18.4202753  22.1794083  45.0448553  25.2752753  26.9654083
  44.5208553  25.8712753  27.3284083  45.4418553  24.9072753  27.6494083
  45.0258553  25.3092753  27.1204083  34.9138553  29.4152753  22.4214083
  34.4728553  29.5332753  23.1644083  34.6308553  28.6402753  22.1364083
  34.8068553  29.3182753  22.4894083  51.1888553  32.7162753  19.9364083
  51.8898553  32.1972753  19.9324083  50.6018553  32.2712753  19.4674083
  51.2058553  32.5732753  19.8664083  34.6568553  23.2072753  18.9284083
  33.8788553  23.3692753  18.5684083  34.6958553  22.3362753  18.9504083
  34.5478553  23.1022753  18.8784083  37.7958553  28.4702753  17.6004083
  37.4038553  28.0992753  16.9144083  37.7158553  27.8722753  18.2294083
  37.7258553  28.3272753  17.5914083  47.7158553  26.3422753  23.6414083
  47.7958553  26.3462753  22.7724083  47.1318553  25.7102753  23.7904083
  47.6408553  26.2492753  23.5354083  37.4228553  30.1112753  21.5004083
  38.0308553  29.9412753  22.1034083  36.6718553  29.9712753  21.9214083
  37.4018553  30.0652753  21.6514083  41.7048553  19.4462753  21.4494083
  41.6348553  20.1232753  20.9034083  42.4458553  19.0582753  21.2004083
  41.8038553  19.4892753  21.3314083  36.3138553  33.2022753  17.5774083
  36.7808553  33.2862753  16.8454083  36.7688553  32.6242753  18.0464083
  36.4498553  33.1292753  17.5384083  36.2998553  26.6712753  22.8784083
  35.8378553  26.2792753  22.2514083  36.9998553  26.1582753  22.9704083
  36.3348553  26.5382753  22.7994083  40.8078553  22.2812753  28.2254083
  41.4858553  22.2992753  27.6764083  40.7628553  21.4452753  28.4704083
  40.9008553  22.1602753  28.1804083  38.3008553  24.7712753  22.9014083
  39.1178553  24.5842753  23.1444083  37.8238553  24.1572753  23.2974083
  38.3508553  24.6532753  22.9964083  42.5048553  30.7522753  25.5114083
  42.8528553  29.9532753  25.5414083  43.1698553  31.2562753  25.2564083
  42.6548553  30.7082753  25.4784083  42.5618553  30.2012753  21.7224083
  42.8928553  29.5572753  22.2084083  42.8018553  29.9902753  20.9114083
  42.6458553  30.0752753  21.6744083  44.5298553  24.3322753  33.0614083
  43.6818553  24.2332753  32.8834083  44.5588553  25.0772753  33.5154083
  44.4088553  24.4282753  33.1024083  38.8978553  19.8652753  22.1674083
  38.6018553  20.3662753  21.5174083  39.7648553  19.9432753  22.1104083
  38.9818553  19.9512753  22.0634083  49.0878553  17.2922753  32.1754083
  48.9298553  18.0612753  31.7934083  48.3158553  17.0722753  32.5194083
  48.9498553  17.3732753  32.1704083  41.8768553  19.0072753  24.3904083
  41.9498553  19.8672753  24.5194083  41.8388553  18.9322753  23.5224083
  41.8818553  19.1232753  24.2814083  46.5498553  21.9332753  16.6894083
  46.0998553  22.6142753  16.9964083  46.6638553  21.4292753  17.3924083
  46.5008553  21.9592753  16.8384083  34.7558553  24.4322753  25.8914083
  34.4998553  25.2632753  25.8164083  34.0918553  24.0492753  26.3084083
  34.6198553  24.4982753  25.9424083  34.6658553  34.1422753  23.7914083
  34.0738553  34.7002753  23.4784083  35.0918553  33.8732753  23.0794083
  34.6418553  34.1842753  23.6404083  40.5058553  31.9862753  21.2714083
  39.9268553  31.7112753  21.8634083  41.1298553  31.3772753  21.2964083
  40.5128553  31.8562753  21.3624083  46.6488553  34.2742753  18.7934083
  47.3758553  34.7462753  18.8954083  46.8778553  33.4802753  19.0734083
  46.7908553  34.2272753  18.8504083  44.8168553  34.6662753  20.7834083
  45.0308553  35.1932753  21.4454083  45.5838553  34.4922753  20.4044083
  44.9618553  34.7182753  20.8254083  37.7848553  19.2492753  26.3824083
  37.2638553  18.6212753  26.0744083  38.3758553  18.8122753  26.8534083
  37.7958553  19.0912753  26.4064083  41.0908553  21.3822753  35.6804083
  41.2078553  20.9282753  34.9444083  41.3788553  22.1802753  35.4774083
  41.1508553  21.4332753  35.5414083  36.2108553  32.8122753  21.7224083
  36.8668553  32.2372753  21.7374083  36.5998553  33.5612753  21.5014083
  36.3658553  32.8372753  21.6924083  51.9438553  21.9062753  22.9844083
  51.5978553  22.5842753  23.4104083  51.3078553  21.3082753  23.0004083
  51.7988553  21.9182753  23.0494083  47.2558553  34.6762753  29.0884083
  47.9998553  35.1322753  29.0784083  47.1348553  34.4622753  28.2514083
  47.3478553  34.7122753  28.9634083  36.8238553  20.9792753  34.6644083
  36.0458553  20.5892753  34.5924083  37.3148553  20.5672753  34.0734083
  36.7808553  20.8602753  34.5664083  37.0288553  31.2992753  25.2224083
  37.4518553  30.9432753  24.5484083  37.3528553  30.8772753  25.9144083
  37.1388553  31.1842753  25.2254083  40.2598553  34.1512753  24.5184083
  41.1038553  34.2552753  24.3234083  39.9628553  34.9692753  24.5864083
  40.3408553  34.2872753  24.4994083  43.4728553  18.6222753  33.8324083
  43.6508553  17.8132753  33.5574083  43.3298553  19.0632753  33.0934083
  43.4778553  18.5682753  33.6824083  44.0668553  23.5482753  22.6054083
  44.3538553  23.3162753  21.8154083  44.7988553  23.6272753  23.0744083
  44.2168553  23.5252753  22.5584083  44.7888553  23.8872753  17.7264083
  45.0698553  24.6752753  17.9754083  44.0128553  24.0522753  17.3634083
  44.7158553  24.0282753  17.7094083  48.8298553  35.8612753  19.1934083
  49.4948553  35.7132753  18.6484083  49.1898553  35.7782753  19.9834083
  48.9818553  35.8272753  19.2294083  39.2578553  35.3702753  30.2584083
  39.5498553  35.3032753  31.0784083  38.6318553  34.7652753  30.2134083
  39.2088553  35.2712753  30.3734083  51.6188553  20.2292753  28.3534083
  52.3758553  20.3012753  27.9254083  51.6818553  19.4562753  28.7524083
  51.7398553  20.1262753  28.3484083  46.5098553  31.8612753  32.7924083
  46.4758553  32.2432753  33.5764083  47.3638553  31.8192753  32.6214083
  46.6308553  31.9112753  32.8834083  43.6478553  32.0582753  17.5424083
  43.4668553  32.6032753  18.1994083  44.4138553  32.3482753  17.2414083
  43.7338553  32.1822753  17.5954083  47.1548553  19.9542753  18.5964083
  47.6948553  19.2722753  18.6724083  47.2168553  20.3522753  19.3704083
  47.2438553  19.9122753  18.7224083  35.1088553  21.1222753  21.1654083
  34.9948553  20.2582753  21.1964083  34.6338553  21.4162753  21.8354083
  35.0218553  21.0382753  21.2684083  37.2508553  33.5322753  29.3804083
  36.5528553  33.0242753  29.5064083  37.5108553  33.3272753  28.5724083
  37.1858553  33.4272753  29.2794083  44.4128553  22.3302753  19.9104083
  43.9048553  21.6682753  19.6564083  44.4648553  22.8342753  19.2004083
  44.3458553  22.3072753  19.7684083  44.9618553  35.0252753  30.2904083
  45.7298553  34.9452753  29.8844083  44.3788553  34.9042753  29.6524083
  44.9888553  34.9952753  30.1364083  44.4128553  19.2712753  19.8014083
  43.9578553  18.8692753  19.1754083  45.1858553  19.4262753  19.4264083
  44.4598553  19.2352753  19.6534083  51.2388553  35.6282753  23.1914083
  50.7838553  36.3452753  23.3924083  50.6248553  35.0572753  22.9494083
  51.0808553  35.6502753  23.1854083  43.0108553  21.6382753  24.3234083
  43.0848553  22.2062753  23.6654083  43.1318553  22.1302753  25.0334083
  43.0388553  21.7952753  24.3314083  48.2358553  31.4732753  22.7354083
  48.9368553  30.9912753  22.9244083  47.5758553  30.9042753  22.7804083
  48.2418553  31.3182753  22.7694083  37.6188553  17.4612753  22.6714083
  38.1548553  18.1492753  22.6614083  37.6218553  17.1872753  21.8434083
  37.6978553  17.5222753  22.5474083  46.8028553  21.8082753  30.2114083
  46.7078553  22.1272753  31.0174083  46.2098553  21.1692753  30.1734083
  46.7008553  21.7602753  30.3254083  47.5018553  28.5272753  28.4164083
  46.9878553  28.1152753  28.9874083  47.3758553  29.3712753  28.5974083
  47.4078553  28.5912753  28.5274083  48.0588553  17.7522753  23.0474083
  48.1078553  17.4342753  23.8584083  48.3818553  17.1082753  22.5544083
  48.1138553  17.6102753  23.0944083  50.5228553  21.9882753  31.3554083
  51.2948553  21.7632753  31.6924083  50.0478553  22.2052753  32.0554083
  50.5668553  21.9872753  31.5084083  38.0668553  21.2712753  24.3254083
  38.3388553  20.8412753  23.6174083  37.8908553  20.6352753  24.8964083
  38.0808553  21.1142753  24.3054083  50.7548553  28.9662753  18.5434083
  50.8738553  28.6792753  19.3584083  51.5618553  28.9872753  18.2134083
  50.8908553  28.9272753  18.6154083  37.8908553  28.6982753  23.8744083
  38.7418553  28.6182753  23.7014083  37.5338553  28.0162753  23.4624083
  37.9638553  28.5852753  23.7874083  36.6578553  35.4232753  25.1114083
  35.9848553  34.9252753  24.8664083  37.0608553  35.6082753  24.3604083
  36.6178553  35.3772753  24.9644083  36.2078553  22.3732753  27.4074083
  37.0508553  22.5932753  27.3644083  35.8188553  22.9462753  26.8764083
  36.2748553  22.4902753  27.3224083  52.9888553  33.4752753  32.7974083
  52.3068553  33.7852753  32.3504083  52.6198553  33.0172753  33.4424083
  52.8328553  33.4532753  32.8264083  48.6498553  25.5032753  18.1284083
  48.4298553  26.2342753  17.7064083  48.2018553  25.5542753  18.8754083
  48.5508553  25.6182753  18.1764083  40.2588553  28.7052753  22.1094083
  40.9718553  29.2002753  22.1994083  40.4808553  28.1382753  21.4834083
  40.3968553  28.6942753  22.0304083  52.8368553  20.3642753  17.5814083
  52.1748553  19.7962753  17.6044083  52.6438553  20.8762753  16.9014083
  52.7108553  20.3562753  17.4844083  34.4148553  30.3482753  25.4294083
  33.7478553  30.8362753  25.7054083  35.0948553  30.8932753  25.4584083
  34.4168553  30.5002753  25.4744083  42.0618553  24.0582753  35.5254083
  41.5778553  24.6352753  35.9674083  42.0338553  24.3532753  34.7044083
  41.9858553  24.1872753  35.4694083  53.1598553  24.7422753  30.1374083
  53.3748553  23.9422753  29.8614083  52.3098553  24.8022753  29.9484083
  53.0658553  24.6332753  30.0684083  34.4808553  27.0322753  20.5324083
  34.2958553  26.1932753  20.6844083  35.1398553  26.9962753  19.9624083
  34.5508553  26.9032753  20.4704083  50.8388553  19.9222753  19.8604083
  51.5848553  19.5152753  20.0594083  51.1018553  20.6372753  19.4354083
  50.9878553  19.9682753  19.8274083  44.7818553  32.4082753  24.4364083
  44.2588553  33.0422753  24.1434083  45.0918553  32.0442753  23.7074083
  44.7498553  32.4482753  24.2854083  34.6528553  31.1962753  20.1074083
  35.2048553  31.7652753  20.4714083  34.4208553  30.6812753  20.7724083
  34.6998553  31.2042753  20.2594083  47.2928553  22.2102753  24.9334083
  47.6368553  22.3622753  25.7204083  46.8398553  21.4722753  25.0464083
  47.2768553  22.1232753  25.0664083  35.4228553  27.8662753  25.7404083
  35.8538553  27.7372753  24.9934083  35.2178553  28.7142753  25.7144083
  35.4558553  27.9722753  25.6264083  41.7688553  21.4302753  19.3904083
  41.7668553  21.3132753  18.5254083  41.5878553  22.2782753  19.4824083
  41.7418553  21.5382753  19.2764083  50.8228553  33.8572753  30.8874083
  50.1518553  34.3712753  31.1054083  50.8858553  33.9572753  30.0234083
  50.7328553  33.9482753  30.7924083  39.5068553  31.3822753  24.0224083
  39.6328553  32.2252753  24.2094083  40.1748553  30.9832753  24.4184083
  39.6248553  31.4482753  24.1084083  38.1218553  24.2622753  19.0244083
  37.9938553  23.8142753  19.7624083  37.5398553  23.9202753  18.4724083
  38.0168553  24.1452753  19.0524083  38.2888553  26.0922753  25.6234083
  37.5078553  26.0332753  25.2404083  38.3608553  25.3402753  26.0604083
  38.1838553  25.9732753  25.6314083  48.6138553  23.5422753  27.4874083
  47.9518553  23.8702753  27.9504083  48.8008553  24.1762753  26.9184083
  48.5438553  23.6842753  27.4714083  42.8188553  34.6062753  28.4834083
  42.5418553  33.9652753  27.9604083  42.6108553  35.3322753  28.0454083
  42.7478553  34.6192753  28.3414083  45.2588553  19.4482753  30.9164083
  45.4078553  18.6232753  30.6734083  45.6378553  19.5032753  31.7004083
  45.3368553  19.3342753  30.9964083  46.8068553  21.5112753  20.9984083
  47.2968553  22.2282753  20.9214083  46.0168553  21.7722753  20.7354083
  46.7628553  21.6552753  20.9484083  48.1208553  29.3892753  32.9084083
  48.6048553  30.1072753  33.0064083  48.5148553  28.9622753  32.2574083
  48.2508553  29.4322753  32.8264083  42.4168553  32.2342753  34.0854083
  42.7708553  32.0562753  34.8624083  41.9808553  31.5052753  33.8864083
  42.4048553  32.1002753  34.1714083  43.3888553  22.9812753  26.7234083
  43.8688553  23.6802753  26.9314083  43.7618553  22.3342753  27.1744083
  43.5148553  22.9892753  26.8204083  45.5778553  26.1502753  18.9974083
  45.5698553  26.8722753  18.5074083  44.9388553  26.2852753  19.5744083
  45.4828553  26.2772753  19.0104083  50.5498553  30.0202753  22.9784083
  50.9058553  29.6702753  23.6934083  50.5418553  29.3592753  22.4084083
  50.6018553  29.8702753  22.9994083  46.5948553  33.0862753  26.8224083
  45.9918553  32.7902753  26.2654083  47.1398553  33.5382753  26.3134083
  46.5858553  33.1092753  26.6644083  46.6078553  29.9372753  26.2224083
  45.8108553  30.1612753  26.4964083  46.8658553  29.3432753  26.8074083
  46.5278553  29.8822753  26.3494083  40.4998553  34.7492753  20.6704083
  40.3528553  33.9732753  21.0414083  41.1888553  34.6022753  20.1554083
  40.5798553  34.6122753  20.6494083  40.1708553  18.4922753  18.6584083
  40.2678553  18.3852753  19.5194083  39.4628553  18.9982753  18.5934083
  40.0808553  18.5512753  18.7764083  42.7918553  34.2652753  19.0724083
  43.4138553  34.4282753  19.6624083  42.8278553  34.9562753  18.5404083
  42.8888553  34.3912753  19.0814083  49.8678553  27.9352753  31.0684083
  49.9228553  28.0602753  30.2064083  50.6208553  28.2552753  31.3704083
  49.9868553  28.0002753  30.9854083  46.0588553  33.2842753  35.3454083
  46.2228553  33.5672753  36.1544083  46.3218553  33.9452753  34.8404083
  46.1218553  33.4242753  35.3904083  50.8998553  18.2332753  34.0554083
  50.2628553  17.8332753  33.6134083  50.9258553  17.8022753  34.8134083
  50.8098553  18.1112753  34.1014083  37.2928553  26.7992753  19.9014083
  37.6168553  26.0202753  19.6794083  37.9388553  27.1672753  20.3564083
  37.4358553  26.7382753  19.9354083  45.5988553  27.7412753  30.6684083
  45.4438553  28.3512753  31.2724083  46.1328553  27.1832753  31.0744083
  45.6548553  27.7492753  30.8174083  34.2898553  18.4602753  20.8694083
  34.4188553  17.7522753  20.3774083  33.9228553  18.1422753  21.5944083
  34.2548553  18.3082753  20.9044083  43.9828553  26.1412753  21.3264083
  44.0418553  26.7912753  21.9054083  43.7938553  25.4452753  21.8174083
  43.9638553  26.1342753  21.4844083  49.2088553  30.4702753  27.1954083
  48.7298553  30.7682753  26.5294083  48.8528553  29.6942753  27.3734083
  49.0858553  30.3992753  27.1234083  38.4788553  20.6582753  17.8384083
  37.9678553  20.7112753  17.1324083  39.2628553  20.8982753  17.5424083
  38.5188553  20.7012753  17.6904083  43.2058553  28.1882753  25.7574083
  42.3588553  27.9942753  25.8384083  43.5298553  28.0232753  26.5504083
  43.1278553  28.1352753  25.8864083  39.9578553  34.9182753  16.6434083
  40.3968553  34.2212753  16.9314083  40.1648553  35.5422753  17.2164083
  40.0538553  34.9072753  16.7704083  40.2838553  23.0522753  24.8084083
  41.1298553  22.8622753  24.9064083  39.9138553  22.2752753  24.6704083
  40.3538553  22.9092753  24.8024083  52.9008553  34.6362753  19.1354083
  53.5948553  34.1692753  18.8874083  52.3618553  34.0382753  19.4724083
  52.9238553  34.4782753  19.1484083  35.1048553  24.3902753  21.4634083
  35.5938553  24.0982753  22.1244083  35.2338553  23.7972753  20.8364083
  35.1958553  24.2592753  21.4684083  50.1398553  27.4122753  28.3144083
  50.1328553  26.6362753  28.7124083  49.2988553  27.6462753  28.3074083
  50.0148553  27.3322753  28.3724083  39.6298553  25.8242753  16.9494083
  39.0198553  25.4192753  17.4234083  39.2438553  25.9422753  16.1764083
  39.4828553  25.7812753  16.9054083  51.3958553  27.4832753  25.7514083
  51.1098553  27.8842753  26.4714083  52.2558553  27.4212753  25.8784083
  51.4808553  27.5332753  25.8764083  41.0848553  24.2852753  19.6594083
  41.3568553  25.1112753  19.7264083  40.2218553  24.3602753  19.5634083
  40.9978553  24.4182753  19.6544083  49.0578553  21.4072753  34.2914083
  48.5328553  21.8662753  34.8154083  48.6968553  20.6122753  34.2854083
  48.9268553  21.3572753  34.3674083  52.5268553  33.1162753  26.2804083
  52.8168553  33.3732753  25.4994083  53.2218553  33.2122753  26.7994083
  52.6728553  33.1682753  26.2414083  47.5498553  24.9762753  34.3674083
  47.6228553  25.0802753  35.2304083  46.9158553  25.5342753  34.1464083
  47.4668553  25.0742753  34.4624083  49.8178553  25.2952753  32.7324083
  50.1368553  26.0812753  32.9354083  49.4478553  25.0252753  33.4754083
  49.8108553  25.3712753  32.8724083  49.1318553  31.7192753  18.2624083
  49.4658553  30.9132753  18.2974083  48.3768553  31.6472753  18.6924083
  49.0698553  31.5892753  18.3314083  49.6138553  23.5532753  23.9214083
  48.8688553  23.2302753  24.2394083  49.6158553  24.3792753  24.2014083
  49.5038553  23.6272753  24.0094083  52.5158553  25.8372753  35.4674083
  52.4638553  25.4962753  34.6664083  53.2528553  26.3042753  35.4454083
  52.6168553  25.8562753  35.3454083  52.0538553  29.5132753  31.6734083
  52.6818553  28.9642753  31.4174083  51.9928553  30.0782753  31.0114083
  52.1378553  29.5162753  31.5374083  46.5058553  29.5942753  17.6654083
  47.1898553  29.0802753  17.4964083  46.0888553  29.6402753  16.9004083
  46.5448553  29.5252753  17.5274083  48.5258553  19.8832753  31.3824083
  49.2698553  20.3352753  31.3194083  47.9598553  20.3532753  30.9134083
  48.5528553  20.0202753  31.3044083  43.7038553  27.1672753  28.4604083
  44.1798553  27.5412753  29.0884083  42.8808553  27.3012753  28.7194083
  43.6528553  27.2422753  28.5914083  40.4138553  22.7702753  31.2014083
  40.5748553  22.0262753  31.6284083  40.3688553  22.5212753  30.3664083
  40.4308553  22.6232753  31.1414083  42.9678553  34.5602753  23.6884083
  43.5138553  35.2392753  23.7424083  42.6178553  34.6422753  22.8934083
  42.9968553  34.6732753  23.5784083  49.8108553  17.8632753  29.0524083
  49.5308553  18.6882753  29.0084083  50.5268553  17.9162753  29.5484083
  49.8758553  17.9932753  29.1194083  42.1658553  18.5782753  31.0814083
  42.8708553  18.8982753  30.6794083  42.4068553  17.7712753  31.3084083
  42.3048553  18.5062753  31.0554083  41.1508553  32.7882753  27.0774083
  40.5268553  33.3702753  26.8954083  41.3988553  32.5022753  26.2914083
  41.0948553  32.8322753  26.9344083  45.4598553  29.4222753  34.0664083
  46.2168553  29.7082753  33.7404083  44.9128553  29.4742753  33.3884083
  45.4908553  29.4722753  33.9174083  49.3688553  31.9722753  32.5704083
  49.7148553  32.2422753  33.3244083  49.6628553  32.5542753  31.9904083
  49.4638553  32.0982753  32.5964083  51.2318553  24.1182753  17.9094083
  51.6098553  24.7952753  17.5094083  50.3898553  24.3422753  17.9404083
  51.1628553  24.2512753  17.8544083  42.7448553  27.5642753  16.9924083
  41.9398553  27.3872753  16.7074083  42.7118553  28.4152753  17.1844083
  42.6208553  27.6632753  16.9794083  38.6748553  23.6312753  27.1424083
  39.1148553  23.5282753  26.3964083  39.2198553  23.3182753  27.7474083
  38.8198553  23.5702753  27.1214083  46.6908553  22.7332753  32.7344083
  46.0428553  23.2032753  33.0824083  47.2558553  22.6442753  33.3934083
  46.6788553  22.7892753  32.8834083  46.3788553  24.2702753  29.0324083
  46.6808553  24.6902753  29.7354083  46.4148553  23.4302753  29.2644083
  46.4288553  24.2082753  29.1704083  43.8038553  34.4372753  32.9574083
  44.2818553  33.8372753  32.5414083  43.4528553  33.9942753  33.6224083
  43.8228553  34.2832753  32.9944083  48.9268553  23.7172753  21.2844083
  49.1338553  23.5162753  22.1084083  49.6828553  23.9852753  20.9424083
  49.0688553  23.7272753  21.3554083  49.9488553  19.8002753  22.7584083
  49.2348553  19.3292753  22.9294083  49.7868553  20.1412753  21.9724083
  49.8198553  19.7812753  22.6674083  50.3918553  27.7442753  21.1384083
  50.8678553  27.0152753  21.0904083  49.5708553  27.4582753  21.0624083
  50.3408553  27.5942753  21.1194083  43.8628553  29.6562753  31.9774083
  43.0678553  29.5922753  32.3284083  43.9338553  30.5032753  31.7824083
  43.7558553  29.7712753  32.0004083  34.7868553  19.0142753  33.2244083
  34.6468553  19.8092753  32.8934083  34.0008553  18.7712753  33.5134083
  34.6498553  19.0962753  33.2184083  39.6928553  35.8632753  27.2944083
  39.7038553  35.9222753  28.1644083  39.2678553  35.1162753  27.1444083
  39.6318553  35.7612753  27.4004083  37.8508553  21.7582753  20.4494083
  37.9768553  21.4292753  19.6514083  37.0388553  21.5092753  20.6484083
  37.7498553  21.6732753  20.3614083  46.6078553  28.9112753  23.4934083
  46.6838553  29.2522753  24.2924083  46.7768553  28.0642753  23.6144083
  46.6438553  28.8362753  23.6294083  44.1298553  28.1852753  23.0584083
  43.8318553  27.8702753  23.8154083  44.8248553  28.6582753  23.2934083
  44.1888553  28.2082753  23.2054083  44.3518553  32.3032753  31.0854083
  45.0388553  32.1892753  31.6104083  44.4858553  33.0942753  30.7414083
  44.4728553  32.4032753  31.1124083  52.5278553  24.9122753  32.8964083
  51.6728553  24.7902753  33.0224083  52.6808553  24.5172753  32.1334083
  52.4238553  24.8352753  32.8024083  47.0408553  25.5772753  31.4724083
  46.7858553  24.8582753  31.8944083  47.8618553  25.6932753  31.7424083
  47.1248553  25.4882753  31.5744083  36.4568553  35.3612753  32.7364083
  35.8028553  34.7922753  32.8344083  36.0818553  36.1342753  32.8874083
  36.3048553  35.3912753  32.7734083  44.9748553  26.7672753  34.6594083
  45.2978553  27.4532753  34.2274083  44.2708553  27.0902753  35.0614083
  44.9178553  26.9162753  34.6544083  48.0588553  35.1412753  25.5884083
  47.6078553  35.7842753  25.9674083  48.7668553  35.0622753  26.0934083
  48.0968553  35.2242753  25.7194083  44.7598553  30.2312753  28.5184083
  44.0658553  30.6332753  28.8614083  45.4368553  30.6642753  28.8574083
  44.7568553  30.3542753  28.6194083  50.1368553  32.8242753  35.0984083
  50.9128553  32.4342753  35.1814083  49.6678553  32.4882753  35.7534083
  50.1818553  32.7172753  35.2074083  51.1618553  24.8572753  20.5804083
  51.2648553  24.7992753  19.7164083  51.9028553  24.5252753  20.8984083
  51.2868553  24.8002753  20.4994083  38.1568553  19.6272753  32.5514083
  38.0758553  18.7832753  32.7574083  37.8428553  19.6712753  31.7384083
  38.0988553  19.5092753  32.4614083  45.0818553  31.8222753  21.6874083
  44.8768553  32.6552753  21.5284083  44.3068553  31.4402753  21.8094083
  44.9368553  31.8892753  21.6824083  50.2638553  25.0032753  29.9364083
  50.2618553  24.1402753  30.0604083  50.3308553  25.3272753  30.7434083
  50.2738553  24.9232753  30.0734083  36.4558553  23.3792753  16.9824083
  35.7838553  23.3932753  17.5384083  36.5508553  22.5312753  16.7984083
  36.3708553  23.2562753  17.0374083  46.1428553  19.8032753  33.7184083
  46.2348553  20.5152753  34.2124083  45.5058553  19.3582753  34.1154083
  46.0618553  19.8422753  33.8504083  45.1368553  19.9932753  24.5724083
  44.4368553  20.5112753  24.5164083  45.1748553  19.6132753  23.7884083
  45.0388553  20.0142753  24.4484083  40.4438553  32.0842753  18.0964083
  40.8848553  32.1642753  18.8444083  39.6388553  31.8682753  18.3544083
  40.3898553  32.0642753  18.2454083  48.7348553  20.5092753  27.3724083
  49.5898553  20.6082753  27.5174083  48.3658553  21.0622753  27.9374083
  48.8068553  20.6062753  27.4774083  49.0388553  25.7892753  25.8634083
  49.7048553  26.3302753  26.0234083  48.6938553  26.1002753  25.1244083
  49.0858553  25.9152753  25.7784083  49.3518553  33.8552753  21.6704083
  49.1778553  33.2012753  22.2204083  50.0648553  33.5842753  21.2474083
  49.4318553  33.7182753  21.6894083  37.7728553  31.1542753  18.6974083
  37.5288553  30.8472753  19.4774083  37.7398553  30.4512753  18.1814083
  37.7318553  31.0052753  18.7364083  40.5918553  29.3992753  17.4404083
  39.7738553  29.1312753  17.5804083  40.5638553  30.2512753  17.6254083
  40.4668553  29.4862753  17.4884083  40.1918553  19.7122753  29.1994083
  39.3278553  19.7962753  29.2794083  40.4118553  19.1982753  29.8684083
  40.0968553  19.6492753  29.3104083  52.2098553  18.3472753  30.5284083
  52.1578553  18.3032753  31.3984083  52.8968553  17.8442753  30.3384083
  52.3038553  18.2672753  30.6284083  44.2948553  20.4602753  27.5734083
  43.5578553  20.0062753  27.6864083  44.8658553  20.0582753  28.0964083
  44.2698553  20.3332753  27.6674083  47.0268553  31.3082753  29.3614083
  47.2328553  31.6092753  30.1534083  46.9658553  32.0302753  28.8764083
  47.0478553  31.4592753  29.4064083  46.5608553  35.5222753  33.6074083
  45.8078553  35.5042753  33.1664083  46.7288553  36.3742753  33.6914083
  46.4748553  35.6452753  33.5544083  41.7978553  24.7892753  32.7774083
  41.4758553  24.2132753  32.2074083  41.4388553  25.5442753  32.5314083
  41.6978553  24.8152753  32.6574083  42.5938553  18.0412753  17.4044083
  42.6718553  18.2882753  16.5714083  41.8508553  18.4182753  17.6624083
  42.4958553  18.1332753  17.3194083  40.2328553  35.1452753  33.0254083
  40.2738553  35.2712753  33.8884083  40.8838553  34.5852753  32.8694083
  40.3348553  35.0812753  33.1304083  37.4118553  19.7952753  29.8474083
  37.0688553  19.0282753  29.6134083  36.7168553  20.3192753  29.9114083
  37.2588553  19.7592753  29.8224083  46.4578553  18.6512753  26.8244083
  47.1278553  19.1952753  26.9514083  45.9548553  19.0752753  26.2514083
  46.4828553  18.7942753  26.7584083  37.8258553  33.5282753  34.3854083
  38.4208553  33.9592753  34.8574083  37.4618553  34.1522753  33.8964083
  37.8598553  33.6842753  34.3824083  45.8168553  24.4592753  24.3174083
  46.3678553  23.8522753  24.6174083  45.3918553  24.7222753  25.0324083
  45.8358553  24.4082753  24.4664083  36.0648553  23.1092753  23.8034083
  35.6968553  23.4112753  24.5344083  36.5988553  22.4802753  24.0874083
  36.0888553  23.0612753  23.9534083  35.7528553  31.5172753  31.3144083
  35.1788553  31.9332753  31.8234083  36.4858553  31.9822753  31.4094083
  35.7768553  31.6472753  31.4034083  47.7868553  26.2902753  20.8794083
  47.8548553  25.4402753  21.0604083  46.9638553  26.3762753  20.6014083
  47.6748553  26.1772753  20.8654083  37.5388553  34.7842753  20.0894083
  37.3938553  34.9402753  19.2434083  38.4048553  34.8632753  20.1674083
  37.6458553  34.8192753  19.9764083  41.7058553  27.1812753  19.8174083
  41.8058553  27.3202753  18.9624083  42.5238553  27.1212753  20.1134083
  41.8408553  27.1922753  19.7344083  50.8658553  35.2452753  17.2974083
  51.5028553  35.1112753  17.8784083  50.5248553  34.4512753  17.1804083
  50.9098553  35.1082753  17.3654083  51.0608553  27.6632753  34.0304083
  51.6948553  27.4932753  34.6044083  51.4778553  28.0662753  33.3784083
  51.2158553  27.6982753  34.0194083  46.9408553  31.5102753  19.6194083
  46.6898553  31.3822753  20.4454083  46.6238553  30.8152753  19.1984083
  46.8568553  31.3892753  19.6794083  51.6858553  22.2272753  34.7684083
  51.4898553  22.8712753  35.3234083  50.9638553  21.7372753  34.7604083
  51.5508553  22.2502753  34.8494083  51.5848553  23.1682753  27.7394083
  50.7518553  23.4182753  27.6674083  51.5288553  22.3282753  27.9684083
  51.4538553  23.0812753  27.7624083  40.8448553  20.1562753  32.9334083
  41.0788553  19.5802753  32.3204083  40.0028553  19.9752753  33.0744083
  40.7548553  20.0442753  32.8634083  48.4718553  27.7742753  35.3854083
  49.3428553  27.7382753  35.3494083  48.2528553  28.1942753  34.6534083
  48.5688553  27.8302753  35.2724083  38.2258553  33.5992753  26.5664083
  38.1468553  32.7892753  26.2504083  37.7818553  34.0862753  25.9944083
  38.1488553  33.5512753  26.4354083  43.8268553  29.7182753  19.0494083
  44.5438553  29.3712753  18.6934083  43.7928553  30.5182753  18.7014083
  43.9278553  29.7852753  18.9454083  35.7978553  35.8432753  30.1474083
  36.2908553  35.7872753  30.8654083  35.9858553  35.1102753  29.7124083
  35.8988553  35.7262753  30.1894083  45.2358553  18.3592753   3.2881673
  44.9908553  18.8472753   2.6081673  46.0988553  18.2862753   3.1881673
  45.3268553  18.4202753   3.1731673  45.0448553  25.2752753   7.9591673
  44.5208553  25.8712753   8.3221673  45.4418553  24.9072753   8.6431673
  45.0258553  25.3092753   8.1141673  34.9138553  29.4152753   3.4151673
  34.4728553  29.5332753   4.1581673  34.6308553  28.6402753   3.1301673
  34.8068553  29.3182753   3.4831673  47.7158553  26.3422753   4.6351673
  47.7958553  26.3462753   3.7661673  47.1318553  25.7102753   4.7841673
  47.6408553  26.2492753   4.5291673  37.4228553  30.1112753   2.4941673
  38.0308553  29.9412753   3.0971673  36.6718553  29.9712753   2.9151673
  37.4018553  30.0652753   2.6451673  41.7048553  19.4462753   2.4431673
  41.6348553  20.1232753   1.8971673  42.4458553  19.0582753   2.1941673
  41.8038553  19.4892753   2.3251673  34.8538553  32.1502753   9.6701673
  34.9828553  31.8702753  10.4861673  34.2438553  31.6092753   9.3611673
  34.7828553  32.0292753   9.7451673  41.4278553  29.6752753  14.7371673
  41.1918553  29.6722753  15.5771673  40.6798553  29.5272753  14.3131673
  41.2818553  29.6522753  14.7981673  36.2998553  26.6712753   3.8721673
  35.8378553  26.2792753   3.2451673  36.9998553  26.1582753   3.9641673
  36.3348553  26.5382753   3.7931673  40.8078553  22.2812753   9.2191673
  41.4858553  22.2992753   8.6701673  40.7628553  21.4452753   9.4641673
  40.9008553  22.1602753   9.1741673  41.4098553  32.8672753  12.0001673
  41.5478553  33.6272753  11.5931673  42.2008553  32.5022753  12.0271673
  41.5468553  32.9262753  11.9441673  38.3008553  24.7712753   3.8951673
  39.1178553  24.5842753   4.1381673  37.8238553  24.1572753   4.2911673
  38.3508553  24.6532753   3.9901673  42.5048553  30.7522753   6.5051673
  42.8528553  29.9532753   6.5351673  43.1698553  31.2562753   6.2501673
  42.6548553  30.7082753   6.4721673  42.5618553  30.2012753   2.7161673
  42.8928553  29.5572753   3.2021673  42.8018553  29.9902753   1.9051673
  42.6458553  30.0752753   2.6681673  44.5298553  24.3322753  14.0551673
  43.6818553  24.2332753  13.8771673  44.5588553  25.0772753  14.5091673
  44.4088553  24.4282753  14.0961673  38.8978553  19.8652753   3.1611673
  38.6018553  20.3662753   2.5111673  39.7648553  19.9432753   3.1041673
  38.9818553  19.9512753   3.0571673  49.0878553  17.2922753  13.1691673
  48.9298553  18.0612753  12.7871673  48.3158553  17.0722753  13.5131673
  48.9498553  17.3732753  13.1641673  41.8768553  19.0072753   5.3841673
  41.9498553  19.8672753   5.5131673  41.8388553  18.9322753   4.5161673
  41.8818553  19.1232753   5.2751673  34.7558553  24.4322753   6.8851673
  34.4998553  25.2632753   6.8101673  34.0918553  24.0492753   7.3021673
  34.6198553  24.4982753   6.9361673  34.6658553  34.1422753   4.7851673
  34.0738553  34.7002753   4.4721673  35.0918553  33.8732753   4.0731673
  34.6418553  34.1842753   4.6341673  40.5058553  31.9862753   2.2651673
  39.9268553  31.7112753   2.8571673  41.1298553  31.3772753   2.2901673
  40.5128553  31.8562753   2.3561673  44.8168553  34.6662753   1.7771673
  45.0308553  35.1932753   2.4391673  45.5838553  34.4922753   1.3981673
  44.9618553  34.7182753   1.8191673  37.7848553  19.2492753   7.3761673
  37.2638553  18.6212753   7.0681673  38.3758553  18.8122753   7.8471673
  37.7958553  19.0912753   7.4001673  41.0908553  21.3822753  16.6741673
  41.2078553  20.9282753  15.9381673  41.3788553  22.1802753  16.4711673
  41.1508553  21.4332753  16.5351673  36.2108553  32.8122753   2.7161673
  36.8668553  32.2372753   2.7311673  36.5998553  33.5612753   2.4951673
  36.3658553  32.8372753   2.6861673  51.9438553  21.9062753   3.9781673
  51.5978553  22.5842753   4.4041673  51.3078553  21.3082753   3.9941673
  51.7988553  21.9182753   4.0431673  47.2558553  34.6762753  10.0821673
  47.9998553  35.1322753  10.0721673  47.1348553  34.4622753   9.2451673
  47.3478553  34.7122753   9.9571673  36.8238553  20.9792753  15.6581673
  36.0458553  20.5892753  15.5861673  37.3148553  20.5672753  15.0671673
  36.7808553  20.8602753  15.5601673  37.0288553  31.2992753   6.2161673
  37.4518553  30.9432753   5.5421673  37.3528553  30.8772753   6.9081673
  37.1388553  31.1842753   6.2191673  40.2598553  34.1512753   5.5121673
  41.1038553  34.2552753   5.3171673  39.9628553  34.9692753   5.5801673
  40.3408553  34.2872753   5.4931673  43.4728553  18.6222753  14.8261673
  43.6508553  17.8132753  14.5511673  43.3298553  19.0632753  14.0871673
  43.4778553  18.5682753  14.6761673  44.0668553  23.5482753   3.5991673
  44.3538553  23.3162753   2.8091673  44.7988553  23.6272753   4.0681673
  44.2168553  23.5252753   3.5521673  39.2578553  35.3702753  11.2521673
  39.5498553  35.3032753  12.0721673  38.6318553  34.7652753  11.2071673
  39.2088553  35.2712753  11.3671673  51.6188553  20.2292753   9.3471673
  52.3758553  20.3012753   8.9191673  51.6818553  19.4562753   9.7461673
  51.7398553  20.1262753   9.3421673  34.1718553  21.5272753  13.2441673
  34.1678553  22.1142753  13.8901673  34.7658553  21.8392753  12.6871673
  34.2588553  21.6602753  13.2571673  46.5098553  31.8612753  13.7861673
  46.4758553  32.2432753  14.5701673  47.3638553  31.8192753  13.6151673
  46.6308553  31.9112753  13.8771673  35.1088553  21.1222753   2.1591673
  34.9948553  20.2582753   2.1901673  34.6338553  21.4162753   2.8291673
  35.0218553  21.0382753   2.2621673  37.2508553  33.5322753  10.3741673
  36.5528553  33.0242753  10.5001673  37.5108553  33.3272753   9.5661673
  37.1858553  33.4272753  10.2731673  44.9618553  35.0252753  11.2841673
  45.7298553  34.9452753  10.8781673  44.3788553  34.9042753  10.6461673
  44.9888553  34.9952753  11.1301673  51.2388553  35.6282753   4.1851673
  50.7838553  36.3452753   4.3861673  50.6248553  35.0572753   3.9431673
  51.0808553  35.6502753   4.1791673  43.0108553  21.6382753   5.3171673
  43.0848553  22.2062753   4.6591673  43.1318553  22.1302753   6.0271673
  43.0388553  21.7952753   5.3251673  48.2358553  31.4732753   3.7291673
  48.9368553  30.9912753   3.9181673  47.5758553  30.9042753   3.7741673
  48.2418553  31.3182753   3.7631673  38.6118553  32.3832753  12.9411673
  39.4528553  32.4462753  12.7191673  38.5748553  32.7802753  13.7171673
  38.7308553  32.4512753  13.0231673  37.6188553  17.4612753   3.6651673
  38.1548553  18.1492753   3.6551673  37.6218553  17.1872753   2.8371673
  37.6978553  17.5222753   3.5411673  40.5748553  27.8942753   7.6901673
  40.7468553  27.6842753   8.5191673  39.9198553  27.3602753   7.4741673
  40.5038553  27.7842753   7.7811673  46.8028553  21.8082753  11.2051673
  46.7078553  22.1272753  12.0111673  46.2098553  21.1692753  11.1671673
  46.7008553  21.7602753  11.3191673  41.3248553  27.8322753  10.2801673
  41.3778553  28.6792753  10.4821673  41.0398553  27.4622753  11.0171673
  41.2908553  27.9022753  10.4181673  47.5018553  28.5272753   9.4101673
  46.9878553  28.1152753   9.9811673  47.3758553  29.3712753   9.5911673
  47.4078553  28.5912753   9.5211673  48.0588553  17.7522753   4.0411673
  48.1078553  17.4342753   4.8521673  48.3818553  17.1082753   3.5481673
  48.1138553  17.6102753   4.0881673  34.1458553  32.2032753  16.4911673
  34.9018553  32.5522753  16.7491673  34.3228553  31.3502753  16.4341673
  34.2838553  32.1282753  16.5211673  50.5228553  21.9882753  12.3491673
  51.2948553  21.7632753  12.6861673  50.0478553  22.2052753  13.0491673
  50.5668553  21.9872753  12.5021673  38.0668553  21.2712753   5.3191673
  38.3388553  20.8412753   4.6111673  37.8908553  20.6352753   5.8901673
  38.0808553  21.1142753   5.2991673  37.8908553  28.6982753   4.8681673
  38.7418553  28.6182753   4.6951673  37.5338553  28.0162753   4.4561673
  37.9638553  28.5852753   4.7811673  36.6578553  35.4232753   6.1051673
  35.9848553  34.9252753   5.8601673  37.0608553  35.6082753   5.3541673
  36.6178553  35.3772753   5.9581673  36.2078553  22.3732753   8.4011673
  37.0508553  22.5932753   8.3581673  35.8188553  22.9462753   7.8701673
  36.2748553  22.4902753   8.3161673  52.9888553  33.4752753  13.7911673
  52.3068553  33.7852753  13.3441673  52.6198553  33.0172753  14.4361673
  52.8328553  33.4532753  13.8201673  40.2588553  28.7052753   3.1031673
  40.9718553  29.2002753   3.1931673  40.4808553  28.1382753   2.4771673
  40.3968553  28.6942753   3.0241673  34.4148553  30.3482753   6.4231673
  33.7478553  30.8362753   6.6991673  35.0948553  30.8932753   6.4521673
  34.4168553  30.5002753   6.4681673  42.0618553  24.0582753  16.5191673
  41.5778553  24.6352753  16.9611673  42.0338553  24.3532753  15.6981673
  41.9858553  24.1872753  16.4631673  53.1598553  24.7422753  11.1311673
  53.3748553  23.9422753  10.8551673  52.3098553  24.8022753  10.9421673
  53.0658553  24.6332753  11.0621673  44.7818553  32.4082753   5.4301673
  44.2588553  33.0422753   5.1371673  45.0918553  32.0442753   4.7011673
  44.7498553  32.4482753   5.2791673  38.8568553  30.1962753   8.1901673
  39.3238553  30.4852753   8.8681673  39.4288553  29.7182753   7.7361673
  39.0108553  30.1682753   8.2231673  47.2928553  22.2102753   5.9271673
  47.6368553  22.3622753   6.7141673  46.8398553  21.4722753   6.0401673
  47.2768553  22.1232753   6.0601673  35.4228553  27.8662753   6.7341673
  35.8538553  27.7372753   5.9871673  35.2178553  28.7142753   6.7081673
  35.4558553  27.9722753   6.6201673  50.8228553  33.8572753  11.8811673
  50.1518553  34.3712753  12.0991673  50.8858553  33.9572753  11.0171673
  50.7328553  33.9482753  11.7861673  39.5068553  31.3822753   5.0161673
  39.6328553  32.2252753   5.2031673  40.1748553  30.9832753   5.4121673
  39.6248553  31.4482753   5.1021673  37.6368553  24.8652753  14.8781673
  37.1008553  24.3592753  15.3461673  37.6568553  24.4752753  14.0981673
  37.5598553  24.7322753  14.8321673  38.2888553  26.0922753   6.6171673
  37.5078553  26.0332753   6.2341673  38.3608553  25.3402753   7.0541673
  38.1838553  25.9732753   6.6251673  38.7188553  25.8292753  10.0851673
  38.7438553  25.1542753   9.5341673  38.0728553  26.3252753   9.7731673
  38.6278553  25.8022753   9.9581673  48.6138553  23.5422753   8.4811673
  47.9518553  23.8702753   8.9441673  48.8008553  24.1762753   7.9121673
  48.5438553  23.6842753   8.4651673  42.8188553  34.6062753   9.4771673
  42.5418553  33.9652753   8.9541673  42.6108553  35.3322753   9.0391673
  42.7478553  34.6192753   9.3351673  45.2588553  19.4482753  11.9101673
  45.4078553  18.6232753  11.6671673  45.6378553  19.5032753  12.6941673
  45.3368553  19.3342753  11.9901673  46.8068553  21.5112753   1.9921673
  47.2968553  22.2282753   1.9151673  46.0168553  21.7722753   1.7291673
  46.7628553  21.6552753   1.9421673  36.5178553  27.1842753  15.6441673
  36.4808553  27.6852753  14.9301673  36.8488553  26.4322753  15.3491673
  36.5608553  27.1462753  15.4951673  48.1208553  29.3892753  13.9021673
  48.6048553  30.1072753  14.0001673  48.5148553  28.9622753  13.2511673
  48.2508553  29.4322753  13.8201673  42.4168553  32.2342753  15.0791673
  42.7708553  32.0562753  15.8561673  41.9808553  31.5052753  14.8801673
  42.4048553  32.1002753  15.1651673  43.3888553  22.9812753   7.7171673
  43.8688553  23.6802753   7.9251673  43.7618553  22.3342753   8.1681673
  43.5148553  22.9892753   7.8141673  50.5498553  30.0202753   3.9721673
  50.9058553  29.6702753   4.6871673  50.5418553  29.3592753   3.4021673
  50.6018553  29.8702753   3.9931673  46.5948553  33.0862753   7.8161673
  45.9918553  32.7902753   7.2591673  47.1398553  33.5382753   7.3071673
  46.5858553  33.1092753   7.6581673  46.6078553  29.9372753   7.2161673
  45.8108553  30.1612753   7.4901673  46.8658553  29.3432753   7.8011673
  46.5278553  29.8822753   7.3431673  49.8678553  27.9352753  12.0621673
  49.9228553  28.0602753  11.2001673  50.6208553  28.2552753  12.3641673
  49.9868553  28.0002753  11.9791673  46.0588553  33.2842753  16.3391673
  46.2228553  33.5672753  17.1481673  46.3218553  33.9452753  15.8341673
  46.1218553  33.4242753  16.3841673  50.8998553  18.2332753  15.0491673
  50.2628553  17.8332753  14.6071673  50.9258553  17.8022753  15.8071673
  50.8098553  18.1112753  15.0951673  45.5988553  27.7412753  11.6621673
  45.4438553  28.3512753  12.2661673  46.1328553  27.1832753  12.0681673
  45.6548553  27.7492753  11.8111673  34.2898553  18.4602753   1.8631673
  34.4188553  17.7522753   1.3711673  33.9228553  18.1422753   2.5881673
  34.2548553  18.3082753   1.8981673  43.9828553  26.1412753   2.3201673
  44.0418553  26.7912753   2.8991673  43.7938553  25.4452753   2.8111673
  43.9638553  26.1342753   2.4781673  49.2088553  30.4702753   8.1891673
  48.7298553  30.7682753   7.5231673  48.8528553  29.6942753   8.3671673
  49.0858553  30.3992753   8.1171673  43.2058553  28.1882753   6.7511673
  42.3588553  27.9942753   6.8321673  43.5298553  28.0232753   7.5441673
  43.1278553  28.1352753   6.8801673  37.0538553  27.8812753   9.0671673
  37.7758553  28.3692753   9.0301673  36.7838553  27.8512753   8.2381673
  37.1208553  27.9492753   8.9391673  40.2838553  23.0522753   5.8021673
  41.1298553  22.8622753   5.9001673  39.9138553  22.2752753   5.6641673
  40.3538553  22.9092753   5.7961673  35.1048553  24.3902753   2.4571673
  35.5938553  24.0982753   3.1181673  35.2338553  23.7972753   1.8301673
  35.1958553  24.2592753   2.4621673  50.1398553  27.4122753   9.3081673
  50.1328553  26.6362753   9.7061673  49.2988553  27.6462753   9.3011673
  50.0148553  27.3322753   9.3661673  36.4488553  28.9332753  13.3451673
  36.0278553  28.4152753  12.7841673  36.0968553  29.7192753  13.2021673
  36.3348553  28.9732753  13.2411673  51.3958553  27.4832753   6.7451673
  51.1098553  27.8842753   7.4651673  52.2558553  27.4212753   6.8721673
  51.4808553  27.5332753   6.8701673  49.0578553  21.4072753  15.2851673
  48.5328553  21.8662753  15.8091673  48.6968553  20.6122753  15.2791673
  48.9268553  21.3572753  15.3611673  34.5648553  20.2552753   7.1891673
  34.6088553  20.5992753   6.3881673  35.3198553  20.4922753   7.5561673
  34.6828553  20.3412753   7.1251673  52.5268553  33.1162753   7.2741673
  52.8168553  33.3732753   6.4931673  53.2218553  33.2122753   7.7931673
  52.6728553  33.1682753   7.2351673  47.5498553  24.9762753  15.3611673
  47.6228553  25.0802753  16.2241673  46.9158553  25.5342753  15.1401673
  47.4668553  25.0742753  15.4561673  49.8178553  25.2952753  13.7261673
  50.1368553  26.0812753  13.9291673  49.4478553  25.0252753  14.4691673
  49.8108553  25.3712753  13.8661673  49.6138553  23.5532753   4.9151673
  48.8688553  23.2302753   5.2331673  49.6158553  24.3792753   5.1951673
  49.5038553  23.6272753   5.0031673  52.5158553  25.8372753  16.4611673
  52.4638553  25.4962753  15.6601673  53.2528553  26.3042753  16.4391673
  52.6168553  25.8562753  16.3391673  52.0538553  29.5132753  12.6671673
  52.6818553  28.9642753  12.4111673  51.9928553  30.0782753  12.0051673
  52.1378553  29.5162753  12.5311673  41.1878553  30.7442753   9.9631673
  40.8898553  31.3362753  10.5301673  41.2428553  31.1862753   9.2141673
  41.1518553  30.8972753   9.9361673  39.1668553  29.6942753  13.3611673
  38.3608553  29.4042753  13.5281673  39.0778553  30.5622753  13.3671673
  39.0348553  29.7792753  13.3861673  48.5258553  19.8832753  12.3761673
  49.2698553  20.3352753  12.3131673  47.9598553  20.3532753  11.9071673
  48.5528553  20.0202753  12.2981673  43.7038553  27.1672753   9.4541673
  44.1798553  27.5412753  10.0821673  42.8808553  27.3012753   9.7131673
  43.6528553  27.2422753   9.5851673  40.4138553  22.7702753  12.1951673
  40.5748553  22.0262753  12.6221673  40.3688553  22.5212753  11.3601673
  40.4308553  22.6232753  12.1351673  42.9678553  34.5602753   4.6821673
  43.5138553  35.2392753   4.7361673  42.6178553  34.6422753   3.8871673
  42.9968553  34.6732753   4.5721673  49.8108553  17.8632753  10.0461673
  49.5308553  18.6882753  10.0021673  50.5268553  17.9162753  10.5421673
  49.8758553  17.9932753  10.1131673  42.1658553  18.5782753  12.0751673
  42.8708553  18.8982753  11.6731673  42.4068553  17.7712753  12.3021673
  42.3048553  18.5062753  12.0491673  41.1508553  32.7882753   8.0711673
  40.5268553  33.3702753   7.8891673  41.3988553  32.5022753   7.2851673
  41.0948553  32.8322753   7.9281673  45.4598553  29.4222753  15.0601673
  46.2168553  29.7082753  14.7341673  44.9128553  29.4742753  14.3821673
  45.4908553  29.4722753  14.9111673  49.3688553  31.9722753  13.5641673
  49.7148553  32.2422753  14.3181673  49.6628553  32.5542753  12.9841673
  49.4638553  32.0982753  13.5901673  38.6748553  23.6312753   8.1361673
  39.1148553  23.5282753   7.3901673  39.2198553  23.3182753   8.7411673
  38.8198553  23.5702753   8.1151673  46.6908553  22.7332753  13.7281673
  46.0428553  23.2032753  14.0761673  47.2558553  22.6442753  14.3871673
  46.6788553  22.7892753  13.8771673  46.3788553  24.2702753  10.0261673
  46.6808553  24.6902753  10.7291673  46.4148553  23.4302753  10.2581673
  46.4288553  24.2082753  10.1641673  43.8038553  34.4372753  13.9511673
  44.2818553  33.8372753  13.5351673  43.4528553  33.9942753  14.6161673
  43.8228553  34.2832753  13.9881673  48.9268553  23.7172753   2.2781673
  49.1338553  23.5162753   3.1021673  49.6828553  23.9852753   1.9361673
  49.0688553  23.7272753   2.3491673  42.2218553  18.6162753   8.1831673
  41.3958553  18.4672753   8.4201673  42.1818553  18.6512753   7.3121673
  42.0938553  18.5992753   8.0891673  49.9488553  19.8002753   3.7521673
  49.2348553  19.3292753   3.9231673  49.7868553  20.1412753   2.9661673
  49.8198553  19.7812753   3.6611673  50.3918553  27.7442753   2.1321673
  50.8678553  27.0152753   2.0841673  49.5708553  27.4582753   2.0561673
  50.3408553  27.5942753   2.1131673  43.8628553  29.6562753  12.9711673
  43.0678553  29.5922753  13.3221673  43.9338553  30.5032753  12.7761673
  43.7558553  29.7712753  12.9941673  34.7868553  19.0142753  14.2181673
  34.6468553  19.8092753  13.8871673  34.0008553  18.7712753  14.5071673
  34.6498553  19.0962753  14.2121673  39.6928553  35.8632753   8.2881673
  39.7038553  35.9222753   9.1581673  39.2678553  35.1162753   8.1381673
  39.6318553  35.7612753   8.3941673  46.6078553  28.9112753   4.4871673
  46.6838553  29.2522753   5.2861673  46.7768553  28.0642753   4.6081673
  46.6438553  28.8362753   4.6231673  44.1298553  28.1852753   4.0521673
  43.8318553  27.8702753   4.8091673  44.8248553  28.6582753   4.2871673
  44.1888553  28.2082753   4.1991673  44.3518553  32.3032753  12.0791673
  45.0388553  32.1892753  12.6041673  44.4858553  33.0942753  11.7351673
  44.4728553  32.4032753  12.1061673  52.5278553  24.9122753  13.8901673
  51.6728553  24.7902753  14.0161673  52.6808553  24.5172753  13.1271673
  52.4238553  24.8352753  13.7961673  47.0408553  25.5772753  12.4661673
  46.7858553  24.8582753  12.8881673  47.8618553  25.6932753  12.7361673
  47.1248553  25.4882753  12.5681673  36.4568553  35.3612753  13.7301673
  35.8028553  34.7922753  13.8281673  36.0818553  36.1342753  13.8811673
  36.3048553  35.3912753  13.7671673  44.9748553  26.7672753  15.6531673
  45.2978553  27.4532753  15.2211673  44.2708553  27.0902753  16.0551673
  44.9178553  26.9162753  15.6481673  48.0588553  35.1412753   6.5821673
  47.6078553  35.7842753   6.9611673  48.7668553  35.0622753   7.0871673
  48.0968553  35.2242753   6.7131673  44.7598553  30.2312753   9.5121673
  44.0658553  30.6332753   9.8551673  45.4368553  30.6642753   9.8511673
  44.7568553  30.3542753   9.6131673  50.1368553  32.8242753  16.0921673
  50.9128553  32.4342753  16.1751673  49.6678553  32.4882753  16.7471673
  50.1818553  32.7172753  16.2011673  37.8278553  23.7692753  11.8591673
  38.2028553  24.3882753  11.3721673  38.5018553  23.2952753  12.1441673
  37.9828553  23.7912753  11.8291673  35.6028553  22.2172753  11.1341673
  35.6798553  22.0482753  10.2811673  36.3488553  22.6232753  11.3311673
  35.7238553  22.2522753  11.0371673  38.1568553  19.6272753  13.5451673
  38.0758553  18.7832753  13.7511673  37.8428553  19.6712753  12.7321673
  38.0988553  19.5092753  13.4551673  45.0818553  31.8222753   2.6811673
  44.8768553  32.6552753   2.5221673  44.3068553  31.4402753   2.8031673
  44.9368553  31.8892753   2.6761673  50.2638553  25.0032753  10.9301673
  50.2618553  24.1402753  11.0541673  50.3308553  25.3272753  11.7371673
  50.2738553  24.9232753  11.0671673  34.9998553  27.4432753  11.3581673
  35.3198553  27.6622753  10.5771673  34.8998553  26.5782753  11.3031673
  35.0318553  27.3482753  11.2351673  46.1428553  19.8032753  14.7121673
  46.2348553  20.5152753  15.2061673  45.5058553  19.3582753  15.1091673
  46.0618553  19.8422753  14.8441673  45.1368553  19.9932753   5.5661673
  44.4368553  20.5112753   5.5101673  45.1748553  19.6132753   4.7821673
  45.0388553  20.0142753   5.4421673  48.7348553  20.5092753   8.3661673
  49.5898553  20.6082753   8.5111673  48.3658553  21.0622753   8.9311673
  48.8068553  20.6062753   8.4711673  39.7628553  26.7352753  12.7431673
  39.3668553  27.5092753  12.8181673  39.3568553  26.3622753  12.0671673
  39.6448553  26.7942753  12.6541673  49.0388553  25.7892753   6.8571673
  49.7048553  26.3302753   7.0171673  48.6938553  26.1002753   6.1181673
  49.0858553  25.9152753   6.7721673  49.3518553  33.8552753   2.6641673
  49.1778553  33.2012753   3.2141673  50.0648553  33.5842753   2.2411673
  49.4318553  33.7182753   2.6831673  40.1918553  19.7122753  10.1931673
  39.3278553  19.7962753  10.2731673  40.4118553  19.1982753  10.8621673
  40.0968553  19.6492753  10.3041673  52.2098553  18.3472753  11.5221673
  52.1578553  18.3032753  12.3921673  52.8968553  17.8442753  11.3321673
  52.3038553  18.2672753  11.6221673  44.2948553  20.4602753   8.5671673
  43.5578553  20.0062753   8.6801673  44.8658553  20.0582753   9.0901673
  44.2698553  20.3332753   8.6611673  47.0268553  31.3082753  10.3551673
  47.2328553  31.6092753  11.1471673  46.9658553  32.0302753   9.8701673
  47.0478553  31.4592753  10.4001673  46.5608553  35.5222753  14.6011673
  45.8078553  35.5042753  14.1601673  46.7288553  36.3742753  14.6851673
  46.4748553  35.6452753  14.5481673  41.7978553  24.7892753  13.7711673
  41.4758553  24.2132753  13.2011673  41.4388553  25.5442753  13.5251673
  41.6978553  24.8152753  13.6511673  51.8388553  29.9472753   9.8131673
  51.8068553  29.0852753   9.6781673  51.1458553  30.2492753   9.3791673
  51.7318553  29.8642753   9.7291673  40.2328553  35.1452753  14.0191673
  40.2738553  35.2712753  14.8821673  40.8838553  34.5852753  13.8631673
  40.3348553  35.0812753  14.1241673  49.9438553  33.2072753   8.6101673
  50.4708553  33.1242753   7.9191673  49.5528553  32.4292753   8.6641673
  49.9638553  33.0802753   8.5161673  37.4118553  19.7952753  10.8411673
  37.0688553  19.0282753  10.6071673  36.7168553  20.3192753  10.9051673
  37.2588553  19.7592753  10.8161673  46.4578553  18.6512753   7.8181673
  47.1278553  19.1952753   7.9451673  45.9548553  19.0752753   7.2451673
  46.4828553  18.7942753   7.7521673  37.8258553  33.5282753  15.3791673
  38.4208553  33.9592753  15.8511673  37.4618553  34.1522753  14.8901673
  37.8598553  33.6842753  15.3761673  45.8168553  24.4592753   5.3111673
  46.3678553  23.8522753   5.6111673  45.3918553  24.7222753   6.0261673
  45.8358553  24.4082753   5.4601673  36.0648553  23.1092753   4.7971673
  35.6968553  23.4112753   5.5281673  36.5988553  22.4802753   5.0811673
  36.0888553  23.0612753   4.9471673  35.7528553  31.5172753  12.3081673
  35.1788553  31.9332753  12.8171673  36.4858553  31.9822753  12.4031673
  35.7768553  31.6472753  12.3971673  47.7868553  26.2902753   1.8731673
  47.8548553  25.4402753   2.0541673  46.9638553  26.3762753   1.5951673
  47.6748553  26.1772753   1.8591673  51.0608553  27.6632753  15.0241673
  51.6948553  27.4932753  15.5981673  51.4778553  28.0662753  14.3721673
  51.2158553  27.6982753  15.0131673  51.6858553  22.2272753  15.7621673
  51.4898553  22.8712753  16.3171673  50.9638553  21.7372753  15.7541673
  51.5508553  22.2502753  15.8431673  51.5848553  23.1682753   8.7331673
  50.7518553  23.4182753   8.6611673  51.5288553  22.3282753   8.9621673
  51.4538553  23.0812753   8.7561673  40.8448553  20.1562753  13.9271673
  41.0788553  19.5802753  13.3141673  40.0028553  19.9752753  14.0681673
  40.7548553  20.0442753  13.8571673  48.4718553  27.7742753  16.3791673
  49.3428553  27.7382753  16.3431673  48.2528553  28.1942753  15.6471673
  48.5688553  27.8302753  16.2661673  38.2258553  33.5992753   7.5601673
  38.1468553  32.7892753   7.2441673  37.7818553  34.0862753   6.9881673
  38.1488553  33.5512753   7.4291673  35.7978553  35.8432753  11.1411673
  36.2908553  35.7872753  11.8591673  35.9858553  35.1102753  10.7061673
  35.8988553  35.7262753  11.1831673  45.0448553   6.7971673  83.9841313
  44.5208553   7.3931673  84.3471313  45.4418553   6.4291673  84.6681313
  45.0258553   6.8311673  84.1391313  34.9138553  10.9371673  79.4401313
  34.4728553  11.0551673  80.1831313  34.6308553  10.1621673  79.1551313
  34.8068553  10.8401673  79.5081313  51.1888553  14.2381673  76.9551313
  51.8898553  13.7191673  76.9511313  50.6018553  13.7931673  76.4861313
  51.2058553  14.0951673  76.8851313  34.6568553   4.7291673  75.9471313
  33.8788553   4.8911673  75.5871313  34.6958553   3.8581673  75.9691313
  34.5478553   4.6241673  75.8971313  37.7958553   9.9921673  74.6191313
  37.4038553   9.6211673  73.9331313  37.7158553   9.3941673  75.2481313
  37.7258553   9.8491673  74.6101313  47.7158553   7.8641673  80.6601313
  47.7958553   7.8681673  79.7911313  47.1318553   7.2321673  80.8091313
  47.6408553   7.7711673  80.5541313  37.4228553  11.6331673  78.5191313
  38.0308553  11.4631673  79.1221313  36.6718553  11.4931673  78.9401313
  37.4018553  11.5871673  78.6701313  36.3138553  14.7241673  74.5961313
  36.7808553  14.8081673  73.8641313  36.7688553  14.1461673  75.0651313
  36.4498553  14.6511673  74.5571313  34.8538553  13.6721673  85.6951313
  34.9828553  13.3921673  86.5111313  34.2438553  13.1311673  85.3861313
  34.7828553  13.5511673  85.7701313  36.2998553   8.1931673  79.8971313
  35.8378553   7.8011673  79.2701313  36.9998553   7.6801673  79.9891313
  36.3348553   8.0601673  79.8181313  40.8078553   3.8031673  85.2441313
  41.4858553   3.8211673  84.6951313  40.7628553   2.9671673  85.4891313
  40.9008553   3.6821673  85.1991313  41.4098553  14.3891673  88.0251313
  41.5478553  15.1491673  87.6181313  42.2008553  14.0241673  88.0521313
  41.5468553  14.4481673  87.9691313  38.3008553   6.2931673  79.9201313
  39.1178553   6.1061673  80.1631313  37.8238553   5.6791673  80.3161313
  38.3508553   6.1751673  80.0151313  42.5048553  12.2741673  82.5301313
  42.8528553  11.4751673  82.5601313  43.1698553  12.7781673  82.2751313
  42.6548553  12.2301673  82.4971313  42.5618553  11.7231673  78.7411313
  42.8928553  11.0791673  79.2271313  42.8018553  11.5121673  77.9301313
  42.6458553  11.5971673  78.6931313  46.5498553   3.4551673  73.7081313
  46.0998553   4.1361673  74.0151313  46.6638553   2.9511673  74.4111313
  46.5008553   3.4811673  73.8571313  34.7558553   5.9541673  82.9101313
  34.4998553   6.7851673  82.8351313  34.0918553   5.5711673  83.3271313
  34.6198553   6.0201673  82.9611313  34.6658553  15.6641673  80.8101313
  34.0738553  16.2221673  80.4971313  35.0918553  15.3951673  80.0981313
  34.6418553  15.7061673  80.6591313  40.5058553  13.5081673  78.2901313
  39.9268553  13.2331673  78.8821313  41.1298553  12.8991673  78.3151313
  40.5128553  13.3781673  78.3811313  46.6488553  15.7961673  75.8121313
  47.3758553  16.2681673  75.9141313  46.8778553  15.0021673  76.0921313
  46.7908553  15.7491673  75.8691313  44.8168553  16.1881673  77.8021313
  45.0308553  16.7151673  78.4641313  45.5838553  16.0141673  77.4231313
  44.9618553  16.2401673  77.8441313  36.2108553  14.3341673  78.7411313
  36.8668553  13.7591673  78.7561313  36.5998553  15.0831673  78.5201313
  36.3658553  14.3591673  78.7111313  51.9438553   3.4281673  80.0031313
  51.5978553   4.1061673  80.4291313  51.3078553   2.8301673  80.0191313
  51.7988553   3.4401673  80.0681313  47.2558553  16.1981673  86.1071313
  47.9998553  16.6541673  86.0971313  47.1348553  15.9841673  85.2701313
  47.3478553  16.2341673  85.9821313  37.0288553  12.8211673  82.2411313
  37.4518553  12.4651673  81.5671313  37.3528553  12.3991673  82.9331313
  37.1388553  12.7061673  82.2441313  40.2598553  15.6731673  81.5371313
  41.1038553  15.7771673  81.3421313  39.9628553  16.4911673  81.6051313
  40.3408553  15.8091673  81.5181313  44.0668553   5.0701673  79.6241313
  44.3538553   4.8381673  78.8341313  44.7988553   5.1491673  80.0931313
  44.2168553   5.0471673  79.5771313  44.7888553   5.4091673  74.7451313
  45.0698553   6.1971673  74.9941313  44.0128553   5.5741673  74.3821313
  44.7158553   5.5501673  74.7281313  48.8298553  17.3831673  76.2121313
  49.4948553  17.2351673  75.6671313  49.1898553  17.3001673  77.0021313
  48.9818553  17.3491673  76.2481313  39.2578553  16.8921673  87.2771313
  39.5498553  16.8251673  88.0971313  38.6318553  16.2871673  87.2321313
  39.2088553  16.7931673  87.3921313  43.6478553  13.5801673  74.5611313
  43.4668553  14.1251673  75.2181313  44.4138553  13.8701673  74.2601313
  43.7338553  13.7041673  74.6141313  35.1088553   2.6441673  78.1841313
  34.9948553   1.7801673  78.2151313  34.6338553   2.9381673  78.8541313
  35.0218553   2.5601673  78.2871313  37.2508553  15.0541673  86.3991313
  36.5528553  14.5461673  86.5251313  37.5108553  14.8491673  85.5911313
  37.1858553  14.9491673  86.2981313  44.4128553   3.8521673  76.9291313
  43.9048553   3.1901673  76.6751313  44.4648553   4.3561673  76.2191313
  44.3458553   3.8291673  76.7871313  44.9618553  16.5471673  87.3091313
  45.7298553  16.4671673  86.9031313  44.3788553  16.4261673  86.6711313
  44.9888553  16.5171673  87.1551313  51.2388553  17.1501673  80.2101313
  50.7838553  17.8671673  80.4111313  50.6248553  16.5791673  79.9681313
  51.0808553  17.1721673  80.2041313  43.0108553   3.1601673  81.3421313
  43.0848553   3.7281673  80.6841313  43.1318553   3.6521673  82.0521313
  43.0388553   3.3171673  81.3501313  48.2358553  12.9951673  79.7541313
  48.9368553  12.5131673  79.9431313  47.5758553  12.4261673  79.7991313
  48.2418553  12.8401673  79.7881313  40.5748553   9.4161673  83.7151313
  40.7468553   9.2061673  84.5441313  39.9198553   8.8821673  83.4991313
  40.5038553   9.3061673  83.8061313  46.8028553   3.3301673  87.2301313
  46.7078553   3.6491673  88.0361313  46.2098553   2.6911673  87.1921313
  46.7008553   3.2821673  87.3441313  41.3248553   9.3541673  86.3051313
  41.3778553  10.2011673  86.5071313  41.0398553   8.9841673  87.0421313
  41.2908553   9.4241673  86.4431313  47.5018553  10.0491673  85.4351313
  46.9878553   9.6371673  86.0061313  47.3758553  10.8931673  85.6161313
  47.4078553  10.1131673  85.5461313  38.0668553   2.7931673  81.3441313
  38.3388553   2.3631673  80.6361313  37.8908553   2.1571673  81.9151313
  38.0808553   2.6361673  81.3241313  50.7548553  10.4881673  75.5621313
  50.8738553  10.2011673  76.3771313  51.5618553  10.5091673  75.2321313
  50.8908553  10.4491673  75.6341313  37.8908553  10.2201673  80.8931313
  38.7418553  10.1401673  80.7201313  37.5338553   9.5381673  80.4811313
  37.9638553  10.1071673  80.8061313  36.6578553  16.9451673  82.1301313
  35.9848553  16.4471673  81.8851313  37.0608553  17.1301673  81.3791313
  36.6178553  16.8991673  81.9831313  36.2078553   3.8951673  84.4261313
  37.0508553   4.1151673  84.3831313  35.8188553   4.4681673  83.8951313
  36.2748553   4.0121673  84.3411313  48.6498553   7.0251673  75.1471313
  48.4298553   7.7561673  74.7251313  48.2018553   7.0761673  75.8941313
  48.5508553   7.1401673  75.1951313  40.2588553  10.2271673  79.1281313
  40.9718553  10.7221673  79.2181313  40.4808553   9.6601673  78.5021313
  40.3968553  10.2161673  79.0491313  34.4148553  11.8701673  82.4481313
  33.7478553  12.3581673  82.7241313  35.0948553  12.4151673  82.4771313
  34.4168553  12.0221673  82.4931313  53.1598553   6.2641673  87.1561313
  53.3748553   5.4641673  86.8801313  52.3098553   6.3241673  86.9671313
  53.0658553   6.1551673  87.0871313  34.4808553   8.5541673  77.5511313
  34.2958553   7.7151673  77.7031313  35.1398553   8.5181673  76.9811313
  34.5508553   8.4251673  77.4891313  44.7818553  13.9301673  81.4551313
  44.2588553  14.5641673  81.1621313  45.0918553  13.5661673  80.7261313
  44.7498553  13.9701673  81.3041313  34.6528553  12.7181673  77.1261313
  35.2048553  13.2871673  77.4901313  34.4208553  12.2031673  77.7911313
  34.6998553  12.7261673  77.2781313  38.8568553  11.7181673  84.2151313
  39.3238553  12.0071673  84.8931313  39.4288553  11.2401673  83.7611313
  39.0108553  11.6901673  84.2481313  47.2928553   3.7321673  81.9521313
  47.6368553   3.8841673  82.7391313  46.8398553   2.9941673  82.0651313
  47.2768553   3.6451673  82.0851313  34.4828553  11.1671673  74.7541313
  35.2388553  10.7351673  74.8121313  34.4978553  11.6991673  75.4451313
  34.5968553  11.1821673  74.8651313  35.4228553   9.3881673  82.7591313
  35.8538553   9.2591673  82.0121313  35.2178553  10.2361673  82.7331313
  35.4558553   9.4941673  82.6451313  41.7688553   2.9521673  76.4091313
  41.7668553   2.8351673  75.5441313  41.5878553   3.8001673  76.5011313
  41.7418553   3.0601673  76.2951313  50.8228553  15.3791673  87.9061313
  50.1518553  15.8931673  88.1241313  50.8858553  15.4791673  87.0421313
  50.7328553  15.4701673  87.8111313  39.5068553  12.9041673  81.0411313
  39.6328553  13.7471673  81.2281313  40.1748553  12.5051673  81.4371313
  39.6248553  12.9701673  81.1271313  38.1218553   5.7841673  76.0431313
  37.9938553   5.3361673  76.7811313  37.5398553   5.4421673  75.4911313
  38.0168553   5.6671673  76.0711313  38.2888553   7.6141673  82.6421313
  37.5078553   7.5551673  82.2591313  38.3608553   6.8621673  83.0791313
  38.1838553   7.4951673  82.6501313  38.7188553   7.3511673  86.1101313
  38.7438553   6.6761673  85.5591313  38.0728553   7.8471673  85.7981313
  38.6278553   7.3241673  85.9831313  48.6138553   5.0641673  84.5061313
  47.9518553   5.3921673  84.9691313  48.8008553   5.6981673  83.9371313
  48.5438553   5.2061673  84.4901313  42.8188553  16.1281673  85.5021313
  42.5418553  15.4871673  84.9791313  42.6108553  16.8541673  85.0641313
  42.7478553  16.1411673  85.3601313  46.8068553   3.0331673  78.0171313
  47.2968553   3.7501673  77.9401313  46.0168553   3.2941673  77.7541313
  46.7628553   3.1771673  77.9671313  43.3888553   4.5031673  83.7421313
  43.8688553   5.2021673  83.9501313  43.7618553   3.8561673  84.1931313
  43.5148553   4.5111673  83.8391313  45.5778553   7.6721673  76.0161313
  45.5698553   8.3941673  75.5261313  44.9388553   7.8071673  76.5931313
  45.4828553   7.7991673  76.0291313  50.5498553  11.5421673  79.9971313
  50.9058553  11.1921673  80.7121313  50.5418553  10.8811673  79.4271313
  50.6018553  11.3921673  80.0181313  46.5948553  14.6081673  83.8411313
  45.9918553  14.3121673  83.2841313  47.1398553  15.0601673  83.3321313
  46.5858553  14.6311673  83.6831313  46.6078553  11.4591673  83.2411313
  45.8108553  11.6831673  83.5151313  46.8658553  10.8651673  83.8261313
  46.5278553  11.4041673  83.3681313  40.4998553  16.2711673  77.6891313
  40.3528553  15.4951673  78.0601313  41.1888553  16.1241673  77.1741313
  40.5798553  16.1341673  77.6681313  42.7918553  15.7871673  76.0911313
  43.4138553  15.9501673  76.6811313  42.8278553  16.4781673  75.5591313
  42.8888553  15.9131673  76.1001313  49.8678553   9.4571673  88.0871313
  49.9228553   9.5821673  87.2251313  50.6208553   9.7771673  88.3891313
  49.9868553   9.5221673  88.0041313  37.2928553   8.3211673  76.9201313
  37.6168553   7.5421673  76.6981313  37.9388553   8.6891673  77.3751313
  37.4358553   8.2601673  76.9541313  45.5988553   9.2631673  87.6871313
  45.4438553   9.8731673  88.2911313  46.1328553   8.7051673  88.0931313
  45.6548553   9.2711673  87.8361313  43.9828553   7.6631673  78.3451313
  44.0418553   8.3131673  78.9241313  43.7938553   6.9671673  78.8361313
  43.9638553   7.6561673  78.5031313  49.2088553  11.9921673  84.2141313
  48.7298553  12.2901673  83.5481313  48.8528553  11.2161673  84.3921313
  49.0858553  11.9211673  84.1421313  38.4788553   2.1801673  74.8571313
  37.9678553   2.2331673  74.1511313  39.2628553   2.4201673  74.5611313
  38.5188553   2.2231673  74.7091313  43.2058553   9.7101673  82.7761313
  42.3588553   9.5161673  82.8571313  43.5298553   9.5451673  83.5691313
  43.1278553   9.6571673  82.9051313  39.9578553  16.4401673  73.6621313
  40.3968553  15.7431673  73.9501313  40.1648553  17.0641673  74.2351313
  40.0538553  16.4291673  73.7891313  37.0538553   9.4031673  85.0921313
  37.7758553   9.8911673  85.0551313  36.7838553   9.3731673  84.2631313
  37.1208553   9.4711673  84.9641313  40.2838553   4.5741673  81.8271313
  41.1298553   4.3841673  81.9251313  39.9138553   3.7971673  81.6891313
  40.3538553   4.4311673  81.8211313  52.9008553  16.1581673  76.1541313
  53.5948553  15.6911673  75.9061313  52.3618553  15.5601673  76.4911313
  52.9238553  16.0001673  76.1671313  35.1048553   5.9121673  78.4821313
  35.5938553   5.6201673  79.1431313  35.2338553   5.3191673  77.8551313
  35.1958553   5.7811673  78.4871313  50.1398553   8.9341673  85.3331313
  50.1328553   8.1581673  85.7311313  49.2988553   9.1681673  85.3261313
  50.0148553   8.8541673  85.3911313  39.6298553   7.3461673  73.9681313
  39.0198553   6.9411673  74.4421313  39.2438553   7.4641673  73.1951313
  39.4828553   7.3031673  73.9241313  51.3958553   9.0051673  82.7701313
  51.1098553   9.4061673  83.4901313  52.2558553   8.9431673  82.8971313
  51.4808553   9.0551673  82.8951313  41.0848553   5.8071673  76.6781313
  41.3568553   6.6331673  76.7451313  40.2218553   5.8821673  76.5821313
  40.9978553   5.9401673  76.6731313  34.5648553   1.7771673  83.2141313
  34.6088553   2.1211673  82.4131313  35.3198553   2.0141673  83.5811313
  34.6828553   1.8631673  83.1501313  52.5268553  14.6381673  83.2991313
  52.8168553  14.8951673  82.5181313  53.2218553  14.7341673  83.8181313
  52.6728553  14.6901673  83.2601313  49.1318553  13.2411673  75.2811313
  49.4658553  12.4351673  75.3161313  48.3768553  13.1691673  75.7111313
  49.0698553  13.1111673  75.3501313  49.6138553   5.0751673  80.9401313
  48.8688553   4.7521673  81.2581313  49.6158553   5.9011673  81.2201313
  49.5038553   5.1491673  81.0281313  52.0538553  11.0351673  88.6921313
  52.6818553  10.4861673  88.4361313  51.9928553  11.6001673  88.0301313
  52.1378553  11.0381673  88.5561313  46.5058553  11.1161673  74.6841313
  47.1898553  10.6021673  74.5151313  46.0888553  11.1621673  73.9191313
  46.5448553  11.0471673  74.5461313  41.1878553  12.2661673  85.9881313
  40.8898553  12.8581673  86.5551313  41.2428553  12.7081673  85.2391313
  41.1518553  12.4191673  85.9611313  43.7038553   8.6891673  85.4791313
  44.1798553   9.0631673  86.1071313  42.8808553   8.8231673  85.7381313
  43.6528553   8.7641673  85.6101313  40.4138553   4.2921673  88.2201313
  40.5748553   3.5481673  88.6471313  40.3688553   4.0431673  87.3851313
  40.4308553   4.1451673  88.1601313  42.9678553  16.0821673  80.7071313
  43.5138553  16.7611673  80.7611313  42.6178553  16.1641673  79.9121313
  42.9968553  16.1951673  80.5971313  41.1508553  14.3101673  84.0961313
  40.5268553  14.8921673  83.9141313  41.3988553  14.0241673  83.3101313
  41.0948553  14.3541673  83.9531313  51.2318553   5.6401673  74.9281313
  51.6098553   6.3171673  74.5281313  50.3898553   5.8641673  74.9591313
  51.1628553   5.7731673  74.8731313  42.7448553   9.0861673  74.0111313
  41.9398553   8.9091673  73.7261313  42.7118553   9.9371673  74.2031313
  42.6208553   9.1851673  73.9981313  38.6748553   5.1531673  84.1611313
  39.1148553   5.0501673  83.4151313  39.2198553   4.8401673  84.7661313
  38.8198553   5.0921673  84.1401313  46.3788553   5.7921673  86.0511313
  46.6808553   6.2121673  86.7541313  46.4148553   4.9521673  86.2831313
  46.4288553   5.7301673  86.1891313  48.9268553   5.2391673  78.3031313
  49.1338553   5.0381673  79.1271313  49.6828553   5.5071673  77.9611313
  49.0688553   5.2491673  78.3741313  50.3918553   9.2661673  78.1571313
  50.8678553   8.5371673  78.1091313  49.5708553   8.9801673  78.0811313
  50.3408553   9.1161673  78.1381313  39.6928553  17.3851673  84.3131313
  39.7038553  17.4441673  85.1831313  39.2678553  16.6381673  84.1631313
  39.6318553  17.2831673  84.4191313  37.8508553   3.2801673  77.4681313
  37.9768553   2.9511673  76.6701313  37.0388553   3.0311673  77.6671313
  37.7498553   3.1951673  77.3801313  46.6078553  10.4331673  80.5121313
  46.6838553  10.7741673  81.3111313  46.7768553   9.5861673  80.6331313
  46.6438553  10.3581673  80.6481313  44.1298553   9.7071673  80.0771313
  43.8318553   9.3921673  80.8341313  44.8248553  10.1801673  80.3121313
  44.1888553   9.7301673  80.2241313  44.3518553  13.8251673  88.1041313
  45.0388553  13.7111673  88.6291313  44.4858553  14.6161673  87.7601313
  44.4728553  13.9251673  88.1311313  47.0408553   7.0991673  88.4911313
  46.7858553   6.3801673  88.9131313  47.8618553   7.2151673  88.7611313
  47.1248553   7.0101673  88.5931313  48.0588553  16.6631673  82.6071313
  47.6078553  17.3061673  82.9861313  48.7668553  16.5841673  83.1121313
  48.0968553  16.7461673  82.7381313  44.7598553  11.7531673  85.5371313
  44.0658553  12.1551673  85.8801313  45.4368553  12.1861673  85.8761313
  44.7568553  11.8761673  85.6381313  37.8278553   5.2911673  87.8841313
  38.2028553   5.9101673  87.3971313  38.5018553   4.8171673  88.1691313
  37.9828553   5.3131673  87.8541313  35.6028553   3.7391673  87.1591313
  35.6798553   3.5701673  86.3061313  36.3488553   4.1451673  87.3561313
  35.7238553   3.7741673  87.0621313  51.1618553   6.3791673  77.5991313
  51.2648553   6.3211673  76.7351313  51.9028553   6.0471673  77.9171313
  51.2868553   6.3221673  77.5181313  45.0818553  13.3441673  78.7061313
  44.8768553  14.1771673  78.5471313  44.3068553  12.9621673  78.8281313
  44.9368553  13.4111673  78.7011313  50.2638553   6.5251673  86.9551313
  50.2618553   5.6621673  87.0791313  50.3308553   6.8491673  87.7621313
  50.2738553   6.4451673  87.0921313  34.9998553   8.9651673  87.3831313
  35.3198553   9.1841673  86.6021313  34.8998553   8.1001673  87.3281313
  35.0318553   8.8701673  87.2601313  36.4558553   4.9011673  74.0011313
  35.7838553   4.9151673  74.5571313  36.5508553   4.0531673  73.8171313
  36.3708553   4.7781673  74.0561313  40.4438553  13.6061673  75.1151313
  40.8848553  13.6861673  75.8631313  39.6388553  13.3901673  75.3731313
  40.3898553  13.5861673  75.2641313  48.7348553   2.0311673  84.3911313
  49.5898553   2.1301673  84.5361313  48.3658553   2.5841673  84.9561313
  48.8068553   2.1281673  84.4961313  39.7628553   8.2571673  88.7681313
  39.3668553   9.0311673  88.8431313  39.3568553   7.8841673  88.0921313
  39.6448553   8.3161673  88.6791313  49.0388553   7.3111673  82.8821313
  49.7048553   7.8521673  83.0421313  48.6938553   7.6221673  82.1431313
  49.0858553   7.4371673  82.7971313  49.3518553  15.3771673  78.6891313
  49.1778553  14.7231673  79.2391313  50.0648553  15.1061673  78.2661313
  49.4318553  15.2401673  78.7081313  37.7728553  12.6761673  75.7161313
  37.5288553  12.3691673  76.4961313  37.7398553  11.9731673  75.2001313
  37.7318553  12.5271673  75.7551313  40.5918553  10.9211673  74.4591313
  39.7738553  10.6531673  74.5991313  40.5638553  11.7731673  74.6441313
  40.4668553  11.0081673  74.5071313  47.0268553  12.8301673  86.3801313
  47.2328553  13.1311673  87.1721313  46.9658553  13.5521673  85.8951313
  47.0478553  12.9811673  86.4251313  51.8388553  11.4691673  85.8381313
  51.8068553  10.6071673  85.7031313  51.1458553  11.7711673  85.4041313
  51.7318553  11.3861673  85.7541313  49.9438553  14.7291673  84.6351313
  50.4708553  14.6461673  83.9441313  49.5528553  13.9511673  84.6891313
  49.9638553  14.6021673  84.5411313  45.8168553   5.9811673  81.3361313
  46.3678553   5.3741673  81.6361313  45.3918553   6.2441673  82.0511313
  45.8358553   5.9301673  81.4851313  36.0648553   4.6311673  80.8221313
  35.6968553   4.9331673  81.5531313  36.5988553   4.0021673  81.1061313
  36.0888553   4.5831673  80.9721313  35.7528553  13.0391673  88.3331313
  35.1788553  13.4551673  88.8421313  36.4858553  13.5041673  88.4281313
  35.7768553  13.1691673  88.4221313  47.7868553   7.8121673  77.8981313
  47.8548553   6.9621673  78.0791313  46.9638553   7.8981673  77.6201313
  47.6748553   7.6991673  77.8841313  37.5388553  16.3061673  77.1081313
  37.3938553  16.4621673  76.2621313  38.4048553  16.3851673  77.1861313
  37.6458553  16.3411673  76.9951313  41.7058553   8.7031673  76.8361313
  41.8058553   8.8421673  75.9811313  42.5238553   8.6431673  77.1321313
  41.8408553   8.7141673  76.7531313  50.8658553  16.7671673  74.3161313
  51.5028553  16.6331673  74.8971313  50.5248553  15.9731673  74.1991313
  50.9098553  16.6301673  74.3841313  46.9408553  13.0321673  76.6381313
  46.6898553  12.9041673  77.4641313  46.6238553  12.3371673  76.2171313
  46.8568553  12.9111673  76.6981313  51.5848553   4.6901673  84.7581313
  50.7518553   4.9401673  84.6861313  51.5288553   3.8501673  84.9871313
  51.4538553   4.6031673  84.7811313  38.2258553  15.1211673  83.5851313
  38.1468553  14.3111673  83.2691313  37.7818553  15.6081673  83.0131313
  38.1488553  15.0731673  83.4541313  43.8268553  11.2401673  76.0681313
  44.5438553  10.8931673  75.7121313  43.7928553  12.0401673  75.7201313
  43.9278553  11.3071673  75.9641313  35.7978553  17.3651673  87.1661313
  36.2908553  17.3091673  87.8841313  35.9858553  16.6321673  86.7311313
  35.8988553  17.2481673  87.2081313  45.0448553   6.7971673  64.9778903
  44.5208553   7.3931673  65.3408903  45.4418553   6.4291673  65.6618903
  45.0258553   6.8311673  65.1328903  34.9138553  10.9371673  60.4338903
  34.4728553  11.0551673  61.1768903  34.6308553  10.1621673  60.1488903
  34.8068553  10.8401673  60.5018903  51.1888553  14.2381673  57.9488903
  51.8898553  13.7191673  57.9448903  50.6018553  13.7931673  57.4798903
  51.2058553  14.0951673  57.8788903  34.6568553   4.7291673  56.9408903
  33.8788553   4.8911673  56.5808903  34.6958553   3.8581673  56.9628903
  34.5478553   4.6241673  56.8908903  37.7958553   9.9921673  55.6128903
  37.4038553   9.6211673  54.9268903  37.7158553   9.3941673  56.2418903
  37.7258553   9.8491673  55.6038903  47.7158553   7.8641673  61.6538903
  47.7958553   7.8681673  60.7848903  47.1318553   7.2321673  61.8028903
  47.6408553   7.7711673  61.5478903  37.4228553  11.6331673  59.5128903
  38.0308553  11.4631673  60.1158903  36.6718553  11.4931673  59.9338903
  37.4018553  11.5871673  59.6638903  36.3138553  14.7241673  55.5898903
  36.7808553  14.8081673  54.8578903  36.7688553  14.1461673  56.0588903
  36.4498553  14.6511673  55.5508903  34.8538553  13.6721673  66.6888903
  34.9828553  13.3921673  67.5048903  34.2438553  13.1311673  66.3798903
  34.7828553  13.5511673  66.7638903  41.4278553  11.1971673  71.7558903
  41.1918553  11.1941673  72.5958903  40.6798553  11.0491673  71.3318903
  41.2818553  11.1741673  71.8168903  36.2998553   8.1931673  60.8908903
  35.8378553   7.8011673  60.2638903  36.9998553   7.6801673  60.9828903
  36.3348553   8.0601673  60.8118903  40.8078553   3.8031673  66.2378903
  41.4858553   3.8211673  65.6888903  40.7628553   2.9671673  66.4828903
  40.9008553   3.6821673  66.1928903  41.4098553  14.3891673  69.0188903
  41.5478553  15.1491673  68.6118903  42.2008553  14.0241673  69.0458903
  41.5468553  14.4481673  68.9628903  38.3008553   6.2931673  60.9138903
  39.1178553   6.1061673  61.1568903  37.8238553   5.6791673  61.3098903
  38.3508553   6.1751673  61.0088903  42.5048553  12.2741673  63.5238903
  42.8528553  11.4751673  63.5538903  43.1698553  12.7781673  63.2688903
  42.6548553  12.2301673  63.4908903  42.5618553  11.7231673  59.7348903
  42.8928553  11.0791673  60.2208903  42.8018553  11.5121673  58.9238903
  42.6458553  11.5971673  59.6868903  44.5298553   5.8541673  71.0738903
  43.6818553   5.7551673  70.8958903  44.5588553   6.5991673  71.5278903
  44.4088553   5.9501673  71.1148903  46.5498553   3.4551673  54.7018903
  46.0998553   4.1361673  55.0088903  46.6638553   2.9511673  55.4048903
  46.5008553   3.4811673  54.8508903  34.7558553   5.9541673  63.9038903
  34.4998553   6.7851673  63.8288903  34.0918553   5.5711673  64.3208903
  34.6198553   6.0201673  63.9548903  34.6658553  15.6641673  61.8038903
  34.0738553  16.2221673  61.4908903  35.0918553  15.3951673  61.0918903
  34.6418553  15.7061673  61.6528903  40.5058553  13.5081673  59.2838903
  39.9268553  13.2331673  59.8758903  41.1298553  12.8991673  59.3088903
  40.5128553  13.3781673  59.3748903  46.6488553  15.7961673  56.8058903
  47.3758553  16.2681673  56.9078903  46.8778553  15.0021673  57.0858903
  46.7908553  15.7491673  56.8628903  44.8168553  16.1881673  58.7958903
  45.0308553  16.7151673  59.4578903  45.5838553  16.0141673  58.4168903
  44.9618553  16.2401673  58.8378903  41.0908553   2.9041673  73.6928903
  41.2078553   2.4501673  72.9568903  41.3788553   3.7021673  73.4898903
  41.1508553   2.9551673  73.5538903  36.2108553  14.3341673  59.7348903
  36.8668553  13.7591673  59.7498903  36.5998553  15.0831673  59.5138903
  36.3658553  14.3591673  59.7048903  51.9438553   3.4281673  60.9968903
  51.5978553   4.1061673  61.4228903  51.3078553   2.8301673  61.0128903
  51.7988553   3.4401673  61.0618903  47.2558553  16.1981673  67.1008903
  47.9998553  16.6541673  67.0908903  47.1348553  15.9841673  66.2638903
  47.3478553  16.2341673  66.9758903  36.8238553   2.5011673  72.6768903
  36.0458553   2.1111673  72.6048903  37.3148553   2.0891673  72.0858903
  36.7808553   2.3821673  72.5788903  37.0288553  12.8211673  63.2348903
  37.4518553  12.4651673  62.5608903  37.3528553  12.3991673  63.9268903
  37.1388553  12.7061673  63.2378903  40.2598553  15.6731673  62.5308903
  41.1038553  15.7771673  62.3358903  39.9628553  16.4911673  62.5988903
  40.3408553  15.8091673  62.5118903  44.0668553   5.0701673  60.6178903
  44.3538553   4.8381673  59.8278903  44.7988553   5.1491673  61.0868903
  44.2168553   5.0471673  60.5708903  44.7888553   5.4091673  55.7388903
  45.0698553   6.1971673  55.9878903  44.0128553   5.5741673  55.3758903
  44.7158553   5.5501673  55.7218903  48.8298553  17.3831673  57.2058903
  49.4948553  17.2351673  56.6608903  49.1898553  17.3001673  57.9958903
  48.9818553  17.3491673  57.2418903  39.2578553  16.8921673  68.2708903
  39.5498553  16.8251673  69.0908903  38.6318553  16.2871673  68.2258903
  39.2088553  16.7931673  68.3858903  34.1718553   3.0491673  70.2628903
  34.1678553   3.6361673  70.9088903  34.7658553   3.3611673  69.7058903
  34.2588553   3.1821673  70.2758903  46.5098553  13.3831673  70.8048903
  46.4758553  13.7651673  71.5888903  47.3638553  13.3411673  70.6338903
  46.6308553  13.4331673  70.8958903  43.6478553  13.5801673  55.5548903
  43.4668553  14.1251673  56.2118903  44.4138553  13.8701673  55.2538903
  43.7338553  13.7041673  55.6078903  35.1088553   2.6441673  59.1778903
  34.9948553   1.7801673  59.2088903  34.6338553   2.9381673  59.8478903
  35.0218553   2.5601673  59.2808903  37.2508553  15.0541673  67.3928903
  36.5528553  14.5461673  67.5188903  37.5108553  14.8491673  66.5848903
  37.1858553  14.9491673  67.2918903  44.4128553   3.8521673  57.9228903
  43.9048553   3.1901673  57.6688903  44.4648553   4.3561673  57.2128903
  44.3458553   3.8291673  57.7808903  44.9618553  16.5471673  68.3028903
  45.7298553  16.4671673  67.8968903  44.3788553  16.4261673  67.6648903
  44.9888553  16.5171673  68.1488903  51.2388553  17.1501673  61.2038903
  50.7838553  17.8671673  61.4048903  50.6248553  16.5791673  60.9618903
  51.0808553  17.1721673  61.1978903  43.0108553   3.1601673  62.3358903
  43.0848553   3.7281673  61.6778903  43.1318553   3.6521673  63.0458903
  43.0388553   3.3171673  62.3438903  48.2358553  12.9951673  60.7478903
  48.9368553  12.5131673  60.9368903  47.5758553  12.4261673  60.7928903
  48.2418553  12.8401673  60.7818903  38.6118553  13.9051673  69.9598903
  39.4528553  13.9681673  69.7378903  38.5748553  14.3021673  70.7358903
  38.7308553  13.9731673  70.0418903  40.5748553   9.4161673  64.7088903
  40.7468553   9.2061673  65.5378903  39.9198553   8.8821673  64.4928903
  40.5038553   9.3061673  64.7998903  46.8028553   3.3301673  68.2238903
  46.7078553   3.6491673  69.0298903  46.2098553   2.6911673  68.1858903
  46.7008553   3.2821673  68.3378903  41.3248553   9.3541673  67.2988903
  41.3778553  10.2011673  67.5008903  41.0398553   8.9841673  68.0358903
  41.2908553   9.4241673  67.4368903  47.5018553  10.0491673  66.4288903
  46.9878553   9.6371673  66.9998903  47.3758553  10.8931673  66.6098903
  47.4078553  10.1131673  66.5398903  34.1458553  13.7251673  73.5098903
  34.9018553  14.0741673  73.7678903  34.3228553  12.8721673  73.4528903
  34.2838553  13.6501673  73.5398903  50.5228553   3.5101673  69.3678903
  51.2948553   3.2851673  69.7048903  50.0478553   3.7271673  70.0678903
  50.5668553   3.5091673  69.5208903  38.0668553   2.7931673  62.3378903
  38.3388553   2.3631673  61.6298903  37.8908553   2.1571673  62.9088903
  38.0808553   2.6361673  62.3178903  50.7548553  10.4881673  56.5558903
  50.8738553  10.2011673  57.3708903  51.5618553  10.5091673  56.2258903
  50.8908553  10.4491673  56.6278903  37.8908553  10.2201673  61.8868903
  38.7418553  10.1401673  61.7138903  37.5338553   9.5381673  61.4748903
  37.9638553  10.1071673  61.7998903  36.6578553  16.9451673  63.1238903
  35.9848553  16.4471673  62.8788903  37.0608553  17.1301673  62.3728903
  36.6178553  16.8991673  62.9768903  36.2078553   3.8951673  65.4198903
  37.0508553   4.1151673  65.3768903  35.8188553   4.4681673  64.8888903
  36.2748553   4.0121673  65.3348903  52.9888553  14.9971673  70.8098903
  52.3068553  15.3071673  70.3628903  52.6198553  14.5391673  71.4548903
  52.8328553  14.9751673  70.8388903  48.6498553   7.0251673  56.1408903
  48.4298553   7.7561673  55.7188903  48.2018553   7.0761673  56.8878903
  48.5508553   7.1401673  56.1888903  40.2588553  10.2271673  60.1218903
  40.9718553  10.7221673  60.2118903  40.4808553   9.6601673  59.4958903
  40.3968553  10.2161673  60.0428903  34.4148553  11.8701673  63.4418903
  33.7478553  12.3581673  63.7178903  35.0948553  12.4151673  63.4708903
  34.4168553  12.0221673  63.4868903  42.0618553   5.5801673  73.5378903
  41.5778553   6.1571673  73.9798903  42.0338553   5.8751673  72.7168903
  41.9858553   5.7091673  73.4818903  53.1598553   6.2641673  68.1498903
  53.3748553   5.4641673  67.8738903  52.3098553   6.3241673  67.9608903
  53.0658553   6.1551673  68.0808903  34.4808553   8.5541673  58.5448903
  34.2958553   7.7151673  58.6968903  35.1398553   8.5181673  57.9748903
  34.5508553   8.4251673  58.4828903  44.7818553  13.9301673  62.4488903
  44.2588553  14.5641673  62.1558903  45.0918553  13.5661673  61.7198903
  44.7498553  13.9701673  62.2978903  34.6528553  12.7181673  58.1198903
  35.2048553  13.2871673  58.4838903  34.4208553  12.2031673  58.7848903
  34.6998553  12.7261673  58.2718903  38.8568553  11.7181673  65.2088903
  39.3238553  12.0071673  65.8868903  39.4288553  11.2401673  64.7548903
  39.0108553  11.6901673  65.2418903  47.2928553   3.7321673  62.9458903
  47.6368553   3.8841673  63.7328903  46.8398553   2.9941673  63.0588903
  47.2768553   3.6451673  63.0788903  34.4828553  11.1671673  55.7478903
  35.2388553  10.7351673  55.8058903  34.4978553  11.6991673  56.4388903
  34.5968553  11.1821673  55.8588903  35.4228553   9.3881673  63.7528903
  35.8538553   9.2591673  63.0058903  35.2178553  10.2361673  63.7268903
  35.4558553   9.4941673  63.6388903  41.7688553   2.9521673  57.4028903
  41.7668553   2.8351673  56.5378903  41.5878553   3.8001673  57.4948903
  41.7418553   3.0601673  57.2888903  50.8228553  15.3791673  68.8998903
  50.1518553  15.8931673  69.1178903  50.8858553  15.4791673  68.0358903
  50.7328553  15.4701673  68.8048903  39.5068553  12.9041673  62.0348903
  39.6328553  13.7471673  62.2218903  40.1748553  12.5051673  62.4308903
  39.6248553  12.9701673  62.1208903  37.6368553   6.3871673  71.8968903
  37.1008553   5.8811673  72.3648903  37.6568553   5.9971673  71.1168903
  37.5598553   6.2541673  71.8508903  38.1218553   5.7841673  57.0368903
  37.9938553   5.3361673  57.7748903  37.5398553   5.4421673  56.4848903
  38.0168553   5.6671673  57.0648903  38.2888553   7.6141673  63.6358903
  37.5078553   7.5551673  63.2528903  38.3608553   6.8621673  64.0728903
  38.1838553   7.4951673  63.6438903  38.7188553   7.3511673  67.1038903
  38.7438553   6.6761673  66.5528903  38.0728553   7.8471673  66.7918903
  38.6278553   7.3241673  66.9768903  48.6138553   5.0641673  65.4998903
  47.9518553   5.3921673  65.9628903  48.8008553   5.6981673  64.9308903
  48.5438553   5.2061673  65.4838903  42.8188553  16.1281673  66.4958903
  42.5418553  15.4871673  65.9728903  42.6108553  16.8541673  66.0578903
  42.7478553  16.1411673  66.3538903  46.8068553   3.0331673  59.0108903
  47.2968553   3.7501673  58.9338903  46.0168553   3.2941673  58.7478903
  46.7628553   3.1771673  58.9608903  36.5178553   8.7061673  72.6628903
  36.4808553   9.2071673  71.9488903  36.8488553   7.9541673  72.3678903
  36.5608553   8.6681673  72.5138903  48.1208553  10.9111673  70.9208903
  48.6048553  11.6291673  71.0188903  48.5148553  10.4841673  70.2698903
  48.2508553  10.9541673  70.8388903  42.4168553  13.7561673  72.0978903
  42.7708553  13.5781673  72.8748903  41.9808553  13.0271673  71.8988903
  42.4048553  13.6221673  72.1838903  43.3888553   4.5031673  64.7358903
  43.8688553   5.2021673  64.9438903  43.7618553   3.8561673  65.1868903
  43.5148553   4.5111673  64.8328903  45.5778553   7.6721673  57.0098903
  45.5698553   8.3941673  56.5198903  44.9388553   7.8071673  57.5868903
  45.4828553   7.7991673  57.0228903  50.5498553  11.5421673  60.9908903
  50.9058553  11.1921673  61.7058903  50.5418553  10.8811673  60.4208903
  50.6018553  11.3921673  61.0118903  46.5948553  14.6081673  64.8348903
  45.9918553  14.3121673  64.2778903  47.1398553  15.0601673  64.3258903
  46.5858553  14.6311673  64.6768903  46.6078553  11.4591673  64.2348903
  45.8108553  11.6831673  64.5088903  46.8658553  10.8651673  64.8198903
  46.5278553  11.4041673  64.3618903  40.4998553  16.2711673  58.6828903
  40.3528553  15.4951673  59.0538903  41.1888553  16.1241673  58.1678903
  40.5798553  16.1341673  58.6618903  42.7918553  15.7871673  57.0848903
  43.4138553  15.9501673  57.6748903  42.8278553  16.4781673  56.5528903
  42.8888553  15.9131673  57.0938903  49.8678553   9.4571673  69.0808903
  49.9228553   9.5821673  68.2188903  50.6208553   9.7771673  69.3828903
  49.9868553   9.5221673  68.9978903  46.0588553  14.8061673  73.3578903
  46.2228553  15.0891673  74.1668903  46.3218553  15.4671673  72.8528903
  46.1218553  14.9461673  73.4028903  37.2928553   8.3211673  57.9138903
  37.6168553   7.5421673  57.6918903  37.9388553   8.6891673  58.3688903
  37.4358553   8.2601673  57.9478903  45.5988553   9.2631673  68.6808903
  45.4438553   9.8731673  69.2848903  46.1328553   8.7051673  69.0868903
  45.6548553   9.2711673  68.8298903  43.9828553   7.6631673  59.3388903
  44.0418553   8.3131673  59.9178903  43.7938553   6.9671673  59.8298903
  43.9638553   7.6561673  59.4968903  49.2088553  11.9921673  65.2078903
  48.7298553  12.2901673  64.5418903  48.8528553  11.2161673  65.3858903
  49.0858553  11.9211673  65.1358903  38.4788553   2.1801673  55.8508903
  37.9678553   2.2331673  55.1448903  39.2628553   2.4201673  55.5548903
  38.5188553   2.2231673  55.7028903  43.2058553   9.7101673  63.7698903
  42.3588553   9.5161673  63.8508903  43.5298553   9.5451673  64.5628903
  43.1278553   9.6571673  63.8988903  39.9578553  16.4401673  54.6558903
  40.3968553  15.7431673  54.9438903  40.1648553  17.0641673  55.2288903
  40.0538553  16.4291673  54.7828903  37.0538553   9.4031673  66.0858903
  37.7758553   9.8911673  66.0488903  36.7838553   9.3731673  65.2568903
  37.1208553   9.4711673  65.9578903  40.2838553   4.5741673  62.8208903
  41.1298553   4.3841673  62.9188903  39.9138553   3.7971673  62.6828903
  40.3538553   4.4311673  62.8148903  52.9008553  16.1581673  57.1478903
  53.5948553  15.6911673  56.8998903  52.3618553  15.5601673  57.4848903
  52.9238553  16.0001673  57.1608903  35.1048553   5.9121673  59.4758903
  35.5938553   5.6201673  60.1368903  35.2338553   5.3191673  58.8488903
  35.1958553   5.7811673  59.4808903  50.1398553   8.9341673  66.3268903
  50.1328553   8.1581673  66.7248903  49.2988553   9.1681673  66.3198903
  50.0148553   8.8541673  66.3848903  39.6298553   7.3461673  54.9618903
  39.0198553   6.9411673  55.4358903  39.2438553   7.4641673  54.1888903
  39.4828553   7.3031673  54.9178903  36.4488553  10.4551673  70.3638903
  36.0278553   9.9371673  69.8028903  36.0968553  11.2411673  70.2208903
  36.3348553  10.4951673  70.2598903  51.3958553   9.0051673  63.7638903
  51.1098553   9.4061673  64.4838903  52.2558553   8.9431673  63.8908903
  51.4808553   9.0551673  63.8888903  41.0848553   5.8071673  57.6718903
  41.3568553   6.6331673  57.7388903  40.2218553   5.8821673  57.5758903
  40.9978553   5.9401673  57.6668903  49.0578553   2.9291673  72.3038903
  48.5328553   3.3881673  72.8278903  48.6968553   2.1341673  72.2978903
  48.9268553   2.8791673  72.3798903  34.5648553   1.7771673  64.2078903
  34.6088553   2.1211673  63.4068903  35.3198553   2.0141673  64.5748903
  34.6828553   1.8631673  64.1438903  52.5268553  14.6381673  64.2928903
  52.8168553  14.8951673  63.5118903  53.2218553  14.7341673  64.8118903
  52.6728553  14.6901673  64.2538903  47.5498553   6.4981673  72.3798903
  47.6228553   6.6021673  73.2428903  46.9158553   7.0561673  72.1588903
  47.4668553   6.5961673  72.4748903  49.8178553   6.8171673  70.7448903
  50.1368553   7.6031673  70.9478903  49.4478553   6.5471673  71.4878903
  49.8108553   6.8931673  70.8848903  49.1318553  13.2411673  56.2748903
  49.4658553  12.4351673  56.3098903  48.3768553  13.1691673  56.7048903
  49.0698553  13.1111673  56.3438903  49.6138553   5.0751673  61.9338903
  48.8688553   4.7521673  62.2518903  49.6158553   5.9011673  62.2138903
  49.5038553   5.1491673  62.0218903  52.5158553   7.3591673  73.4798903
  52.4638553   7.0181673  72.6788903  53.2528553   7.8261673  73.4578903
  52.6168553   7.3781673  73.3578903  52.0538553  11.0351673  69.6858903
  52.6818553  10.4861673  69.4298903  51.9928553  11.6001673  69.0238903
  52.1378553  11.0381673  69.5498903  46.5058553  11.1161673  55.6778903
  47.1898553  10.6021673  55.5088903  46.0888553  11.1621673  54.9128903
  46.5448553  11.0471673  55.5398903  41.1878553  12.2661673  66.9818903
  40.8898553  12.8581673  67.5488903  41.2428553  12.7081673  66.2328903
  41.1518553  12.4191673  66.9548903  39.1668553  11.2161673  70.3798903
  38.3608553  10.9261673  70.5468903  39.0778553  12.0841673  70.3858903
  39.0348553  11.3011673  70.4048903  43.7038553   8.6891673  66.4728903
  44.1798553   9.0631673  67.1008903  42.8808553   8.8231673  66.7318903
  43.6528553   8.7641673  66.6038903  40.4138553   4.2921673  69.2138903
  40.5748553   3.5481673  69.6408903  40.3688553   4.0431673  68.3788903
  40.4308553   4.1451673  69.1538903  42.9678553  16.0821673  61.7008903
  43.5138553  16.7611673  61.7548903  42.6178553  16.1641673  60.9058903
  42.9968553  16.1951673  61.5908903  41.1508553  14.3101673  65.0898903
  40.5268553  14.8921673  64.9078903  41.3988553  14.0241673  64.3038903
  41.0948553  14.3541673  64.9468903  45.4598553  10.9441673  72.0788903
  46.2168553  11.2301673  71.7528903  44.9128553  10.9961673  71.4008903
  45.4908553  10.9941673  71.9298903  49.3688553  13.4941673  70.5828903
  49.7148553  13.7641673  71.3368903  49.6628553  14.0761673  70.0028903
  49.4638553  13.6201673  70.6088903  51.2318553   5.6401673  55.9218903
  51.6098553   6.3171673  55.5218903  50.3898553   5.8641673  55.9528903
  51.1628553   5.7731673  55.8668903  42.7448553   9.0861673  55.0048903
  41.9398553   8.9091673  54.7198903  42.7118553   9.9371673  55.1968903
  42.6208553   9.1851673  54.9918903  38.6748553   5.1531673  65.1548903
  39.1148553   5.0501673  64.4088903  39.2198553   4.8401673  65.7598903
  38.8198553   5.0921673  65.1338903  46.6908553   4.2551673  70.7468903
  46.0428553   4.7251673  71.0948903  47.2558553   4.1661673  71.4058903
  46.6788553   4.3111673  70.8958903  46.3788553   5.7921673  67.0448903
  46.6808553   6.2121673  67.7478903  46.4148553   4.9521673  67.2768903
  46.4288553   5.7301673  67.1828903  43.8038553  15.9591673  70.9698903
  44.2818553  15.3591673  70.5538903  43.4528553  15.5161673  71.6348903
  43.8228553  15.8051673  71.0068903  48.9268553   5.2391673  59.2968903
  49.1338553   5.0381673  60.1208903  49.6828553   5.5071673  58.9548903
  49.0688553   5.2491673  59.3678903  50.3918553   9.2661673  59.1508903
  50.8678553   8.5371673  59.1028903  49.5708553   8.9801673  59.0748903
  50.3408553   9.1161673  59.1318903  39.6928553  17.3851673  65.3068903
  39.7038553  17.4441673  66.1768903  39.2678553  16.6381673  65.1568903
  39.6318553  17.2831673  65.4128903  37.8508553   3.2801673  58.4618903
  37.9768553   2.9511673  57.6638903  37.0388553   3.0311673  58.6608903
  37.7498553   3.1951673  58.3738903  46.6078553  10.4331673  61.5058903
  46.6838553  10.7741673  62.3048903  46.7768553   9.5861673  61.6268903
  46.6438553  10.3581673  61.6418903  44.1298553   9.7071673  61.0708903
  43.8318553   9.3921673  61.8278903  44.8248553  10.1801673  61.3058903
  44.1888553   9.7301673  61.2178903  44.3518553  13.8251673  69.0978903
  45.0388553  13.7111673  69.6228903  44.4858553  14.6161673  68.7538903
  44.4728553  13.9251673  69.1248903  52.5278553   6.4341673  70.9088903
  51.6728553   6.3121673  71.0348903  52.6808553   6.0391673  70.1458903
  52.4238553   6.3571673  70.8148903  47.0408553   7.0991673  69.4848903
  46.7858553   6.3801673  69.9068903  47.8618553   7.2151673  69.7548903
  47.1248553   7.0101673  69.5868903  36.4568553  16.8831673  70.7488903
  35.8028553  16.3141673  70.8468903  36.0818553  17.6561673  70.8998903
  36.3048553  16.9131673  70.7858903  44.9748553   8.2891673  72.6718903
  45.2978553   8.9751673  72.2398903  44.2708553   8.6121673  73.0738903
  44.9178553   8.4381673  72.6668903  48.0588553  16.6631673  63.6008903
  47.6078553  17.3061673  63.9798903  48.7668553  16.5841673  64.1058903
  48.0968553  16.7461673  63.7318903  44.7598553  11.7531673  66.5308903
  44.0658553  12.1551673  66.8738903  45.4368553  12.1861673  66.8698903
  44.7568553  11.8761673  66.6318903  50.1368553  14.3461673  73.1108903
  50.9128553  13.9561673  73.1938903  49.6678553  14.0101673  73.7658903
  50.1818553  14.2391673  73.2198903  37.8278553   5.2911673  68.8778903
  38.2028553   5.9101673  68.3908903  38.5018553   4.8171673  69.1628903
  37.9828553   5.3131673  68.8478903  35.6028553   3.7391673  68.1528903
  35.6798553   3.5701673  67.2998903  36.3488553   4.1451673  68.3498903
  35.7238553   3.7741673  68.0558903  51.1618553   6.3791673  58.5928903
  51.2648553   6.3211673  57.7288903  51.9028553   6.0471673  58.9108903
  51.2868553   6.3221673  58.5118903  45.0818553  13.3441673  59.6998903
  44.8768553  14.1771673  59.5408903  44.3068553  12.9621673  59.8218903
  44.9368553  13.4111673  59.6948903  50.2638553   6.5251673  67.9488903
  50.2618553   5.6621673  68.0728903  50.3308553   6.8491673  68.7558903
  50.2738553   6.4451673  68.0858903  34.9998553   8.9651673  68.3768903
  35.3198553   9.1841673  67.5958903  34.8998553   8.1001673  68.3218903
  35.0318553   8.8701673  68.2538903  36.4558553   4.9011673  54.9948903
  35.7838553   4.9151673  55.5508903  36.5508553   4.0531673  54.8108903
  36.3708553   4.7781673  55.0498903  40.4438553  13.6061673  56.1088903
  40.8848553  13.6861673  56.8568903  39.6388553  13.3901673  56.3668903
  40.3898553  13.5861673  56.2578903  48.7348553   2.0311673  65.3848903
  49.5898553   2.1301673  65.5298903  48.3658553   2.5841673  65.9498903
  48.8068553   2.1281673  65.4898903  39.7628553   8.2571673  69.7618903
  39.3668553   9.0311673  69.8368903  39.3568553   7.8841673  69.0858903
  39.6448553   8.3161673  69.6728903  49.0388553   7.3111673  63.8758903
  49.7048553   7.8521673  64.0358903  48.6938553   7.6221673  63.1368903
  49.0858553   7.4371673  63.7908903  49.3518553  15.3771673  59.6828903
  49.1778553  14.7231673  60.2328903  50.0648553  15.1061673  59.2598903
  49.4318553  15.2401673  59.7018903  37.7728553  12.6761673  56.7098903
  37.5288553  12.3691673  57.4898903  37.7398553  11.9731673  56.1938903
  37.7318553  12.5271673  56.7488903  40.5918553  10.9211673  55.4528903
  39.7738553  10.6531673  55.5928903  40.5638553  11.7731673  55.6378903
  40.4668553  11.0081673  55.5008903  47.0268553  12.8301673  67.3738903
  47.2328553  13.1311673  68.1658903  46.9658553  13.5521673  66.8888903
  47.0478553  12.9811673  67.4188903  46.5608553  17.0441673  71.6198903
  45.8078553  17.0261673  71.1788903  46.7288553  17.8961673  71.7038903
  46.4748553  17.1671673  71.5668903  41.7978553   6.3111673  70.7898903
  41.4758553   5.7351673  70.2198903  41.4388553   7.0661673  70.5438903
  41.6978553   6.3371673  70.6698903  51.8388553  11.4691673  66.8318903
  51.8068553  10.6071673  66.6968903  51.1458553  11.7711673  66.3978903
  51.7318553  11.3861673  66.7478903  40.2328553  16.6671673  71.0378903
  40.2738553  16.7931673  71.9008903  40.8838553  16.1071673  70.8818903
  40.3348553  16.6031673  71.1428903  49.9438553  14.7291673  65.6288903
  50.4708553  14.6461673  64.9378903  49.5528553  13.9511673  65.6828903
  49.9638553  14.6021673  65.5348903  37.8258553  15.0501673  72.3978903
  38.4208553  15.4811673  72.8698903  37.4618553  15.6741673  71.9088903
  37.8598553  15.2061673  72.3948903  45.8168553   5.9811673  62.3298903
  46.3678553   5.3741673  62.6298903  45.3918553   6.2441673  63.0448903
  45.8358553   5.9301673  62.4788903  36.0648553   4.6311673  61.8158903
  35.6968553   4.9331673  62.5468903  36.5988553   4.0021673  62.0998903
  36.0888553   4.5831673  61.9658903  35.7528553  13.0391673  69.3268903
  35.1788553  13.4551673  69.8358903  36.4858553  13.5041673  69.4218903
  35.7768553  13.1691673  69.4158903  47.7868553   7.8121673  58.8918903
  47.8548553   6.9621673  59.0728903  46.9638553   7.8981673  58.6138903
  47.6748553   7.6991673  58.8778903  37.5388553  16.3061673  58.1018903
  37.3938553  16.4621673  57.2558903  38.4048553  16.3851673  58.1798903
  37.6458553  16.3411673  57.9888903  41.7058553   8.7031673  57.8298903
  41.8058553   8.8421673  56.9748903  42.5238553   8.6431673  58.1258903
  41.8408553   8.7141673  57.7468903  50.8658553  16.7671673  55.3098903
  51.5028553  16.6331673  55.8908903  50.5248553  15.9731673  55.1928903
  50.9098553  16.6301673  55.3778903  51.0608553   9.1851673  72.0428903
  51.6948553   9.0151673  72.6168903  51.4778553   9.5881673  71.3908903
  51.2158553   9.2201673  72.0318903  46.9408553  13.0321673  57.6318903
  46.6898553  12.9041673  58.4578903  46.6238553  12.3371673  57.2108903
  46.8568553  12.9111673  57.6918903  51.6858553   3.7491673  72.7808903
  51.4898553   4.3931673  73.3358903  50.9638553   3.2591673  72.7728903
  51.5508553   3.7721673  72.8618903  51.5848553   4.6901673  65.7518903
  50.7518553   4.9401673  65.6798903  51.5288553   3.8501673  65.9808903
  51.4538553   4.6031673  65.7748903  48.4718553   9.2961673  73.3978903
  49.3428553   9.2601673  73.3618903  48.2528553   9.7161673  72.6658903
  48.5688553   9.3521673  73.2848903  38.2258553  15.1211673  64.5788903
  38.1468553  14.3111673  64.2628903  37.7818553  15.6081673  64.0068903
  38.1488553  15.0731673  64.4478903  43.8268553  11.2401673  57.0618903
  44.5438553  10.8931673  56.7058903  43.7928553  12.0401673  56.7138903
  43.9278553  11.3071673  56.9578903  35.7978553  17.3651673  68.1598903
  36.2908553  17.3091673  68.8778903  35.9858553  16.6321673  67.7248903
  35.8988553  17.2481673  68.2018903  45.0448553   6.7971673  45.9716493
  44.5208553   7.3931673  46.3346493  45.4418553   6.4291673  46.6556493
  45.0258553   6.8311673  46.1266493  34.9138553  10.9371673  41.4276493
  34.4728553  11.0551673  42.1706493  34.6308553  10.1621673  41.1426493
  34.8068553  10.8401673  41.4956493  51.1888553  14.2381673  38.9426493
  51.8898553  13.7191673  38.9386493  50.6018553  13.7931673  38.4736493
  51.2058553  14.0951673  38.8726493  34.6568553   4.7291673  37.9346493
  33.8788553   4.8911673  37.5746493  34.6958553   3.8581673  37.9566493
  34.5478553   4.6241673  37.8846493  37.7958553   9.9921673  36.6066493
  37.4038553   9.6211673  35.9206493  37.7158553   9.3941673  37.2356493
  37.7258553   9.8491673  36.5976493  47.7158553   7.8641673  42.6476493
  47.7958553   7.8681673  41.7786493  47.1318553   7.2321673  42.7966493
  47.6408553   7.7711673  42.5416493  37.4228553  11.6331673  40.5066493
  38.0308553  11.4631673  41.1096493  36.6718553  11.4931673  40.9276493
  37.4018553  11.5871673  40.6576493  36.3138553  14.7241673  36.5836493
  36.7808553  14.8081673  35.8516493  36.7688553  14.1461673  37.0526493
  36.4498553  14.6511673  36.5446493  34.8538553  13.6721673  47.6826493
  34.9828553  13.3921673  48.4986493  34.2438553  13.1311673  47.3736493
  34.7828553  13.5511673  47.7576493  41.4278553  11.1971673  52.7496493
  41.1918553  11.1941673  53.5896493  40.6798553  11.0491673  52.3256493
  41.2818553  11.1741673  52.8106493  36.2998553   8.1931673  41.8846493
  35.8378553   7.8011673  41.2576493  36.9998553   7.6801673  41.9766493
  36.3348553   8.0601673  41.8056493  40.8078553   3.8031673  47.2316493
  41.4858553   3.8211673  46.6826493  40.7628553   2.9671673  47.4766493
  40.9008553   3.6821673  47.1866493  41.4098553  14.3891673  50.0126493
  41.5478553  15.1491673  49.6056493  42.2008553  14.0241673  50.0396493
  41.5468553  14.4481673  49.9566493  38.3008553   6.2931673  41.9076493
  39.1178553   6.1061673  42.1506493  37.8238553   5.6791673  42.3036493
  38.3508553   6.1751673  42.0026493  42.5048553  12.2741673  44.5176493
  42.8528553  11.4751673  44.5476493  43.1698553  12.7781673  44.2626493
  42.6548553  12.2301673  44.4846493  42.5618553  11.7231673  40.7286493
  42.8928553  11.0791673  41.2146493  42.8018553  11.5121673  39.9176493
  42.6458553  11.5971673  40.6806493  44.5298553   5.8541673  52.0676493
  43.6818553   5.7551673  51.8896493  44.5588553   6.5991673  52.5216493
  44.4088553   5.9501673  52.1086493  46.5498553   3.4551673  35.6956493
  46.0998553   4.1361673  36.0026493  46.6638553   2.9511673  36.3986493
  46.5008553   3.4811673  35.8446493  34.7558553   5.9541673  44.8976493
  34.4998553   6.7851673  44.8226493  34.0918553   5.5711673  45.3146493
  34.6198553   6.0201673  44.9486493  34.6658553  15.6641673  42.7976493
  34.0738553  16.2221673  42.4846493  35.0918553  15.3951673  42.0856493
  34.6418553  15.7061673  42.6466493  40.5058553  13.5081673  40.2776493
  39.9268553  13.2331673  40.8696493  41.1298553  12.8991673  40.3026493
  40.5128553  13.3781673  40.3686493  46.6488553  15.7961673  37.7996493
  47.3758553  16.2681673  37.9016493  46.8778553  15.0021673  38.0796493
  46.7908553  15.7491673  37.8566493  44.8168553  16.1881673  39.7896493
  45.0308553  16.7151673  40.4516493  45.5838553  16.0141673  39.4106493
  44.9618553  16.2401673  39.8316493  41.0908553   2.9041673  54.6866493
  41.2078553   2.4501673  53.9506493  41.3788553   3.7021673  54.4836493
  41.1508553   2.9551673  54.5476493  36.2108553  14.3341673  40.7286493
  36.8668553  13.7591673  40.7436493  36.5998553  15.0831673  40.5076493
  36.3658553  14.3591673  40.6986493  51.9438553   3.4281673  41.9906493
  51.5978553   4.1061673  42.4166493  51.3078553   2.8301673  42.0066493
  51.7988553   3.4401673  42.0556493  47.2558553  16.1981673  48.0946493
  47.9998553  16.6541673  48.0846493  47.1348553  15.9841673  47.2576493
  47.3478553  16.2341673  47.9696493  36.8238553   2.5011673  53.6706493
  36.0458553   2.1111673  53.5986493  37.3148553   2.0891673  53.0796493
  36.7808553   2.3821673  53.5726493  37.0288553  12.8211673  44.2286493
  37.4518553  12.4651673  43.5546493  37.3528553  12.3991673  44.9206493
  37.1388553  12.7061673  44.2316493  40.2598553  15.6731673  43.5246493
  41.1038553  15.7771673  43.3296493  39.9628553  16.4911673  43.5926493
  40.3408553  15.8091673  43.5056493  44.0668553   5.0701673  41.6116493
  44.3538553   4.8381673  40.8216493  44.7988553   5.1491673  42.0806493
  44.2168553   5.0471673  41.5646493  44.7888553   5.4091673  36.7326493
  45.0698553   6.1971673  36.9816493  44.0128553   5.5741673  36.3696493
  44.7158553   5.5501673  36.7156493  48.8298553  17.3831673  38.1996493
  49.4948553  17.2351673  37.6546493  49.1898553  17.3001673  38.9896493
  48.9818553  17.3491673  38.2356493  39.2578553  16.8921673  49.2646493
  39.5498553  16.8251673  50.0846493  38.6318553  16.2871673  49.2196493
  39.2088553  16.7931673  49.3796493  34.1718553   3.0491673  51.2566493
  34.1678553   3.6361673  51.9026493  34.7658553   3.3611673  50.6996493
  34.2588553   3.1821673  51.2696493  46.5098553  13.3831673  51.7986493
  46.4758553  13.7651673  52.5826493  47.3638553  13.3411673  51.6276493
  46.6308553  13.4331673  51.8896493  43.6478553  13.5801673  36.5486493
  43.4668553  14.1251673  37.2056493  44.4138553  13.8701673  36.2476493
  43.7338553  13.7041673  36.6016493  35.1088553   2.6441673  40.1716493
  34.9948553   1.7801673  40.2026493  34.6338553   2.9381673  40.8416493
  35.0218553   2.5601673  40.2746493  37.2508553  15.0541673  48.3866493
  36.5528553  14.5461673  48.5126493  37.5108553  14.8491673  47.5786493
  37.1858553  14.9491673  48.2856493  44.4128553   3.8521673  38.9166493
  43.9048553   3.1901673  38.6626493  44.4648553   4.3561673  38.2066493
  44.3458553   3.8291673  38.7746493  44.9618553  16.5471673  49.2966493
  45.7298553  16.4671673  48.8906493  44.3788553  16.4261673  48.6586493
  44.9888553  16.5171673  49.1426493  51.2388553  17.1501673  42.1976493
  50.7838553  17.8671673  42.3986493  50.6248553  16.5791673  41.9556493
  51.0808553  17.1721673  42.1916493  43.0108553   3.1601673  43.3296493
  43.0848553   3.7281673  42.6716493  43.1318553   3.6521673  44.0396493
  43.0388553   3.3171673  43.3376493  48.2358553  12.9951673  41.7416493
  48.9368553  12.5131673  41.9306493  47.5758553  12.4261673  41.7866493
  48.2418553  12.8401673  41.7756493  38.6118553  13.9051673  50.9536493
  39.4528553  13.9681673  50.7316493  38.5748553  14.3021673  51.7296493
  38.7308553  13.9731673  51.0356493  40.5748553   9.4161673  45.7026493
  40.7468553   9.2061673  46.5316493  39.9198553   8.8821673  45.4866493
  40.5038553   9.3061673  45.7936493  46.8028553   3.3301673  49.2176493
  46.7078553   3.6491673  50.0236493  46.2098553   2.6911673  49.1796493
  46.7008553   3.2821673  49.3316493  41.3248553   9.3541673  48.2926493
  41.3778553  10.2011673  48.4946493  41.0398553   8.9841673  49.0296493
  41.2908553   9.4241673  48.4306493  47.5018553  10.0491673  47.4226493
  46.9878553   9.6371673  47.9936493  47.3758553  10.8931673  47.6036493
  47.4078553  10.1131673  47.5336493  34.1458553  13.7251673  54.5036493
  34.9018553  14.0741673  54.7616493  34.3228553  12.8721673  54.4466493
  34.2838553  13.6501673  54.5336493  50.5228553   3.5101673  50.3616493
  51.2948553   3.2851673  50.6986493  50.0478553   3.7271673  51.0616493
  50.5668553   3.5091673  50.5146493  38.0668553   2.7931673  43.3316493
  38.3388553   2.3631673  42.6236493  37.8908553   2.1571673  43.9026493
  38.0808553   2.6361673  43.3116493  50.7548553  10.4881673  37.5496493
  50.8738553  10.2011673  38.3646493  51.5618553  10.5091673  37.2196493
  50.8908553  10.4491673  37.6216493  37.8908553  10.2201673  42.8806493
  38.7418553  10.1401673  42.7076493  37.5338553   9.5381673  42.4686493
  37.9638553  10.1071673  42.7936493  36.6578553  16.9451673  44.1176493
  35.9848553  16.4471673  43.8726493  37.0608553  17.1301673  43.3666493
  36.6178553  16.8991673  43.9706493  36.2078553   3.8951673  46.4136493
  37.0508553   4.1151673  46.3706493  35.8188553   4.4681673  45.8826493
  36.2748553   4.0121673  46.3286493  52.9888553  14.9971673  51.8036493
  52.3068553  15.3071673  51.3566493  52.6198553  14.5391673  52.4486493
  52.8328553  14.9751673  51.8326493  48.6498553   7.0251673  37.1346493
  48.4298553   7.7561673  36.7126493  48.2018553   7.0761673  37.8816493
  48.5508553   7.1401673  37.1826493  40.2588553  10.2271673  41.1156493
  40.9718553  10.7221673  41.2056493  40.4808553   9.6601673  40.4896493
  40.3968553  10.2161673  41.0366493  34.4148553  11.8701673  44.4356493
  33.7478553  12.3581673  44.7116493  35.0948553  12.4151673  44.4646493
  34.4168553  12.0221673  44.4806493  42.0618553   5.5801673  54.5316493
  41.5778553   6.1571673  54.9736493  42.0338553   5.8751673  53.7106493
  41.9858553   5.7091673  54.4756493  53.1598553   6.2641673  49.1436493
  53.3748553   5.4641673  48.8676493  52.3098553   6.3241673  48.9546493
  53.0658553   6.1551673  49.0746493  34.4808553   8.5541673  39.5386493
  34.2958553   7.7151673  39.6906493  35.1398553   8.5181673  38.9686493
  34.5508553   8.4251673  39.4766493  44.7818553  13.9301673  43.4426493
  44.2588553  14.5641673  43.1496493  45.0918553  13.5661673  42.7136493
  44.7498553  13.9701673  43.2916493  34.6528553  12.7181673  39.1136493
  35.2048553  13.2871673  39.4776493  34.4208553  12.2031673  39.7786493
  34.6998553  12.7261673  39.2656493  38.8568553  11.7181673  46.2026493
  39.3238553  12.0071673  46.8806493  39.4288553  11.2401673  45.7486493
  39.0108553  11.6901673  46.2356493  47.2928553   3.7321673  43.9396493
  47.6368553   3.8841673  44.7266493  46.8398553   2.9941673  44.0526493
  47.2768553   3.6451673  44.0726493  34.4828553  11.1671673  36.7416493
  35.2388553  10.7351673  36.7996493  34.4978553  11.6991673  37.4326493
  34.5968553  11.1821673  36.8526493  35.4228553   9.3881673  44.7466493
  35.8538553   9.2591673  43.9996493  35.2178553  10.2361673  44.7206493
  35.4558553   9.4941673  44.6326493  41.7688553   2.9521673  38.3966493
  41.7668553   2.8351673  37.5316493  41.5878553   3.8001673  38.4886493
  41.7418553   3.0601673  38.2826493  50.8228553  15.3791673  49.8936493
  50.1518553  15.8931673  50.1116493  50.8858553  15.4791673  49.0296493
  50.7328553  15.4701673  49.7986493  39.5068553  12.9041673  43.0286493
  39.6328553  13.7471673  43.2156493  40.1748553  12.5051673  43.4246493
  39.6248553  12.9701673  43.1146493  37.6368553   6.3871673  52.8906493
  37.1008553   5.8811673  53.3586493  37.6568553   5.9971673  52.1106493
  37.5598553   6.2541673  52.8446493  38.1218553   5.7841673  38.0306493
  37.9938553   5.3361673  38.7686493  37.5398553   5.4421673  37.4786493
  38.0168553   5.6671673  38.0586493  38.2888553   7.6141673  44.6296493
  37.5078553   7.5551673  44.2466493  38.3608553   6.8621673  45.0666493
  38.1838553   7.4951673  44.6376493  38.7188553   7.3511673  48.0976493
  38.7438553   6.6761673  47.5466493  38.0728553   7.8471673  47.7856493
  38.6278553   7.3241673  47.9706493  48.6138553   5.0641673  46.4936493
  47.9518553   5.3921673  46.9566493  48.8008553   5.6981673  45.9246493
  48.5438553   5.2061673  46.4776493  42.8188553  16.1281673  47.4896493
  42.5418553  15.4871673  46.9666493  42.6108553  16.8541673  47.0516493
  42.7478553  16.1411673  47.3476493  46.8068553   3.0331673  40.0046493
  47.2968553   3.7501673  39.9276493  46.0168553   3.2941673  39.7416493
  46.7628553   3.1771673  39.9546493  36.5178553   8.7061673  53.6566493
  36.4808553   9.2071673  52.9426493  36.8488553   7.9541673  53.3616493
  36.5608553   8.6681673  53.5076493  48.1208553  10.9111673  51.9146493
  48.6048553  11.6291673  52.0126493  48.5148553  10.4841673  51.2636493
  48.2508553  10.9541673  51.8326493  42.4168553  13.7561673  53.0916493
  42.7708553  13.5781673  53.8686493  41.9808553  13.0271673  52.8926493
  42.4048553  13.6221673  53.1776493  43.3888553   4.5031673  45.7296493
  43.8688553   5.2021673  45.9376493  43.7618553   3.8561673  46.1806493
  43.5148553   4.5111673  45.8266493  45.5778553   7.6721673  38.0036493
  45.5698553   8.3941673  37.5136493  44.9388553   7.8071673  38.5806493
  45.4828553   7.7991673  38.0166493  50.5498553  11.5421673  41.9846493
  50.9058553  11.1921673  42.6996493  50.5418553  10.8811673  41.4146493
  50.6018553  11.3921673  42.0056493  46.5948553  14.6081673  45.8286493
  45.9918553  14.3121673  45.2716493  47.1398553  15.0601673  45.3196493
  46.5858553  14.6311673  45.6706493  46.6078553  11.4591673  45.2286493
  45.8108553  11.6831673  45.5026493  46.8658553  10.8651673  45.8136493
  46.5278553  11.4041673  45.3556493  40.4998553  16.2711673  39.6766493
  40.3528553  15.4951673  40.0476493  41.1888553  16.1241673  39.1616493
  40.5798553  16.1341673  39.6556493  42.7918553  15.7871673  38.0786493
  43.4138553  15.9501673  38.6686493  42.8278553  16.4781673  37.5466493
  42.8888553  15.9131673  38.0876493  49.8678553   9.4571673  50.0746493
  49.9228553   9.5821673  49.2126493  50.6208553   9.7771673  50.3766493
  49.9868553   9.5221673  49.9916493  46.0588553  14.8061673  54.3516493
  46.2228553  15.0891673  55.1606493  46.3218553  15.4671673  53.8466493
  46.1218553  14.9461673  54.3966493  37.2928553   8.3211673  38.9076493
  37.6168553   7.5421673  38.6856493  37.9388553   8.6891673  39.3626493
  37.4358553   8.2601673  38.9416493  45.5988553   9.2631673  49.6746493
  45.4438553   9.8731673  50.2786493  46.1328553   8.7051673  50.0806493
  45.6548553   9.2711673  49.8236493  43.9828553   7.6631673  40.3326493
  44.0418553   8.3131673  40.9116493  43.7938553   6.9671673  40.8236493
  43.9638553   7.6561673  40.4906493  49.2088553  11.9921673  46.2016493
  48.7298553  12.2901673  45.5356493  48.8528553  11.2161673  46.3796493
  49.0858553  11.9211673  46.1296493  38.4788553   2.1801673  36.8446493
  37.9678553   2.2331673  36.1386493  39.2628553   2.4201673  36.5486493
  38.5188553   2.2231673  36.6966493  43.2058553   9.7101673  44.7636493
  42.3588553   9.5161673  44.8446493  43.5298553   9.5451673  45.5566493
  43.1278553   9.6571673  44.8926493  37.0538553   9.4031673  47.0796493
  37.7758553   9.8911673  47.0426493  36.7838553   9.3731673  46.2506493
  37.1208553   9.4711673  46.9516493  40.2838553   4.5741673  43.8146493
  41.1298553   4.3841673  43.9126493  39.9138553   3.7971673  43.6766493
  40.3538553   4.4311673  43.8086493  52.9008553  16.1581673  38.1416493
  53.5948553  15.6911673  37.8936493  52.3618553  15.5601673  38.4786493
  52.9238553  16.0001673  38.1546493  35.1048553   5.9121673  40.4696493
  35.5938553   5.6201673  41.1306493  35.2338553   5.3191673  39.8426493
  35.1958553   5.7811673  40.4746493  50.1398553   8.9341673  47.3206493
  50.1328553   8.1581673  47.7186493  49.2988553   9.1681673  47.3136493
  50.0148553   8.8541673  47.3786493  39.6298553   7.3461673  35.9556493
  39.0198553   6.9411673  36.4296493  39.2438553   7.4641673  35.1826493
  39.4828553   7.3031673  35.9116493  36.4488553  10.4551673  51.3576493
  36.0278553   9.9371673  50.7966493  36.0968553  11.2411673  51.2146493
  36.3348553  10.4951673  51.2536493  51.3958553   9.0051673  44.7576493
  51.1098553   9.4061673  45.4776493  52.2558553   8.9431673  44.8846493
  51.4808553   9.0551673  44.8826493  41.0848553   5.8071673  38.6656493
  41.3568553   6.6331673  38.7326493  40.2218553   5.8821673  38.5696493
  40.9978553   5.9401673  38.6606493  49.0578553   2.9291673  53.2976493
  48.5328553   3.3881673  53.8216493  48.6968553   2.1341673  53.2916493
  48.9268553   2.8791673  53.3736493  34.5648553   1.7771673  45.2016493
  34.6088553   2.1211673  44.4006493  35.3198553   2.0141673  45.5686493
  34.6828553   1.8631673  45.1376493  52.5268553  14.6381673  45.2866493
  52.8168553  14.8951673  44.5056493  53.2218553  14.7341673  45.8056493
  52.6728553  14.6901673  45.2476493  47.5498553   6.4981673  53.3736493
  47.6228553   6.6021673  54.2366493  46.9158553   7.0561673  53.1526493
  47.4668553   6.5961673  53.4686493  49.8178553   6.8171673  51.7386493
  50.1368553   7.6031673  51.9416493  49.4478553   6.5471673  52.4816493
  49.8108553   6.8931673  51.8786493  49.1318553  13.2411673  37.2686493
  49.4658553  12.4351673  37.3036493  48.3768553  13.1691673  37.6986493
  49.0698553  13.1111673  37.3376493  49.6138553   5.0751673  42.9276493
  48.8688553   4.7521673  43.2456493  49.6158553   5.9011673  43.2076493
  49.5038553   5.1491673  43.0156493  52.5158553   7.3591673  54.4736493
  52.4638553   7.0181673  53.6726493  53.2528553   7.8261673  54.4516493
  52.6168553   7.3781673  54.3516493  52.0538553  11.0351673  50.6796493
  52.6818553  10.4861673  50.4236493  51.9928553  11.6001673  50.0176493
  52.1378553  11.0381673  50.5436493  46.5058553  11.1161673  36.6716493
  47.1898553  10.6021673  36.5026493  46.0888553  11.1621673  35.9066493
  46.5448553  11.0471673  36.5336493  41.1878553  12.2661673  47.9756493
  40.8898553  12.8581673  48.5426493  41.2428553  12.7081673  47.2266493
  41.1518553  12.4191673  47.9486493  39.1668553  11.2161673  51.3736493
  38.3608553  10.9261673  51.5406493  39.0778553  12.0841673  51.3796493
  39.0348553  11.3011673  51.3986493  43.7038553   8.6891673  47.4666493
  44.1798553   9.0631673  48.0946493  42.8808553   8.8231673  47.7256493
  43.6528553   8.7641673  47.5976493  40.4138553   4.2921673  50.2076493
  40.5748553   3.5481673  50.6346493  40.3688553   4.0431673  49.3726493
  40.4308553   4.1451673  50.1476493  42.9678553  16.0821673  42.6946493
  43.5138553  16.7611673  42.7486493  42.6178553  16.1641673  41.8996493
  42.9968553  16.1951673  42.5846493  41.1508553  14.3101673  46.0836493
  40.5268553  14.8921673  45.9016493  41.3988553  14.0241673  45.2976493
  41.0948553  14.3541673  45.9406493  45.4598553  10.9441673  53.0726493
  46.2168553  11.2301673  52.7466493  44.9128553  10.9961673  52.3946493
  45.4908553  10.9941673  52.9236493  49.3688553  13.4941673  51.5766493
  49.7148553  13.7641673  52.3306493  49.6628553  14.0761673  50.9966493
  49.4638553  13.6201673  51.6026493  51.2318553   5.6401673  36.9156493
  51.6098553   6.3171673  36.5156493  50.3898553   5.8641673  36.9466493
  51.1628553   5.7731673  36.8606493  42.7448553   9.0861673  35.9986493
  41.9398553   8.9091673  35.7136493  42.7118553   9.9371673  36.1906493
  42.6208553   9.1851673  35.9856493  38.6748553   5.1531673  46.1486493
  39.1148553   5.0501673  45.4026493  39.2198553   4.8401673  46.7536493
  38.8198553   5.0921673  46.1276493  46.6908553   4.2551673  51.7406493
  46.0428553   4.7251673  52.0886493  47.2558553   4.1661673  52.3996493
  46.6788553   4.3111673  51.8896493  46.3788553   5.7921673  48.0386493
  46.6808553   6.2121673  48.7416493  46.4148553   4.9521673  48.2706493
  46.4288553   5.7301673  48.1766493  43.8038553  15.9591673  51.9636493
  44.2818553  15.3591673  51.5476493  43.4528553  15.5161673  52.6286493
  43.8228553  15.8051673  52.0006493  48.9268553   5.2391673  40.2906493
  49.1338553   5.0381673  41.1146493  49.6828553   5.5071673  39.9486493
  49.0688553   5.2491673  40.3616493  50.3918553   9.2661673  40.1446493
  50.8678553   8.5371673  40.0966493  49.5708553   8.9801673  40.0686493
  50.3408553   9.1161673  40.1256493  43.8628553  11.1781673  50.9836493
  43.0678553  11.1141673  51.3346493  43.9338553  12.0251673  50.7886493
  43.7558553  11.2931673  51.0066493  39.6928553  17.3851673  46.3006493
  39.7038553  17.4441673  47.1706493  39.2678553  16.6381673  46.1506493
  39.6318553  17.2831673  46.4066493  37.8508553   3.2801673  39.4556493
  37.9768553   2.9511673  38.6576493  37.0388553   3.0311673  39.6546493
  37.7498553   3.1951673  39.3676493  46.6078553  10.4331673  42.4996493
  46.6838553  10.7741673  43.2986493  46.7768553   9.5861673  42.6206493
  46.6438553  10.3581673  42.6356493  44.1298553   9.7071673  42.0646493
  43.8318553   9.3921673  42.8216493  44.8248553  10.1801673  42.2996493
  44.1888553   9.7301673  42.2116493  44.3518553  13.8251673  50.0916493
  45.0388553  13.7111673  50.6166493  44.4858553  14.6161673  49.7476493
  44.4728553  13.9251673  50.1186493  52.5278553   6.4341673  51.9026493
  51.6728553   6.3121673  52.0286493  52.6808553   6.0391673  51.1396493
  52.4238553   6.3571673  51.8086493  47.0408553   7.0991673  50.4786493
  46.7858553   6.3801673  50.9006493  47.8618553   7.2151673  50.7486493
  47.1248553   7.0101673  50.5806493  36.4568553  16.8831673  51.7426493
  35.8028553  16.3141673  51.8406493  36.0818553  17.6561673  51.8936493
  36.3048553  16.9131673  51.7796493  44.9748553   8.2891673  53.6656493
  45.2978553   8.9751673  53.2336493  44.2708553   8.6121673  54.0676493
  44.9178553   8.4381673  53.6606493  48.0588553  16.6631673  44.5946493
  47.6078553  17.3061673  44.9736493  48.7668553  16.5841673  45.0996493
  48.0968553  16.7461673  44.7256493  44.7598553  11.7531673  47.5246493
  44.0658553  12.1551673  47.8676493  45.4368553  12.1861673  47.8636493
  44.7568553  11.8761673  47.6256493  50.1368553  14.3461673  54.1046493
  50.9128553  13.9561673  54.1876493  49.6678553  14.0101673  54.7596493
  50.1818553  14.2391673  54.2136493  37.8278553   5.2911673  49.8716493
  38.2028553   5.9101673  49.3846493  38.5018553   4.8171673  50.1566493
  37.9828553   5.3131673  49.8416493  35.6028553   3.7391673  49.1466493
  35.6798553   3.5701673  48.2936493  36.3488553   4.1451673  49.3436493
  35.7238553   3.7741673  49.0496493  51.1618553   6.3791673  39.5866493
  51.2648553   6.3211673  38.7226493  51.9028553   6.0471673  39.9046493
  51.2868553   6.3221673  39.5056493  45.0818553  13.3441673  40.6936493
  44.8768553  14.1771673  40.5346493  44.3068553  12.9621673  40.8156493
  44.9368553  13.4111673  40.6886493  50.2638553   6.5251673  48.9426493
  50.2618553   5.6621673  49.0666493  50.3308553   6.8491673  49.7496493
  50.2738553   6.4451673  49.0796493  34.9998553   8.9651673  49.3706493
  35.3198553   9.1841673  48.5896493  34.8998553   8.1001673  49.3156493
  35.0318553   8.8701673  49.2476493  36.4558553   4.9011673  35.9886493
  35.7838553   4.9151673  36.5446493  36.5508553   4.0531673  35.8046493
  36.3708553   4.7781673  36.0436493  40.4438553  13.6061673  37.1026493
  40.8848553  13.6861673  37.8506493  39.6388553  13.3901673  37.3606493
  40.3898553  13.5861673  37.2516493  48.7348553   2.0311673  46.3786493
  49.5898553   2.1301673  46.5236493  48.3658553   2.5841673  46.9436493
  48.8068553   2.1281673  46.4836493  39.7628553   8.2571673  50.7556493
  39.3668553   9.0311673  50.8306493  39.3568553   7.8841673  50.0796493
  39.6448553   8.3161673  50.6666493  49.0388553   7.3111673  44.8696493
  49.7048553   7.8521673  45.0296493  48.6938553   7.6221673  44.1306493
  49.0858553   7.4371673  44.7846493  49.3518553  15.3771673  40.6766493
  49.1778553  14.7231673  41.2266493  50.0648553  15.1061673  40.2536493
  49.4318553  15.2401673  40.6956493  37.7728553  12.6761673  37.7036493
  37.5288553  12.3691673  38.4836493  37.7398553  11.9731673  37.1876493
  37.7318553  12.5271673  37.7426493  40.5918553  10.9211673  36.4466493
  39.7738553  10.6531673  36.5866493  40.5638553  11.7731673  36.6316493
  40.4668553  11.0081673  36.4946493  47.0268553  12.8301673  48.3676493
  47.2328553  13.1311673  49.1596493  46.9658553  13.5521673  47.8826493
  47.0478553  12.9811673  48.4126493  46.5608553  17.0441673  52.6136493
  45.8078553  17.0261673  52.1726493  46.7288553  17.8961673  52.6976493
  46.4748553  17.1671673  52.5606493  41.7978553   6.3111673  51.7836493
  41.4758553   5.7351673  51.2136493  41.4388553   7.0661673  51.5376493
  41.6978553   6.3371673  51.6636493  51.8388553  11.4691673  47.8256493
  51.8068553  10.6071673  47.6906493  51.1458553  11.7711673  47.3916493
  51.7318553  11.3861673  47.7416493  40.2328553  16.6671673  52.0316493
  40.2738553  16.7931673  52.8946493  40.8838553  16.1071673  51.8756493
  40.3348553  16.6031673  52.1366493  49.9438553  14.7291673  46.6226493
  50.4708553  14.6461673  45.9316493  49.5528553  13.9511673  46.6766493
  49.9638553  14.6021673  46.5286493  37.8258553  15.0501673  53.3916493
  38.4208553  15.4811673  53.8636493  37.4618553  15.6741673  52.9026493
  37.8598553  15.2061673  53.3886493  45.8168553   5.9811673  43.3236493
  46.3678553   5.3741673  43.6236493  45.3918553   6.2441673  44.0386493
  45.8358553   5.9301673  43.4726493  36.0648553   4.6311673  42.8096493
  35.6968553   4.9331673  43.5406493  36.5988553   4.0021673  43.0936493
  36.0888553   4.5831673  42.9596493  35.7528553  13.0391673  50.3206493
  35.1788553  13.4551673  50.8296493  36.4858553  13.5041673  50.4156493
  35.7768553  13.1691673  50.4096493  47.7868553   7.8121673  39.8856493
  47.8548553   6.9621673  40.0666493  46.9638553   7.8981673  39.6076493
  47.6748553   7.6991673  39.8716493  37.5388553  16.3061673  39.0956493
  37.3938553  16.4621673  38.2496493  38.4048553  16.3851673  39.1736493
  37.6458553  16.3411673  38.9826493  41.7058553   8.7031673  38.8236493
  41.8058553   8.8421673  37.9686493  42.5238553   8.6431673  39.1196493
  41.8408553   8.7141673  38.7406493  50.8658553  16.7671673  36.3036493
  51.5028553  16.6331673  36.8846493  50.5248553  15.9731673  36.1866493
  50.9098553  16.6301673  36.3716493  51.0608553   9.1851673  53.0366493
  51.6948553   9.0151673  53.6106493  51.4778553   9.5881673  52.3846493
  51.2158553   9.2201673  53.0256493  46.9408553  13.0321673  38.6256493
  46.6898553  12.9041673  39.4516493  46.6238553  12.3371673  38.2046493
  46.8568553  12.9111673  38.6856493  51.6858553   3.7491673  53.7746493
  51.4898553   4.3931673  54.3296493  50.9638553   3.2591673  53.7666493
  51.5508553   3.7721673  53.8556493  51.5848553   4.6901673  46.7456493
  50.7518553   4.9401673  46.6736493  51.5288553   3.8501673  46.9746493
  51.4538553   4.6031673  46.7686493  48.4718553   9.2961673  54.3916493
  49.3428553   9.2601673  54.3556493  48.2528553   9.7161673  53.6596493
  48.5688553   9.3521673  54.2786493  38.2258553  15.1211673  45.5726493
  38.1468553  14.3111673  45.2566493  37.7818553  15.6081673  45.0006493
  38.1488553  15.0731673  45.4416493  43.8268553  11.2401673  38.0556493
  44.5438553  10.8931673  37.6996493  43.7928553  12.0401673  37.7076493
  43.9278553  11.3071673  37.9516493  35.7978553  17.3651673  49.1536493
  36.2908553  17.3091673  49.8716493  35.9858553  16.6321673  48.7186493
  35.8988553  17.2481673  49.1956493  45.0448553   6.7971673  26.9654083
  44.5208553   7.3931673  27.3284083  45.4418553   6.4291673  27.6494083
  45.0258553   6.8311673  27.1204083  34.9138553  10.9371673  22.4214083
  34.4728553  11.0551673  23.1644083  34.6308553  10.1621673  22.1364083
  34.8068553  10.8401673  22.4894083  51.1888553  14.2381673  19.9364083
  51.8898553  13.7191673  19.9324083  50.6018553  13.7931673  19.4674083
  51.2058553  14.0951673  19.8664083  34.6568553   4.7291673  18.9284083
  33.8788553   4.8911673  18.5684083  34.6958553   3.8581673  18.9504083
  34.5478553   4.6241673  18.8784083  37.7958553   9.9921673  17.6004083
  37.4038553   9.6211673  16.9144083  37.7158553   9.3941673  18.2294083
  37.7258553   9.8491673  17.5914083  47.7158553   7.8641673  23.6414083
  47.7958553   7.8681673  22.7724083  47.1318553   7.2321673  23.7904083
  47.6408553   7.7711673  23.5354083  37.4228553  11.6331673  21.5004083
  38.0308553  11.4631673  22.1034083  36.6718553  11.4931673  21.9214083
  37.4018553  11.5871673  21.6514083  36.3138553  14.7241673  17.5774083
  36.7808553  14.8081673  16.8454083  36.7688553  14.1461673  18.0464083
  36.4498553  14.6511673  17.5384083  34.8538553  13.6721673  28.6764083
  34.9828553  13.3921673  29.4924083  34.2438553  13.1311673  28.3674083
  34.7828553  13.5511673  28.7514083  41.4278553  11.1971673  33.7434083
  41.1918553  11.1941673  34.5834083  40.6798553  11.0491673  33.3194083
  41.2818553  11.1741673  33.8044083  36.2998553   8.1931673  22.8784083
  35.8378553   7.8011673  22.2514083  36.9998553   7.6801673  22.9704083
  36.3348553   8.0601673  22.7994083  40.8078553   3.8031673  28.2254083
  41.4858553   3.8211673  27.6764083  40.7628553   2.9671673  28.4704083
  40.9008553   3.6821673  28.1804083  41.4098553  14.3891673  31.0064083
  41.5478553  15.1491673  30.5994083  42.2008553  14.0241673  31.0334083
  41.5468553  14.4481673  30.9504083  38.3008553   6.2931673  22.9014083
  39.1178553   6.1061673  23.1444083  37.8238553   5.6791673  23.2974083
  38.3508553   6.1751673  22.9964083  42.5048553  12.2741673  25.5114083
  42.8528553  11.4751673  25.5414083  43.1698553  12.7781673  25.2564083
  42.6548553  12.2301673  25.4784083  42.5618553  11.7231673  21.7224083
  42.8928553  11.0791673  22.2084083  42.8018553  11.5121673  20.9114083
  42.6458553  11.5971673  21.6744083  44.5298553   5.8541673  33.0614083
  43.6818553   5.7551673  32.8834083  44.5588553   6.5991673  33.5154083
  44.4088553   5.9501673  33.1024083  46.5498553   3.4551673  16.6894083
  46.0998553   4.1361673  16.9964083  46.6638553   2.9511673  17.3924083
  46.5008553   3.4811673  16.8384083  34.7558553   5.9541673  25.8914083
  34.4998553   6.7851673  25.8164083  34.0918553   5.5711673  26.3084083
  34.6198553   6.0201673  25.9424083  34.6658553  15.6641673  23.7914083
  34.0738553  16.2221673  23.4784083  35.0918553  15.3951673  23.0794083
  34.6418553  15.7061673  23.6404083  40.5058553  13.5081673  21.2714083
  39.9268553  13.2331673  21.8634083  41.1298553  12.8991673  21.2964083
  40.5128553  13.3781673  21.3624083  46.6488553  15.7961673  18.7934083
  47.3758553  16.2681673  18.8954083  46.8778553  15.0021673  19.0734083
  46.7908553  15.7491673  18.8504083  44.8168553  16.1881673  20.7834083
  45.0308553  16.7151673  21.4454083  45.5838553  16.0141673  20.4044083
  44.9618553  16.2401673  20.8254083  41.0908553   2.9041673  35.6804083
  41.2078553   2.4501673  34.9444083  41.3788553   3.7021673  35.4774083
  41.1508553   2.9551673  35.5414083  36.2108553  14.3341673  21.7224083
  36.8668553  13.7591673  21.7374083  36.5998553  15.0831673  21.5014083
  36.3658553  14.3591673  21.6924083  51.9438553   3.4281673  22.9844083
  51.5978553   4.1061673  23.4104083  51.3078553   2.8301673  23.0004083
  51.7988553   3.4401673  23.0494083  47.2558553  16.1981673  29.0884083
  47.9998553  16.6541673  29.0784083  47.1348553  15.9841673  28.2514083
  47.3478553  16.2341673  28.9634083  36.8238553   2.5011673  34.6644083
  36.0458553   2.1111673  34.5924083  37.3148553   2.0891673  34.0734083
  36.7808553   2.3821673  34.5664083  37.0288553  12.8211673  25.2224083
  37.4518553  12.4651673  24.5484083  37.3528553  12.3991673  25.9144083
  37.1388553  12.7061673  25.2254083  40.2598553  15.6731673  24.5184083
  41.1038553  15.7771673  24.3234083  39.9628553  16.4911673  24.5864083
  40.3408553  15.8091673  24.4994083  44.0668553   5.0701673  22.6054083
  44.3538553   4.8381673  21.8154083  44.7988553   5.1491673  23.0744083
  44.2168553   5.0471673  22.5584083  44.7888553   5.4091673  17.7264083
  45.0698553   6.1971673  17.9754083  44.0128553   5.5741673  17.3634083
  44.7158553   5.5501673  17.7094083  48.8298553  17.3831673  19.1934083
  49.4948553  17.2351673  18.6484083  49.1898553  17.3001673  19.9834083
  48.9818553  17.3491673  19.2294083  39.2578553  16.8921673  30.2584083
  39.5498553  16.8251673  31.0784083  38.6318553  16.2871673  30.2134083
  39.2088553  16.7931673  30.3734083  34.1718553   3.0491673  32.2504083
  34.1678553   3.6361673  32.8964083  34.7658553   3.3611673  31.6934083
  34.2588553   3.1821673  32.2634083  46.5098553  13.3831673  32.7924083
  46.4758553  13.7651673  33.5764083  47.3638553  13.3411673  32.6214083
  46.6308553  13.4331673  32.8834083  43.6478553  13.5801673  17.5424083
  43.4668553  14.1251673  18.1994083  44.4138553  13.8701673  17.2414083
  43.7338553  13.7041673  17.5954083  35.1088553   2.6441673  21.1654083
  34.9948553   1.7801673  21.1964083  34.6338553   2.9381673  21.8354083
  35.0218553   2.5601673  21.2684083  37.2508553  15.0541673  29.3804083
  36.5528553  14.5461673  29.5064083  37.5108553  14.8491673  28.5724083
  37.1858553  14.9491673  29.2794083  44.4128553   3.8521673  19.9104083
  43.9048553   3.1901673  19.6564083  44.4648553   4.3561673  19.2004083
  44.3458553   3.8291673  19.7684083  44.9618553  16.5471673  30.2904083
  45.7298553  16.4671673  29.8844083  44.3788553  16.4261673  29.6524083
  44.9888553  16.5171673  30.1364083  51.2388553  17.1501673  23.1914083
  50.7838553  17.8671673  23.3924083  50.6248553  16.5791673  22.9494083
  51.0808553  17.1721673  23.1854083  43.0108553   3.1601673  24.3234083
  43.0848553   3.7281673  23.6654083  43.1318553   3.6521673  25.0334083
  43.0388553   3.3171673  24.3314083  48.2358553  12.9951673  22.7354083
  48.9368553  12.5131673  22.9244083  47.5758553  12.4261673  22.7804083
  48.2418553  12.8401673  22.7694083  38.6118553  13.9051673  31.9474083
  39.4528553  13.9681673  31.7254083  38.5748553  14.3021673  32.7234083
  38.7308553  13.9731673  32.0294083  40.5748553   9.4161673  26.6964083
  40.7468553   9.2061673  27.5254083  39.9198553   8.8821673  26.4804083
  40.5038553   9.3061673  26.7874083  46.8028553   3.3301673  30.2114083
  46.7078553   3.6491673  31.0174083  46.2098553   2.6911673  30.1734083
  46.7008553   3.2821673  30.3254083  41.3248553   9.3541673  29.2864083
  41.3778553  10.2011673  29.4884083  41.0398553   8.9841673  30.0234083
  41.2908553   9.4241673  29.4244083  47.5018553  10.0491673  28.4164083
  46.9878553   9.6371673  28.9874083  47.3758553  10.8931673  28.5974083
  47.4078553  10.1131673  28.5274083  34.1458553  13.7251673  35.4974083
  34.9018553  14.0741673  35.7554083  34.3228553  12.8721673  35.4404083
  34.2838553  13.6501673  35.5274083  50.5228553   3.5101673  31.3554083
  51.2948553   3.2851673  31.6924083  50.0478553   3.7271673  32.0554083
  50.5668553   3.5091673  31.5084083  38.0668553   2.7931673  24.3254083
  38.3388553   2.3631673  23.6174083  37.8908553   2.1571673  24.8964083
  38.0808553   2.6361673  24.3054083  50.7548553  10.4881673  18.5434083
  50.8738553  10.2011673  19.3584083  51.5618553  10.5091673  18.2134083
  50.8908553  10.4491673  18.6154083  37.8908553  10.2201673  23.8744083
  38.7418553  10.1401673  23.7014083  37.5338553   9.5381673  23.4624083
  37.9638553  10.1071673  23.7874083  36.6578553  16.9451673  25.1114083
  35.9848553  16.4471673  24.8664083  37.0608553  17.1301673  24.3604083
  36.6178553  16.8991673  24.9644083  36.2078553   3.8951673  27.4074083
  37.0508553   4.1151673  27.3644083  35.8188553   4.4681673  26.8764083
  36.2748553   4.0121673  27.3224083  52.9888553  14.9971673  32.7974083
  52.3068553  15.3071673  32.3504083  52.6198553  14.5391673  33.4424083
  52.8328553  14.9751673  32.8264083  48.6498553   7.0251673  18.1284083
  48.4298553   7.7561673  17.7064083  48.2018553   7.0761673  18.8754083
  48.5508553   7.1401673  18.1764083  40.2588553  10.2271673  22.1094083
  40.9718553  10.7221673  22.1994083  40.4808553   9.6601673  21.4834083
  40.3968553  10.2161673  22.0304083  34.4148553  11.8701673  25.4294083
  33.7478553  12.3581673  25.7054083  35.0948553  12.4151673  25.4584083
  34.4168553  12.0221673  25.4744083  42.0618553   5.5801673  35.5254083
  41.5778553   6.1571673  35.9674083  42.0338553   5.8751673  34.7044083
  41.9858553   5.7091673  35.4694083  53.1598553   6.2641673  30.1374083
  53.3748553   5.4641673  29.8614083  52.3098553   6.3241673  29.9484083
  53.0658553   6.1551673  30.0684083  34.4808553   8.5541673  20.5324083
  34.2958553   7.7151673  20.6844083  35.1398553   8.5181673  19.9624083
  34.5508553   8.4251673  20.4704083  44.7818553  13.9301673  24.4364083
  44.2588553  14.5641673  24.1434083  45.0918553  13.5661673  23.7074083
  44.7498553  13.9701673  24.2854083  34.6528553  12.7181673  20.1074083
  35.2048553  13.2871673  20.4714083  34.4208553  12.2031673  20.7724083
  34.6998553  12.7261673  20.2594083  38.8568553  11.7181673  27.1964083
  39.3238553  12.0071673  27.8744083  39.4288553  11.2401673  26.7424083
  39.0108553  11.6901673  27.2294083  47.2928553   3.7321673  24.9334083
  47.6368553   3.8841673  25.7204083  46.8398553   2.9941673  25.0464083
  47.2768553   3.6451673  25.0664083  34.4828553  11.1671673  17.7354083
  35.2388553  10.7351673  17.7934083  34.4978553  11.6991673  18.4264083
  34.5968553  11.1821673  17.8464083  35.4228553   9.3881673  25.7404083
  35.8538553   9.2591673  24.9934083  35.2178553  10.2361673  25.7144083
  35.4558553   9.4941673  25.6264083  41.7688553   2.9521673  19.3904083
  41.7668553   2.8351673  18.5254083  41.5878553   3.8001673  19.4824083
  41.7418553   3.0601673  19.2764083  50.8228553  15.3791673  30.8874083
  50.1518553  15.8931673  31.1054083  50.8858553  15.4791673  30.0234083
  50.7328553  15.4701673  30.7924083  39.5068553  12.9041673  24.0224083
  39.6328553  13.7471673  24.2094083  40.1748553  12.5051673  24.4184083
  39.6248553  12.9701673  24.1084083  37.6368553   6.3871673  33.8844083
  37.1008553   5.8811673  34.3524083  37.6568553   5.9971673  33.1044083
  37.5598553   6.2541673  33.8384083  38.1218553   5.7841673  19.0244083
  37.9938553   5.3361673  19.7624083  37.5398553   5.4421673  18.4724083
  38.0168553   5.6671673  19.0524083  38.2888553   7.6141673  25.6234083
  37.5078553   7.5551673  25.2404083  38.3608553   6.8621673  26.0604083
  38.1838553   7.4951673  25.6314083  38.7188553   7.3511673  29.0914083
  38.7438553   6.6761673  28.5404083  38.0728553   7.8471673  28.7794083
  38.6278553   7.3241673  28.9644083  48.6138553   5.0641673  27.4874083
  47.9518553   5.3921673  27.9504083  48.8008553   5.6981673  26.9184083
  48.5438553   5.2061673  27.4714083  42.8188553  16.1281673  28.4834083
  42.5418553  15.4871673  27.9604083  42.6108553  16.8541673  28.0454083
  42.7478553  16.1411673  28.3414083  46.8068553   3.0331673  20.9984083
  47.2968553   3.7501673  20.9214083  46.0168553   3.2941673  20.7354083
  46.7628553   3.1771673  20.9484083  36.5178553   8.7061673  34.6504083
  36.4808553   9.2071673  33.9364083  36.8488553   7.9541673  34.3554083
  36.5608553   8.6681673  34.5014083  48.1208553  10.9111673  32.9084083
  48.6048553  11.6291673  33.0064083  48.5148553  10.4841673  32.2574083
  48.2508553  10.9541673  32.8264083  42.4168553  13.7561673  34.0854083
  42.7708553  13.5781673  34.8624083  41.9808553  13.0271673  33.8864083
  42.4048553  13.6221673  34.1714083  43.3888553   4.5031673  26.7234083
  43.8688553   5.2021673  26.9314083  43.7618553   3.8561673  27.1744083
  43.5148553   4.5111673  26.8204083  45.5778553   7.6721673  18.9974083
  45.5698553   8.3941673  18.5074083  44.9388553   7.8071673  19.5744083
  45.4828553   7.7991673  19.0104083  50.5498553  11.5421673  22.9784083
  50.9058553  11.1921673  23.6934083  50.5418553  10.8811673  22.4084083
  50.6018553  11.3921673  22.9994083  46.5948553  14.6081673  26.8224083
  45.9918553  14.3121673  26.2654083  47.1398553  15.0601673  26.3134083
  46.5858553  14.6311673  26.6644083  46.6078553  11.4591673  26.2224083
  45.8108553  11.6831673  26.4964083  46.8658553  10.8651673  26.8074083
  46.5278553  11.4041673  26.3494083  40.4998553  16.2711673  20.6704083
  40.3528553  15.4951673  21.0414083  41.1888553  16.1241673  20.1554083
  40.5798553  16.1341673  20.6494083  42.7918553  15.7871673  19.0724083
  43.4138553  15.9501673  19.6624083  42.8278553  16.4781673  18.5404083
  42.8888553  15.9131673  19.0814083  49.8678553   9.4571673  31.0684083
  49.9228553   9.5821673  30.2064083  50.6208553   9.7771673  31.3704083
  49.9868553   9.5221673  30.9854083  46.0588553  14.8061673  35.3454083
  46.2228553  15.0891673  36.1544083  46.3218553  15.4671673  34.8404083
  46.1218553  14.9461673  35.3904083  37.2928553   8.3211673  19.9014083
  37.6168553   7.5421673  19.6794083  37.9388553   8.6891673  20.3564083
  37.4358553   8.2601673  19.9354083  45.5988553   9.2631673  30.6684083
  45.4438553   9.8731673  31.2724083  46.1328553   8.7051673  31.0744083
  45.6548553   9.2711673  30.8174083  43.9828553   7.6631673  21.3264083
  44.0418553   8.3131673  21.9054083  43.7938553   6.9671673  21.8174083
  43.9638553   7.6561673  21.4844083  49.2088553  11.9921673  27.1954083
  48.7298553  12.2901673  26.5294083  48.8528553  11.2161673  27.3734083
  49.0858553  11.9211673  27.1234083  38.4788553   2.1801673  17.8384083
  37.9678553   2.2331673  17.1324083  39.2628553   2.4201673  17.5424083
  38.5188553   2.2231673  17.6904083  43.2058553   9.7101673  25.7574083
  42.3588553   9.5161673  25.8384083  43.5298553   9.5451673  26.5504083
  43.1278553   9.6571673  25.8864083  39.9578553  16.4401673  16.6434083
  40.3968553  15.7431673  16.9314083  40.1648553  17.0641673  17.2164083
  40.0538553  16.4291673  16.7704083  37.0538553   9.4031673  28.0734083
  37.7758553   9.8911673  28.0364083  36.7838553   9.3731673  27.2444083
  37.1208553   9.4711673  27.9454083  40.2838553   4.5741673  24.8084083
  41.1298553   4.3841673  24.9064083  39.9138553   3.7971673  24.6704083
  40.3538553   4.4311673  24.8024083  52.9008553  16.1581673  19.1354083
  53.5948553  15.6911673  18.8874083  52.3618553  15.5601673  19.4724083
  52.9238553  16.0001673  19.1484083  35.1048553   5.9121673  21.4634083
  35.5938553   5.6201673  22.1244083  35.2338553   5.3191673  20.8364083
  35.1958553   5.7811673  21.4684083  50.1398553   8.9341673  28.3144083
  50.1328553   8.1581673  28.7124083  49.2988553   9.1681673  28.3074083
  50.0148553   8.8541673  28.3724083  39.6298553   7.3461673  16.9494083
  39.0198553   6.9411673  17.4234083  39.2438553   7.4641673  16.1764083
  39.4828553   7.3031673  16.9054083  36.4488553  10.4551673  32.3514083
  36.0278553   9.9371673  31.7904083  36.0968553  11.2411673  32.2084083
  36.3348553  10.4951673  32.2474083  51.3958553   9.0051673  25.7514083
  51.1098553   9.4061673  26.4714083  52.2558553   8.9431673  25.8784083
  51.4808553   9.0551673  25.8764083  41.0848553   5.8071673  19.6594083
  41.3568553   6.6331673  19.7264083  40.2218553   5.8821673  19.5634083
  40.9978553   5.9401673  19.6544083  49.0578553   2.9291673  34.2914083
  48.5328553   3.3881673  34.8154083  48.6968553   2.1341673  34.2854083
  48.9268553   2.8791673  34.3674083  34.5648553   1.7771673  26.1954083
  34.6088553   2.1211673  25.3944083  35.3198553   2.0141673  26.5624083
  34.6828553   1.8631673  26.1314083  52.5268553  14.6381673  26.2804083
  52.8168553  14.8951673  25.4994083  53.2218553  14.7341673  26.7994083
  52.6728553  14.6901673  26.2414083  47.5498553   6.4981673  34.3674083
  47.6228553   6.6021673  35.2304083  46.9158553   7.0561673  34.1464083
  47.4668553   6.5961673  34.4624083  49.8178553   6.8171673  32.7324083
  50.1368553   7.6031673  32.9354083  49.4478553   6.5471673  33.4754083
  49.8108553   6.8931673  32.8724083  49.1318553  13.2411673  18.2624083
  49.4658553  12.4351673  18.2974083  48.3768553  13.1691673  18.6924083
  49.0698553  13.1111673  18.3314083  49.6138553   5.0751673  23.9214083
  48.8688553   4.7521673  24.2394083  49.6158553   5.9011673  24.2014083
  49.5038553   5.1491673  24.0094083  52.5158553   7.3591673  35.4674083
  52.4638553   7.0181673  34.6664083  53.2528553   7.8261673  35.4454083
  52.6168553   7.3781673  35.3454083  52.0538553  11.0351673  31.6734083
  52.6818553  10.4861673  31.4174083  51.9928553  11.6001673  31.0114083
  52.1378553  11.0381673  31.5374083  46.5058553  11.1161673  17.6654083
  47.1898553  10.6021673  17.4964083  46.0888553  11.1621673  16.9004083
  46.5448553  11.0471673  17.5274083  41.1878553  12.2661673  28.9694083
  40.8898553  12.8581673  29.5364083  41.2428553  12.7081673  28.2204083
  41.1518553  12.4191673  28.9424083  39.1668553  11.2161673  32.3674083
  38.3608553  10.9261673  32.5344083  39.0778553  12.0841673  32.3734083
  39.0348553  11.3011673  32.3924083  43.7038553   8.6891673  28.4604083
  44.1798553   9.0631673  29.0884083  42.8808553   8.8231673  28.7194083
  43.6528553   8.7641673  28.5914083  40.4138553   4.2921673  31.2014083
  40.5748553   3.5481673  31.6284083  40.3688553   4.0431673  30.3664083
  40.4308553   4.1451673  31.1414083  42.9678553  16.0821673  23.6884083
  43.5138553  16.7611673  23.7424083  42.6178553  16.1641673  22.8934083
  42.9968553  16.1951673  23.5784083  41.1508553  14.3101673  27.0774083
  40.5268553  14.8921673  26.8954083  41.3988553  14.0241673  26.2914083
  41.0948553  14.3541673  26.9344083  45.4598553  10.9441673  34.0664083
  46.2168553  11.2301673  33.7404083  44.9128553  10.9961673  33.3884083
  45.4908553  10.9941673  33.9174083  49.3688553  13.4941673  32.5704083
  49.7148553  13.7641673  33.3244083  49.6628553  14.0761673  31.9904083
  49.4638553  13.6201673  32.5964083  51.2318553   5.6401673  17.9094083
  51.6098553   6.3171673  17.5094083  50.3898553   5.8641673  17.9404083
  51.1628553   5.7731673  17.8544083  42.7448553   9.0861673  16.9924083
  41.9398553   8.9091673  16.7074083  42.7118553   9.9371673  17.1844083
  42.6208553   9.1851673  16.9794083  38.6748553   5.1531673  27.1424083
  39.1148553   5.0501673  26.3964083  39.2198553   4.8401673  27.7474083
  38.8198553   5.0921673  27.1214083  46.6908553   4.2551673  32.7344083
  46.0428553   4.7251673  33.0824083  47.2558553   4.1661673  33.3934083
  46.6788553   4.3111673  32.8834083  46.3788553   5.7921673  29.0324083
  46.6808553   6.2121673  29.7354083  46.4148553   4.9521673  29.2644083
  46.4288553   5.7301673  29.1704083  43.8038553  15.9591673  32.9574083
  44.2818553  15.3591673  32.5414083  43.4528553  15.5161673  33.6224083
  43.8228553  15.8051673  32.9944083  48.9268553   5.2391673  21.2844083
  49.1338553   5.0381673  22.1084083  49.6828553   5.5071673  20.9424083
  49.0688553   5.2491673  21.3554083  50.3918553   9.2661673  21.1384083
  50.8678553   8.5371673  21.0904083  49.5708553   8.9801673  21.0624083
  50.3408553   9.1161673  21.1194083  43.8628553  11.1781673  31.9774083
  43.0678553  11.1141673  32.3284083  43.9338553  12.0251673  31.7824083
  43.7558553  11.2931673  32.0004083  39.6928553  17.3851673  27.2944083
  39.7038553  17.4441673  28.1644083  39.2678553  16.6381673  27.1444083
  39.6318553  17.2831673  27.4004083  37.8508553   3.2801673  20.4494083
  37.9768553   2.9511673  19.6514083  37.0388553   3.0311673  20.6484083
  37.7498553   3.1951673  20.3614083  46.6078553  10.4331673  23.4934083
  46.6838553  10.7741673  24.2924083  46.7768553   9.5861673  23.6144083
  46.6438553  10.3581673  23.6294083  44.1298553   9.7071673  23.0584083
  43.8318553   9.3921673  23.8154083  44.8248553  10.1801673  23.2934083
  44.1888553   9.7301673  23.2054083  44.3518553  13.8251673  31.0854083
  45.0388553  13.7111673  31.6104083  44.4858553  14.6161673  30.7414083
  44.4728553  13.9251673  31.1124083  52.5278553   6.4341673  32.8964083
  51.6728553   6.3121673  33.0224083  52.6808553   6.0391673  32.1334083
  52.4238553   6.3571673  32.8024083  47.0408553   7.0991673  31.4724083
  46.7858553   6.3801673  31.8944083  47.8618553   7.2151673  31.7424083
  47.1248553   7.0101673  31.5744083  36.4568553  16.8831673  32.7364083
  35.8028553  16.3141673  32.8344083  36.0818553  17.6561673  32.8874083
  36.3048553  16.9131673  32.7734083  44.9748553   8.2891673  34.6594083
  45.2978553   8.9751673  34.2274083  44.2708553   8.6121673  35.0614083
  44.9178553   8.4381673  34.6544083  48.0588553  16.6631673  25.5884083
  47.6078553  17.3061673  25.9674083  48.7668553  16.5841673  26.0934083
  48.0968553  16.7461673  25.7194083  44.7598553  11.7531673  28.5184083
  44.0658553  12.1551673  28.8614083  45.4368553  12.1861673  28.8574083
  44.7568553  11.8761673  28.6194083  50.1368553  14.3461673  35.0984083
  50.9128553  13.9561673  35.1814083  49.6678553  14.0101673  35.7534083
  50.1818553  14.2391673  35.2074083  37.8278553   5.2911673  30.8654083
  38.2028553   5.9101673  30.3784083  38.5018553   4.8171673  31.1504083
  37.9828553   5.3131673  30.8354083  35.6028553   3.7391673  30.1404083
  35.6798553   3.5701673  29.2874083  36.3488553   4.1451673  30.3374083
  35.7238553   3.7741673  30.0434083  51.1618553   6.3791673  20.5804083
  51.2648553   6.3211673  19.7164083  51.9028553   6.0471673  20.8984083
  51.2868553   6.3221673  20.4994083  45.0818553  13.3441673  21.6874083
  44.8768553  14.1771673  21.5284083  44.3068553  12.9621673  21.8094083
  44.9368553  13.4111673  21.6824083  50.2638553   6.5251673  29.9364083
  50.2618553   5.6621673  30.0604083  50.3308553   6.8491673  30.7434083
  50.2738553   6.4451673  30.0734083  34.9998553   8.9651673  30.3644083
  35.3198553   9.1841673  29.5834083  34.8998553   8.1001673  30.3094083
  35.0318553   8.8701673  30.2414083  36.4558553   4.9011673  16.9824083
  35.7838553   4.9151673  17.5384083  36.5508553   4.0531673  16.7984083
  36.3708553   4.7781673  17.0374083  40.4438553  13.6061673  18.0964083
  40.8848553  13.6861673  18.8444083  39.6388553  13.3901673  18.3544083
  40.3898553  13.5861673  18.2454083  48.7348553   2.0311673  27.3724083
  49.5898553   2.1301673  27.5174083  48.3658553   2.5841673  27.9374083
  48.8068553   2.1281673  27.4774083  39.7628553   8.2571673  31.7494083
  39.3668553   9.0311673  31.8244083  39.3568553   7.8841673  31.0734083
  39.6448553   8.3161673  31.6604083  49.0388553   7.3111673  25.8634083
  49.7048553   7.8521673  26.0234083  48.6938553   7.6221673  25.1244083
  49.0858553   7.4371673  25.7784083  49.3518553  15.3771673  21.6704083
  49.1778553  14.7231673  22.2204083  50.0648553  15.1061673  21.2474083
  49.4318553  15.2401673  21.6894083  37.7728553  12.6761673  18.6974083
  37.5288553  12.3691673  19.4774083  37.7398553  11.9731673  18.1814083
  37.7318553  12.5271673  18.7364083  40.5918553  10.9211673  17.4404083
  39.7738553  10.6531673  17.5804083  40.5638553  11.7731673  17.6254083
  40.4668553  11.0081673  17.4884083  47.0268553  12.8301673  29.3614083
  47.2328553  13.1311673  30.1534083  46.9658553  13.5521673  28.8764083
  47.0478553  12.9811673  29.4064083  46.5608553  17.0441673  33.6074083
  45.8078553  17.0261673  33.1664083  46.7288553  17.8961673  33.6914083
  46.4748553  17.1671673  33.5544083  41.7978553   6.3111673  32.7774083
  41.4758553   5.7351673  32.2074083  41.4388553   7.0661673  32.5314083
  41.6978553   6.3371673  32.6574083  51.8388553  11.4691673  28.8194083
  51.8068553  10.6071673  28.6844083  51.1458553  11.7711673  28.3854083
  51.7318553  11.3861673  28.7354083  40.2328553  16.6671673  33.0254083
  40.2738553  16.7931673  33.8884083  40.8838553  16.1071673  32.8694083
  40.3348553  16.6031673  33.1304083  49.9438553  14.7291673  27.6164083
  50.4708553  14.6461673  26.9254083  49.5528553  13.9511673  27.6704083
  49.9638553  14.6021673  27.5224083  37.8258553  15.0501673  34.3854083
  38.4208553  15.4811673  34.8574083  37.4618553  15.6741673  33.8964083
  37.8598553  15.2061673  34.3824083  45.8168553   5.9811673  24.3174083
  46.3678553   5.3741673  24.6174083  45.3918553   6.2441673  25.0324083
  45.8358553   5.9301673  24.4664083  36.0648553   4.6311673  23.8034083
  35.6968553   4.9331673  24.5344083  36.5988553   4.0021673  24.0874083
  36.0888553   4.5831673  23.9534083  35.7528553  13.0391673  31.3144083
  35.1788553  13.4551673  31.8234083  36.4858553  13.5041673  31.4094083
  35.7768553  13.1691673  31.4034083  47.7868553   7.8121673  20.8794083
  47.8548553   6.9621673  21.0604083  46.9638553   7.8981673  20.6014083
  47.6748553   7.6991673  20.8654083  37.5388553  16.3061673  20.0894083
  37.3938553  16.4621673  19.2434083  38.4048553  16.3851673  20.1674083
  37.6458553  16.3411673  19.9764083  41.7058553   8.7031673  19.8174083
  41.8058553   8.8421673  18.9624083  42.5238553   8.6431673  20.1134083
  41.8408553   8.7141673  19.7344083  50.8658553  16.7671673  17.2974083
  51.5028553  16.6331673  17.8784083  50.5248553  15.9731673  17.1804083
  50.9098553  16.6301673  17.3654083  51.0608553   9.1851673  34.0304083
  51.6948553   9.0151673  34.6044083  51.4778553   9.5881673  33.3784083
  51.2158553   9.2201673  34.0194083  46.9408553  13.0321673  19.6194083
  46.6898553  12.9041673  20.4454083  46.6238553  12.3371673  19.1984083
  46.8568553  12.9111673  19.6794083  51.6858553   3.7491673  34.7684083
  51.4898553   4.3931673  35.3234083  50.9638553   3.2591673  34.7604083
  51.5508553   3.7721673  34.8494083  51.5848553   4.6901673  27.7394083
  50.7518553   4.9401673  27.6674083  51.5288553   3.8501673  27.9684083
  51.4538553   4.6031673  27.7624083  48.4718553   9.2961673  35.3854083
  49.3428553   9.2601673  35.3494083  48.2528553   9.7161673  34.6534083
  48.5688553   9.3521673  35.2724083  38.2258553  15.1211673  26.5664083
  38.1468553  14.3111673  26.2504083  37.7818553  15.6081673  25.9944083
  38.1488553  15.0731673  26.4354083  43.8268553  11.2401673  19.0494083
  44.5438553  10.8931673  18.6934083  43.7928553  12.0401673  18.7014083
  43.9278553  11.3071673  18.9454083  35.7978553  17.3651673  30.1474083
  36.2908553  17.3091673  30.8654083  35.9858553  16.6321673  29.7124083
  35.8988553  17.2481673  30.1894083  45.0448553   6.7971673   7.9591673
  44.5208553   7.3931673   8.3221673  45.4418553   6.4291673   8.6431673
  45.0258553   6.8311673   8.1141673  34.9138553  10.9371673   3.4151673
  34.4728553  11.0551673   4.1581673  34.6308553  10.1621673   3.1301673
  34.8068553  10.8401673   3.4831673  47.7158553   7.8641673   4.6351673
  47.7958553   7.8681673   3.7661673  47.1318553   7.2321673   4.7841673
  47.6408553   7.7711673   4.5291673  37.4228553  11.6331673   2.4941673
  38.0308553  11.4631673   3.0971673  36.6718553  11.4931673   2.9151673
  37.4018553  11.5871673   2.6451673  34.8538553  13.6721673   9.6701673
  34.9828553  13.3921673  10.4861673  34.2438553  13.1311673   9.3611673
  34.7828553  13.5511673   9.7451673  41.4278553  11.1971673  14.7371673
  41.1918553  11.1941673  15.5771673  40.6798553  11.0491673  14.3131673
  41.2818553  11.1741673  14.7981673  36.2998553   8.1931673   3.8721673
  35.8378553   7.8011673   3.2451673  36.9998553   7.6801673   3.9641673
  36.3348553   8.0601673   3.7931673  40.8078553   3.8031673   9.2191673
  41.4858553   3.8211673   8.6701673  40.7628553   2.9671673   9.4641673
  40.9008553   3.6821673   9.1741673  41.4098553  14.3891673  12.0001673
  41.5478553  15.1491673  11.5931673  42.2008553  14.0241673  12.0271673
  41.5468553  14.4481673  11.9441673  38.3008553   6.2931673   3.8951673
  39.1178553   6.1061673   4.1381673  37.8238553   5.6791673   4.2911673
  38.3508553   6.1751673   3.9901673  42.5048553  12.2741673   6.5051673
  42.8528553  11.4751673   6.5351673  43.1698553  12.7781673   6.2501673
  42.6548553  12.2301673   6.4721673  42.5618553  11.7231673   2.7161673
  42.8928553  11.0791673   3.2021673  42.8018553  11.5121673   1.9051673
  42.6458553  11.5971673   2.6681673  44.5298553   5.8541673  14.0551673
  43.6818553   5.7551673  13.8771673  44.5588553   6.5991673  14.5091673
  44.4088553   5.9501673  14.0961673  34.7558553   5.9541673   6.8851673
  34.4998553   6.7851673   6.8101673  34.0918553   5.5711673   7.3021673
  34.6198553   6.0201673   6.9361673  34.6658553  15.6641673   4.7851673
  34.0738553  16.2221673   4.4721673  35.0918553  15.3951673   4.0731673
  34.6418553  15.7061673   4.6341673  40.5058553  13.5081673   2.2651673
  39.9268553  13.2331673   2.8571673  41.1298553  12.8991673   2.2901673
  40.5128553  13.3781673   2.3561673  44.8168553  16.1881673   1.7771673
  45.0308553  16.7151673   2.4391673  45.5838553  16.0141673   1.3981673
  44.9618553  16.2401673   1.8191673  41.0908553   2.9041673  16.6741673
  41.2078553   2.4501673  15.9381673  41.3788553   3.7021673  16.4711673
  41.1508553   2.9551673  16.5351673  36.2108553  14.3341673   2.7161673
  36.8668553  13.7591673   2.7311673  36.5998553  15.0831673   2.4951673
  36.3658553  14.3591673   2.6861673  51.9438553   3.4281673   3.9781673
  51.5978553   4.1061673   4.4041673  51.3078553   2.8301673   3.9941673
  51.7988553   3.4401673   4.0431673  47.2558553  16.1981673  10.0821673
  47.9998553  16.6541673  10.0721673  47.1348553  15.9841673   9.2451673
  47.3478553  16.2341673   9.9571673  36.8238553   2.5011673  15.6581673
  36.0458553   2.1111673  15.5861673  37.3148553   2.0891673  15.0671673
  36.7808553   2.3821673  15.5601673  37.0288553  12.8211673   6.2161673
  37.4518553  12.4651673   5.5421673  37.3528553  12.3991673   6.9081673
  37.1388553  12.7061673   6.2191673  40.2598553  15.6731673   5.5121673
  41.1038553  15.7771673   5.3171673  39.9628553  16.4911673   5.5801673
  40.3408553  15.8091673   5.4931673  44.0668553   5.0701673   3.5991673
  44.3538553   4.8381673   2.8091673  44.7988553   5.1491673   4.0681673
  44.2168553   5.0471673   3.5521673  39.2578553  16.8921673  11.2521673
  39.5498553  16.8251673  12.0721673  38.6318553  16.2871673  11.2071673
  39.2088553  16.7931673  11.3671673  34.1718553   3.0491673  13.2441673
  34.1678553   3.6361673  13.8901673  34.7658553   3.3611673  12.6871673
  34.2588553   3.1821673  13.2571673  46.5098553  13.3831673  13.7861673
  46.4758553  13.7651673  14.5701673  47.3638553  13.3411673  13.6151673
  46.6308553  13.4331673  13.8771673  35.1088553   2.6441673   2.1591673
  34.9948553   1.7801673   2.1901673  34.6338553   2.9381673   2.8291673
  35.0218553   2.5601673   2.2621673  37.2508553  15.0541673  10.3741673
  36.5528553  14.5461673  10.5001673  37.5108553  14.8491673   9.5661673
  37.1858553  14.9491673  10.2731673  44.9618553  16.5471673  11.2841673
  45.7298553  16.4671673  10.8781673  44.3788553  16.4261673  10.6461673
  44.9888553  16.5171673  11.1301673  51.2388553  17.1501673   4.1851673
  50.7838553  17.8671673   4.3861673  50.6248553  16.5791673   3.9431673
  51.0808553  17.1721673   4.1791673  43.0108553   3.1601673   5.3171673
  43.0848553   3.7281673   4.6591673  43.1318553   3.6521673   6.0271673
  43.0388553   3.3171673   5.3251673  48.2358553  12.9951673   3.7291673
  48.9368553  12.5131673   3.9181673  47.5758553  12.4261673   3.7741673
  48.2418553  12.8401673   3.7631673  38.6118553  13.9051673  12.9411673
  39.4528553  13.9681673  12.7191673  38.5748553  14.3021673  13.7171673
  38.7308553  13.9731673  13.0231673  40.5748553   9.4161673   7.6901673
  40.7468553   9.2061673   8.5191673  39.9198553   8.8821673   7.4741673
  40.5038553   9.3061673   7.7811673  46.8028553   3.3301673  11.2051673
  46.7078553   3.6491673  12.0111673  46.2098553   2.6911673  11.1671673
  46.7008553   3.2821673  11.3191673  41.3248553   9.3541673  10.2801673
  41.3778553  10.2011673  10.4821673  41.0398553   8.9841673  11.0171673
  41.2908553   9.4241673  10.4181673  47.5018553  10.0491673   9.4101673
  46.9878553   9.6371673   9.9811673  47.3758553  10.8931673   9.5911673
  47.4078553  10.1131673   9.5211673  34.1458553  13.7251673  16.4911673
  34.9018553  14.0741673  16.7491673  34.3228553  12.8721673  16.4341673
  34.2838553  13.6501673  16.5211673  50.5228553   3.5101673  12.3491673
  51.2948553   3.2851673  12.6861673  50.0478553   3.7271673  13.0491673
  50.5668553   3.5091673  12.5021673  38.0668553   2.7931673   5.3191673
  38.3388553   2.3631673   4.6111673  37.8908553   2.1571673   5.8901673
  38.0808553   2.6361673   5.2991673  37.8908553  10.2201673   4.8681673
  38.7418553  10.1401673   4.6951673  37.5338553   9.5381673   4.4561673
  37.9638553  10.1071673   4.7811673  36.6578553  16.9451673   6.1051673
  35.9848553  16.4471673   5.8601673  37.0608553  17.1301673   5.3541673
  36.6178553  16.8991673   5.9581673  36.2078553   3.8951673   8.4011673
  37.0508553   4.1151673   8.3581673  35.8188553   4.4681673   7.8701673
  36.2748553   4.0121673   8.3161673  52.9888553  14.9971673  13.7911673
  52.3068553  15.3071673  13.3441673  52.6198553  14.5391673  14.4361673
  52.8328553  14.9751673  13.8201673  40.2588553  10.2271673   3.1031673
  40.9718553  10.7221673   3.1931673  40.4808553   9.6601673   2.4771673
  40.3968553  10.2161673   3.0241673  34.4148553  11.8701673   6.4231673
  33.7478553  12.3581673   6.6991673  35.0948553  12.4151673   6.4521673
  34.4168553  12.0221673   6.4681673  42.0618553   5.5801673  16.5191673
  41.5778553   6.1571673  16.9611673  42.0338553   5.8751673  15.6981673
  41.9858553   5.7091673  16.4631673  53.1598553   6.2641673  11.1311673
  53.3748553   5.4641673  10.8551673  52.3098553   6.3241673  10.9421673
  53.0658553   6.1551673  11.0621673  44.7818553  13.9301673   5.4301673
  44.2588553  14.5641673   5.1371673  45.0918553  13.5661673   4.7011673
  44.7498553  13.9701673   5.2791673  38.8568553  11.7181673   8.1901673
  39.3238553  12.0071673   8.8681673  39.4288553  11.2401673   7.7361673
  39.0108553  11.6901673   8.2231673  47.2928553   3.7321673   5.9271673
  47.6368553   3.8841673   6.7141673  46.8398553   2.9941673   6.0401673
  47.2768553   3.6451673   6.0601673  35.4228553   9.3881673   6.7341673
  35.8538553   9.2591673   5.9871673  35.2178553  10.2361673   6.7081673
  35.4558553   9.4941673   6.6201673  50.8228553  15.3791673  11.8811673
  50.1518553  15.8931673  12.0991673  50.8858553  15.4791673  11.0171673
  50.7328553  15.4701673  11.7861673  39.5068553  12.9041673   5.0161673
  39.6328553  13.7471673   5.2031673  40.1748553  12.5051673   5.4121673
  39.6248553  12.9701673   5.1021673  37.6368553   6.3871673  14.8781673
  37.1008553   5.8811673  15.3461673  37.6568553   5.9971673  14.0981673
  37.5598553   6.2541673  14.8321673  38.2888553   7.6141673   6.6171673
  37.5078553   7.5551673   6.2341673  38.3608553   6.8621673   7.0541673
  38.1838553   7.4951673   6.6251673  38.7188553   7.3511673  10.0851673
  38.7438553   6.6761673   9.5341673  38.0728553   7.8471673   9.7731673
  38.6278553   7.3241673   9.9581673  48.6138553   5.0641673   8.4811673
  47.9518553   5.3921673   8.9441673  48.8008553   5.6981673   7.9121673
  48.5438553   5.2061673   8.4651673  42.8188553  16.1281673   9.4771673
  42.5418553  15.4871673   8.9541673  42.6108553  16.8541673   9.0391673
  42.7478553  16.1411673   9.3351673  46.8068553   3.0331673   1.9921673
  47.2968553   3.7501673   1.9151673  46.0168553   3.2941673   1.7291673
  46.7628553   3.1771673   1.9421673  36.5178553   8.7061673  15.6441673
  36.4808553   9.2071673  14.9301673  36.8488553   7.9541673  15.3491673
  36.5608553   8.6681673  15.4951673  48.1208553  10.9111673  13.9021673
  48.6048553  11.6291673  14.0001673  48.5148553  10.4841673  13.2511673
  48.2508553  10.9541673  13.8201673  42.4168553  13.7561673  15.0791673
  42.7708553  13.5781673  15.8561673  41.9808553  13.0271673  14.8801673
  42.4048553  13.6221673  15.1651673  43.3888553   4.5031673   7.7171673
  43.8688553   5.2021673   7.9251673  43.7618553   3.8561673   8.1681673
  43.5148553   4.5111673   7.8141673  50.5498553  11.5421673   3.9721673
  50.9058553  11.1921673   4.6871673  50.5418553  10.8811673   3.4021673
  50.6018553  11.3921673   3.9931673  46.5948553  14.6081673   7.8161673
  45.9918553  14.3121673   7.2591673  47.1398553  15.0601673   7.3071673
  46.5858553  14.6311673   7.6581673  46.6078553  11.4591673   7.2161673
  45.8108553  11.6831673   7.4901673  46.8658553  10.8651673   7.8011673
  46.5278553  11.4041673   7.3431673  49.8678553   9.4571673  12.0621673
  49.9228553   9.5821673  11.2001673  50.6208553   9.7771673  12.3641673
  49.9868553   9.5221673  11.9791673  46.0588553  14.8061673  16.3391673
  46.2228553  15.0891673  17.1481673  46.3218553  15.4671673  15.8341673
  46.1218553  14.9461673  16.3841673  45.5988553   9.2631673  11.6621673
  45.4438553   9.8731673  12.2661673  46.1328553   8.7051673  12.0681673
  45.6548553   9.2711673  11.8111673  43.9828553   7.6631673   2.3201673
  44.0418553   8.3131673   2.8991673  43.7938553   6.9671673   2.8111673
  43.9638553   7.6561673   2.4781673  49.2088553  11.9921673   8.1891673
  48.7298553  12.2901673   7.5231673  48.8528553  11.2161673   8.3671673
  49.0858553  11.9211673   8.1171673  43.2058553   9.7101673   6.7511673
  42.3588553   9.5161673   6.8321673  43.5298553   9.5451673   7.5441673
  43.1278553   9.6571673   6.8801673  37.0538553   9.4031673   9.0671673
  37.7758553   9.8911673   9.0301673  36.7838553   9.3731673   8.2381673
  37.1208553   9.4711673   8.9391673  40.2838553   4.5741673   5.8021673
  41.1298553   4.3841673   5.9001673  39.9138553   3.7971673   5.6641673
  40.3538553   4.4311673   5.7961673  35.1048553   5.9121673   2.4571673
  35.5938553   5.6201673   3.1181673  35.2338553   5.3191673   1.8301673
  35.1958553   5.7811673   2.4621673  50.1398553   8.9341673   9.3081673
  50.1328553   8.1581673   9.7061673  49.2988553   9.1681673   9.3011673
  50.0148553   8.8541673   9.3661673  36.4488553  10.4551673  13.3451673
  36.0278553   9.9371673  12.7841673  36.0968553  11.2411673  13.2021673
  36.3348553  10.4951673  13.2411673  51.3958553   9.0051673   6.7451673
  51.1098553   9.4061673   7.4651673  52.2558553   8.9431673   6.8721673
  51.4808553   9.0551673   6.8701673  49.0578553   2.9291673  15.2851673
  48.5328553   3.3881673  15.8091673  48.6968553   2.1341673  15.2791673
  48.9268553   2.8791673  15.3611673  34.5648553   1.7771673   7.1891673
  34.6088553   2.1211673   6.3881673  35.3198553   2.0141673   7.5561673
  34.6828553   1.8631673   7.1251673  52.5268553  14.6381673   7.2741673
  52.8168553  14.8951673   6.4931673  53.2218553  14.7341673   7.7931673
  52.6728553  14.6901673   7.2351673  47.5498553   6.4981673  15.3611673
  47.6228553   6.6021673  16.2241673  46.9158553   7.0561673  15.1401673
  47.4668553   6.5961673  15.4561673  49.8178553   6.8171673  13.7261673
  50.1368553   7.6031673  13.9291673  49.4478553   6.5471673  14.4691673
  49.8108553   6.8931673  13.8661673  49.6138553   5.0751673   4.9151673
  48.8688553   4.7521673   5.2331673  49.6158553   5.9011673   5.1951673
  49.5038553   5.1491673   5.0031673  52.5158553   7.3591673  16.4611673
  52.4638553   7.0181673  15.6601673  53.2528553   7.8261673  16.4391673
  52.6168553   7.3781673  16.3391673  52.0538553  11.0351673  12.6671673
  52.6818553  10.4861673  12.4111673  51.9928553  11.6001673  12.0051673
  52.1378553  11.0381673  12.5311673  41.1878553  12.2661673   9.9631673
  40.8898553  12.8581673  10.5301673  41.2428553  12.7081673   9.2141673
  41.1518553  12.4191673   9.9361673  39.1668553  11.2161673  13.3611673
  38.3608553  10.9261673  13.5281673  39.0778553  12.0841673  13.3671673
  39.0348553  11.3011673  13.3861673  43.7038553   8.6891673   9.4541673
  44.1798553   9.0631673  10.0821673  42.8808553   8.8231673   9.7131673
  43.6528553   8.7641673   9.5851673  40.4138553   4.2921673  12.1951673
  40.5748553   3.5481673  12.6221673  40.3688553   4.0431673  11.3601673
  40.4308553   4.1451673  12.1351673  42.9678553  16.0821673   4.6821673
  43.5138553  16.7611673   4.7361673  42.6178553  16.1641673   3.8871673
  42.9968553  16.1951673   4.5721673  41.1508553  14.3101673   8.0711673
  40.5268553  14.8921673   7.8891673  41.3988553  14.0241673   7.2851673
  41.0948553  14.3541673   7.9281673  45.4598553  10.9441673  15.0601673
  46.2168553  11.2301673  14.7341673  44.9128553  10.9961673  14.3821673
  45.4908553  10.9941673  14.9111673  49.3688553  13.4941673  13.5641673
  49.7148553  13.7641673  14.3181673  49.6628553  14.0761673  12.9841673
  49.4638553  13.6201673  13.5901673  38.6748553   5.1531673   8.1361673
  39.1148553   5.0501673   7.3901673  39.2198553   4.8401673   8.7411673
  38.8198553   5.0921673   8.1151673  46.6908553   4.2551673  13.7281673
  46.0428553   4.7251673  14.0761673  47.2558553   4.1661673  14.3871673
  46.6788553   4.3111673  13.8771673  46.3788553   5.7921673  10.0261673
  46.6808553   6.2121673  10.7291673  46.4148553   4.9521673  10.2581673
  46.4288553   5.7301673  10.1641673  43.8038553  15.9591673  13.9511673
  44.2818553  15.3591673  13.5351673  43.4528553  15.5161673  14.6161673
  43.8228553  15.8051673  13.9881673  48.9268553   5.2391673   2.2781673
  49.1338553   5.0381673   3.1021673  49.6828553   5.5071673   1.9361673
  49.0688553   5.2491673   2.3491673  50.3918553   9.2661673   2.1321673
  50.8678553   8.5371673   2.0841673  49.5708553   8.9801673   2.0561673
  50.3408553   9.1161673   2.1131673  43.8628553  11.1781673  12.9711673
  43.0678553  11.1141673  13.3221673  43.9338553  12.0251673  12.7761673
  43.7558553  11.2931673  12.9941673  39.6928553  17.3851673   8.2881673
  39.7038553  17.4441673   9.1581673  39.2678553  16.6381673   8.1381673
  39.6318553  17.2831673   8.3941673  46.6078553  10.4331673   4.4871673
  46.6838553  10.7741673   5.2861673  46.7768553   9.5861673   4.6081673
  46.6438553  10.3581673   4.6231673  44.1298553   9.7071673   4.0521673
  43.8318553   9.3921673   4.8091673  44.8248553  10.1801673   4.2871673
  44.1888553   9.7301673   4.1991673  44.3518553  13.8251673  12.0791673
  45.0388553  13.7111673  12.6041673  44.4858553  14.6161673  11.7351673
  44.4728553  13.9251673  12.1061673  52.5278553   6.4341673  13.8901673
  51.6728553   6.3121673  14.0161673  52.6808553   6.0391673  13.1271673
  52.4238553   6.3571673  13.7961673  47.0408553   7.0991673  12.4661673
  46.7858553   6.3801673  12.8881673  47.8618553   7.2151673  12.7361673
  47.1248553   7.0101673  12.5681673  36.4568553  16.8831673  13.7301673
  35.8028553  16.3141673  13.8281673  36.0818553  17.6561673  13.8811673
  36.3048553  16.9131673  13.7671673  44.9748553   8.2891673  15.6531673
  45.2978553   8.9751673  15.2211673  44.2708553   8.6121673  16.0551673
  44.9178553   8.4381673  15.6481673  48.0588553  16.6631673   6.5821673
  47.6078553  17.3061673   6.9611673  48.7668553  16.5841673   7.0871673
  48.0968553  16.7461673   6.7131673  44.7598553  11.7531673   9.5121673
  44.0658553  12.1551673   9.8551673  45.4368553  12.1861673   9.8511673
  44.7568553  11.8761673   9.6131673  50.1368553  14.3461673  16.0921673
  50.9128553  13.9561673  16.1751673  49.6678553  14.0101673  16.7471673
  50.1818553  14.2391673  16.2011673  37.8278553   5.2911673  11.8591673
  38.2028553   5.9101673  11.3721673  38.5018553   4.8171673  12.1441673
  37.9828553   5.3131673  11.8291673  35.6028553   3.7391673  11.1341673
  35.6798553   3.5701673  10.2811673  36.3488553   4.1451673  11.3311673
  35.7238553   3.7741673  11.0371673  45.0818553  13.3441673   2.6811673
  44.8768553  14.1771673   2.5221673  44.3068553  12.9621673   2.8031673
  44.9368553  13.4111673   2.6761673  50.2638553   6.5251673  10.9301673
  50.2618553   5.6621673  11.0541673  50.3308553   6.8491673  11.7371673
  50.2738553   6.4451673  11.0671673  34.9998553   8.9651673  11.3581673
  35.3198553   9.1841673  10.5771673  34.8998553   8.1001673  11.3031673
  35.0318553   8.8701673  11.2351673  48.7348553   2.0311673   8.3661673
  49.5898553   2.1301673   8.5111673  48.3658553   2.5841673   8.9311673
  48.8068553   2.1281673   8.4711673  39.7628553   8.2571673  12.7431673
  39.3668553   9.0311673  12.8181673  39.3568553   7.8841673  12.0671673
  39.6448553   8.3161673  12.6541673  49.0388553   7.3111673   6.8571673
  49.7048553   7.8521673   7.0171673  48.6938553   7.6221673   6.1181673
  49.0858553   7.4371673   6.7721673  49.3518553  15.3771673   2.6641673
  49.1778553  14.7231673   3.2141673  50.0648553  15.1061673   2.2411673
  49.4318553  15.2401673   2.6831673  47.0268553  12.8301673  10.3551673
  47.2328553  13.1311673  11.1471673  46.9658553  13.5521673   9.8701673
  47.0478553  12.9811673  10.4001673  46.5608553  17.0441673  14.6011673
  45.8078553  17.0261673  14.1601673  46.7288553  17.8961673  14.6851673
  46.4748553  17.1671673  14.5481673  41.7978553   6.3111673  13.7711673
  41.4758553   5.7351673  13.2011673  41.4388553   7.0661673  13.5251673
  41.6978553   6.3371673  13.6511673  51.8388553  11.4691673   9.8131673
  51.8068553  10.6071673   9.6781673  51.1458553  11.7711673   9.3791673
  51.7318553  11.3861673   9.7291673  40.2328553  16.6671673  14.0191673
  40.2738553  16.7931673  14.8821673  40.8838553  16.1071673  13.8631673
  40.3348553  16.6031673  14.1241673  49.9438553  14.7291673   8.6101673
  50.4708553  14.6461673   7.9191673  49.5528553  13.9511673   8.6641673
  49.9638553  14.6021673   8.5161673  37.8258553  15.0501673  15.3791673
  38.4208553  15.4811673  15.8511673  37.4618553  15.6741673  14.8901673
  37.8598553  15.2061673  15.3761673  45.8168553   5.9811673   5.3111673
  46.3678553   5.3741673   5.6111673  45.3918553   6.2441673   6.0261673
  45.8358553   5.9301673   5.4601673  36.0648553   4.6311673   4.7971673
  35.6968553   4.9331673   5.5281673  36.5988553   4.0021673   5.0811673
  36.0888553   4.5831673   4.9471673  35.7528553  13.0391673  12.3081673
  35.1788553  13.4551673  12.8171673  36.4858553  13.5041673  12.4031673
  35.7768553  13.1691673  12.3971673  47.7868553   7.8121673   1.8731673
  47.8548553   6.9621673   2.0541673  46.9638553   7.8981673   1.5951673
  47.6748553   7.6991673   1.8591673  51.0608553   9.1851673  15.0241673
  51.6948553   9.0151673  15.5981673  51.4778553   9.5881673  14.3721673
  51.2158553   9.2201673  15.0131673  51.6858553   3.7491673  15.7621673
  51.4898553   4.3931673  16.3171673  50.9638553   3.2591673  15.7541673
  51.5508553   3.7721673  15.8431673  51.5848553   4.6901673   8.7331673
  50.7518553   4.9401673   8.6611673  51.5288553   3.8501673   8.9621673
  51.4538553   4.6031673   8.7561673  48.4718553   9.2961673  16.3791673
  49.3428553   9.2601673  16.3431673  48.2528553   9.7161673  15.6471673
  48.5688553   9.3521673  16.2661673  38.2258553  15.1211673   7.5601673
  38.1468553  14.3111673   7.2441673  37.7818553  15.6081673   6.9881673
  38.1488553  15.0731673   7.4291673  35.7978553  17.3651673  11.1411673
  36.2908553  17.3091673  11.8591673  35.9858553  16.6321673  10.7061673
  35.8988553  17.2481673  11.1831673  26.3710113  55.3154913  79.3131313
  26.1260113  55.8034913  78.6331313  27.2340113  55.2424913  79.2131313
  26.4620113  55.3764913  79.1981313  26.1800113  62.2314913  83.9841313
  25.6560113  62.8274913  84.3471313  26.5770113  61.8634913  84.6681313
  26.1610113  62.2654913  84.1391313  16.0490113  66.3714913  79.4401313
  15.6080113  66.4894913  80.1831313  15.7660113  65.5964913  79.1551313
  15.9420113  66.2744913  79.5081313  32.3240113  69.6724913  76.9551313
  33.0250113  69.1534913  76.9511313  31.7370113  69.2274913  76.4861313
  32.3410113  69.5294913  76.8851313  15.7920113  60.1634913  75.9471313
  15.0140113  60.3254913  75.5871313  15.8310113  59.2924913  75.9691313
  15.6830113  60.0584913  75.8971313  18.9310113  65.4264913  74.6191313
  18.5390113  65.0554913  73.9331313  18.8510113  64.8284913  75.2481313
  18.8610113  65.2834913  74.6101313  28.8510113  63.2984913  80.6601313
  28.9310113  63.3024913  79.7911313  28.2670113  62.6664913  80.8091313
  28.7760113  63.2054913  80.5541313  18.5580113  67.0674913  78.5191313
  19.1660113  66.8974913  79.1221313  17.8070113  66.9274913  78.9401313
  18.5370113  67.0214913  78.6701313  22.8400113  56.4024913  78.4681313
  22.7700113  57.0794913  77.9221313  23.5810113  56.0144913  78.2191313
  22.9390113  56.4454913  78.3501313  17.4490113  70.1584913  74.5961313
  17.9160113  70.2424913  73.8641313  17.9040113  69.5804913  75.0651313
  17.5850113  70.0854913  74.5571313  15.9890113  69.1064913  85.6951313
  16.1180113  68.8264913  86.5111313  15.3790113  68.5654913  85.3861313
  15.9180113  68.9854913  85.7701313  17.4350113  63.6274913  79.8971313
  16.9730113  63.2354913  79.2701313  18.1350113  63.1144913  79.9891313
  17.4700113  63.4944913  79.8181313  21.9430113  59.2374913  85.2441313
  22.6210113  59.2554913  84.6951313  21.8980113  58.4014913  85.4891313
  22.0360113  59.1164913  85.1991313  19.4360113  61.7274913  79.9201313
  20.2530113  61.5404913  80.1631313  18.9590113  61.1134913  80.3161313
  19.4860113  61.6094913  80.0151313  23.6400113  67.7084913  82.5301313
  23.9880113  66.9094913  82.5601313  24.3050113  68.2124913  82.2751313
  23.7900113  67.6644913  82.4971313  23.6970113  67.1574913  78.7411313
  24.0280113  66.5134913  79.2271313  23.9370113  66.9464913  77.9301313
  23.7810113  67.0314913  78.6931313  20.0330113  56.8214913  79.1861313
  19.7370113  57.3224913  78.5361313  20.9000113  56.8994913  79.1291313
  20.1170113  56.9074913  79.0821313  23.0120113  55.9634913  81.4091313
  23.0850113  56.8234913  81.5381313  22.9740113  55.8884913  80.5411313
  23.0170113  56.0794913  81.3001313  27.6850113  58.8894913  73.7081313
  27.2350113  59.5704913  74.0151313  27.7990113  58.3854913  74.4111313
  27.6360113  58.9154913  73.8571313  15.8910113  61.3884913  82.9101313
  15.6350113  62.2194913  82.8351313  15.2270113  61.0054913  83.3271313
  15.7550113  61.4544913  82.9611313  21.6410113  68.9424913  78.2901313
  21.0620113  68.6674913  78.8821313  22.2650113  68.3334913  78.3151313
  21.6480113  68.8124913  78.3811313  18.9200113  56.2054913  83.4011313
  18.3990113  55.5774913  83.0931313  19.5110113  55.7684913  83.8721313
  18.9310113  56.0474913  83.4251313  17.3460113  69.7684913  78.7411313
  18.0020113  69.1934913  78.7561313  17.7350113  70.5174913  78.5201313
  17.5010113  69.7934913  78.7111313  33.0790113  58.8624913  80.0031313
  32.7330113  59.5404913  80.4291313  32.4430113  58.2644913  80.0191313
  32.9340113  58.8744913  80.0681313  18.1640113  68.2554913  82.2411313
  18.5870113  67.8994913  81.5671313  18.4880113  67.8334913  82.9331313
  18.2740113  68.1404913  82.2441313  25.2020113  60.5044913  79.6241313
  25.4890113  60.2724913  78.8341313  25.9340113  60.5834913  80.0931313
  25.3520113  60.4814913  79.5771313  25.9240113  60.8434913  74.7451313
  26.2050113  61.6314913  74.9941313  25.1480113  61.0084913  74.3821313
  25.8510113  60.9844913  74.7281313  32.7540113  57.1854913  85.3721313
  33.5110113  57.2574913  84.9441313  32.8170113  56.4124913  85.7711313
  32.8750113  57.0824913  85.3671313  24.7830113  69.0144913  74.5611313
  24.6020113  69.5594913  75.2181313  25.5490113  69.3044913  74.2601313
  24.8690113  69.1384913  74.6141313  28.2900113  56.9104913  75.6151313
  28.8300113  56.2284913  75.6911313  28.3520113  57.3084913  76.3891313
  28.3790113  56.8684913  75.7411313  16.2440113  58.0784913  78.1841313
  16.1300113  57.2144913  78.2151313  15.7690113  58.3724913  78.8541313
  16.1570113  57.9944913  78.2871313  18.3860113  70.4884913  86.3991313
  17.6880113  69.9804913  86.5251313  18.6460113  70.2834913  85.5911313
  18.3210113  70.3834913  86.2981313  25.5480113  59.2864913  76.9291313
  25.0400113  58.6244913  76.6751313  25.6000113  59.7904913  76.2191313
  25.4810113  59.2634913  76.7871313  25.5480113  56.2274913  76.8201313
  25.0930113  55.8254913  76.1941313  26.3210113  56.3824913  76.4451313
  25.5950113  56.1914913  76.6721313  24.1460113  58.5944913  81.3421313
  24.2200113  59.1624913  80.6841313  24.2670113  59.0864913  82.0521313
  24.1740113  58.7514913  81.3501313  29.3710113  68.4294913  79.7541313
  30.0720113  67.9474913  79.9431313  28.7110113  67.8604913  79.7991313
  29.3770113  68.2744913  79.7881313  18.7540113  54.4174913  79.6901313
  19.2900113  55.1054913  79.6801313  18.7570113  54.1434913  78.8621313
  18.8330113  54.4784913  79.5661313  21.7100113  64.8504913  83.7151313
  21.8820113  64.6404913  84.5441313  21.0550113  64.3164913  83.4991313
  21.6390113  64.7404913  83.8061313  27.9380113  58.7644913  87.2301313
  27.8430113  59.0834913  88.0361313  27.3450113  58.1254913  87.1921313
  27.8360113  58.7164913  87.3441313  22.4600113  64.7884913  86.3051313
  22.5130113  65.6354913  86.5071313  22.1750113  64.4184913  87.0421313
  22.4260113  64.8584913  86.4431313  28.6370113  65.4834913  85.4351313
  28.1230113  65.0714913  86.0061313  28.5110113  66.3274913  85.6161313
  28.5430113  65.5474913  85.5461313  29.1940113  54.7084913  80.0661313
  29.2430113  54.3904913  80.8771313  29.5170113  54.0644913  79.5731313
  29.2490113  54.5664913  80.1131313  19.2020113  58.2274913  81.3441313
  19.4740113  57.7974913  80.6361313  19.0260113  57.5914913  81.9151313
  19.2160113  58.0704913  81.3241313  31.8900113  65.9224913  75.5621313
  32.0090113  65.6354913  76.3771313  32.6970113  65.9434913  75.2321313
  32.0260113  65.8834913  75.6341313  19.0260113  65.6544913  80.8931313
  19.8770113  65.5744913  80.7201313  18.6690113  64.9724913  80.4811313
  19.0990113  65.5414913  80.8061313  17.3430113  59.3294913  84.4261313
  18.1860113  59.5494913  84.3831313  16.9540113  59.9024913  83.8951313
  17.4100113  59.4464913  84.3411313  29.7850113  62.4594913  75.1471313
  29.5650113  63.1904913  74.7251313  29.3370113  62.5104913  75.8941313
  29.6860113  62.5744913  75.1951313  21.3940113  65.6614913  79.1281313
  22.1070113  66.1564913  79.2181313  21.6160113  65.0944913  78.5021313
  21.5320113  65.6504913  79.0491313  33.9720113  57.3204913  74.6001313
  33.3100113  56.7524913  74.6231313  33.7790113  57.8324913  73.9201313
  33.8460113  57.3124913  74.5031313  15.5500113  67.3044913  82.4481313
  14.8830113  67.7924913  82.7241313  16.2300113  67.8494913  82.4771313
  15.5520113  67.4564913  82.4931313  34.2950113  61.6984913  87.1561313
  34.5100113  60.8984913  86.8801313  33.4450113  61.7584913  86.9671313
  34.2010113  61.5894913  87.0871313  15.6160113  63.9884913  77.5511313
  15.4310113  63.1494913  77.7031313  16.2750113  63.9524913  76.9811313
  15.6860113  63.8594913  77.4891313  31.9740113  56.8784913  76.8791313
  32.7200113  56.4714913  77.0781313  32.2370113  57.5934913  76.4541313
  32.1230113  56.9244913  76.8461313  25.9170113  69.3644913  81.4551313
  25.3940113  69.9984913  81.1621313  26.2270113  69.0004913  80.7261313
  25.8850113  69.4044913  81.3041313  15.7880113  68.1524913  77.1261313
  16.3400113  68.7214913  77.4901313  15.5560113  67.6374913  77.7911313
  15.8350113  68.1604913  77.2781313  19.9920113  67.1524913  84.2151313
  20.4590113  67.4414913  84.8931313  20.5640113  66.6744913  83.7611313
  20.1460113  67.1244913  84.2481313  28.4280113  59.1664913  81.9521313
  28.7720113  59.3184913  82.7391313  27.9750113  58.4284913  82.0651313
  28.4120113  59.0794913  82.0851313  15.6180113  66.6014913  74.7541313
  16.3740113  66.1694913  74.8121313  15.6330113  67.1334913  75.4451313
  15.7320113  66.6164913  74.8651313  16.5580113  64.8224913  82.7591313
  16.9890113  64.6934913  82.0121313  16.3530113  65.6704913  82.7331313
  16.5910113  64.9284913  82.6451313  22.9040113  58.3864913  76.4091313
  22.9020113  58.2694913  75.5441313  22.7230113  59.2344913  76.5011313
  22.8770113  58.4944913  76.2951313  20.6420113  68.3384913  81.0411313
  20.7680113  69.1814913  81.2281313  21.3100113  67.9394913  81.4371313
  20.7600113  68.4044913  81.1271313  19.2570113  61.2184913  76.0431313
  19.1290113  60.7704913  76.7811313  18.6750113  60.8764913  75.4911313
  19.1520113  61.1014913  76.0711313  19.4240113  63.0484913  82.6421313
  18.6430113  62.9894913  82.2591313  19.4960113  62.2964913  83.0791313
  19.3190113  62.9294913  82.6501313  19.8540113  62.7854913  86.1101313
  19.8790113  62.1104913  85.5591313  19.2080113  63.2814913  85.7981313
  19.7630113  62.7584913  85.9831313  29.7490113  60.4984913  84.5061313
  29.0870113  60.8264913  84.9691313  29.9360113  61.1324913  83.9371313
  29.6790113  60.6404913  84.4901313  26.3940113  56.4044913  87.9351313
  26.5430113  55.5794913  87.6921313  26.7730113  56.4594913  88.7191313
  26.4720113  56.2904913  88.0151313  27.9420113  58.4674913  78.0171313
  28.4320113  59.1844913  77.9401313  27.1520113  58.7284913  77.7541313
  27.8980113  58.6114913  77.9671313  24.5240113  59.9374913  83.7421313
  25.0040113  60.6364913  83.9501313  24.8970113  59.2904913  84.1931313
  24.6500113  59.9454913  83.8391313  26.7130113  63.1064913  76.0161313
  26.7050113  63.8284913  75.5261313  26.0740113  63.2414913  76.5931313
  26.6180113  63.2334913  76.0291313  31.6850113  66.9764913  79.9971313
  32.0410113  66.6264913  80.7121313  31.6770113  66.3154913  79.4271313
  31.7370113  66.8264913  80.0181313  27.7300113  70.0424913  83.8411313
  27.1270113  69.7464913  83.2841313  28.2750113  70.4944913  83.3321313
  27.7210113  70.0654913  83.6831313  27.7430113  66.8934913  83.2411313
  26.9460113  67.1174913  83.5151313  28.0010113  66.2994913  83.8261313
  27.6630113  66.8384913  83.3681313  21.3060113  55.4484913  75.6771313
  21.4030113  55.3414913  76.5381313  20.5980113  55.9544913  75.6121313
  21.2160113  55.5074913  75.7951313  31.0030113  64.8914913  88.0871313
  31.0580113  65.0164913  87.2251313  31.7560113  65.2114913  88.3891313
  31.1220113  64.9564913  88.0041313  18.4280113  63.7554913  76.9201313
  18.7520113  62.9764913  76.6981313  19.0740113  64.1234913  77.3751313
  18.5710113  63.6944913  76.9541313  26.7340113  64.6974913  87.6871313
  26.5790113  65.3074913  88.2911313  27.2680113  64.1394913  88.0931313
  26.7900113  64.7054913  87.8361313  15.4250113  55.4164913  77.8881313
  15.5540113  54.7084913  77.3961313  15.0580113  55.0984913  78.6131313
  15.3900113  55.2644913  77.9231313  25.1180113  63.0974913  78.3451313
  25.1770113  63.7474913  78.9241313  24.9290113  62.4014913  78.8361313
  25.0990113  63.0904913  78.5031313  30.3440113  67.4264913  84.2141313
  29.8650113  67.7244913  83.5481313  29.9880113  66.6504913  84.3921313
  30.2210113  67.3554913  84.1421313  19.6140113  57.6144913  74.8571313
  19.1030113  57.6674913  74.1511313  20.3980113  57.8544913  74.5611313
  19.6540113  57.6574913  74.7091313  24.3410113  65.1444913  82.7761313
  23.4940113  64.9504913  82.8571313  24.6650113  64.9794913  83.5691313
  24.2630113  65.0914913  82.9051313  18.1890113  64.8374913  85.0921313
  18.9110113  65.3254913  85.0551313  17.9190113  64.8074913  84.2631313
  18.2560113  64.9054913  84.9641313  21.4190113  60.0084913  81.8271313
  22.2650113  59.8184913  81.9251313  21.0490113  59.2314913  81.6891313
  21.4890113  59.8654913  81.8211313  16.2400113  61.3464913  78.4821313
  16.7290113  61.0544913  79.1431313  16.3690113  60.7534913  77.8551313
  16.3310113  61.2154913  78.4871313  31.2750113  64.3684913  85.3331313
  31.2680113  63.5924913  85.7311313  30.4340113  64.6024913  85.3261313
  31.1500113  64.2884913  85.3911313  20.7650113  62.7804913  73.9681313
  20.1550113  62.3754913  74.4421313  20.3790113  62.8984913  73.1951313
  20.6180113  62.7374913  73.9241313  32.5310113  64.4394913  82.7701313
  32.2450113  64.8404913  83.4901313  33.3910113  64.3774913  82.8971313
  32.6160113  64.4894913  82.8951313  22.2200113  61.2414913  76.6781313
  22.4920113  62.0674913  76.7451313  21.3570113  61.3164913  76.5821313
  22.1330113  61.3744913  76.6731313  15.7000113  57.2114913  83.2141313
  15.7440113  57.5554913  82.4131313  16.4550113  57.4484913  83.5811313
  15.8180113  57.2974913  83.1501313  33.6620113  70.0724913  83.2991313
  33.9520113  70.3294913  82.5181313  34.3570113  70.1684913  83.8181313
  33.8080113  70.1244913  83.2601313  30.2670113  68.6754913  75.2811313
  30.6010113  67.8694913  75.3161313  29.5120113  68.6034913  75.7111313
  30.2050113  68.5454913  75.3501313  30.7490113  60.5094913  80.9401313
  30.0040113  60.1864913  81.2581313  30.7510113  61.3354913  81.2201313
  30.6390113  60.5834913  81.0281313  33.1890113  66.4694913  88.6921313
  33.8170113  65.9204913  88.4361313  33.1280113  67.0344913  88.0301313
  33.2730113  66.4724913  88.5561313  27.6410113  66.5504913  74.6841313
  28.3250113  66.0364913  74.5151313  27.2240113  66.5964913  73.9191313
  27.6800113  66.4814913  74.5461313  22.3230113  67.7004913  85.9881313
  22.0250113  68.2924913  86.5551313  22.3780113  68.1424913  85.2391313
  22.2870113  67.8534913  85.9611313  29.6610113  56.8394913  88.4011313
  30.4050113  57.2914913  88.3381313  29.0950113  57.3094913  87.9321313
  29.6880113  56.9764913  88.3231313  24.8390113  64.1234913  85.4791313
  25.3150113  64.4974913  86.1071313  24.0160113  64.2574913  85.7381313
  24.7880113  64.1984913  85.6101313  21.5490113  59.7264913  88.2201313
  21.7100113  58.9824913  88.6471313  21.5040113  59.4774913  87.3851313
  21.5660113  59.5794913  88.1601313  30.9460113  54.8194913  86.0711313
  30.6660113  55.6444913  86.0271313  31.6620113  54.8724913  86.5671313
  31.0110113  54.9494913  86.1381313  23.3010113  55.5344913  88.1001313
  24.0060113  55.8544913  87.6981313  23.5420113  54.7274913  88.3271313
  23.4400113  55.4624913  88.0741313  22.2860113  69.7444913  84.0961313
  21.6620113  70.3264913  83.9141313  22.5340113  69.4584913  83.3101313
  22.2300113  69.7884913  83.9531313  32.3670113  61.0744913  74.9281313
  32.7450113  61.7514913  74.5281313  31.5250113  61.2984913  74.9591313
  32.2980113  61.2074913  74.8731313  23.8800113  64.5204913  74.0111313
  23.0750113  64.3434913  73.7261313  23.8470113  65.3714913  74.2031313
  23.7560113  64.6194913  73.9981313  19.8100113  60.5874913  84.1611313
  20.2500113  60.4844913  83.4151313  20.3550113  60.2744913  84.7661313
  19.9550113  60.5264913  84.1401313  27.5140113  61.2264913  86.0511313
  27.8160113  61.6464913  86.7541313  27.5500113  60.3864913  86.2831313
  27.5640113  61.1644913  86.1891313  30.0620113  60.6734913  78.3031313
  30.2690113  60.4724913  79.1271313  30.8180113  60.9414913  77.9611313
  30.2040113  60.6834913  78.3741313  23.3570113  55.5724913  84.2081313
  22.5310113  55.4234913  84.4451313  23.3170113  55.6074913  83.3371313
  23.2290113  55.5554913  84.1141313  31.0840113  56.7564913  79.7771313
  30.3700113  56.2854913  79.9481313  30.9220113  57.0974913  78.9911313
  30.9550113  56.7374913  79.6861313  31.5270113  64.7004913  78.1571313
  32.0030113  63.9714913  78.1091313  30.7060113  64.4144913  78.0811313
  31.4760113  64.5504913  78.1381313  18.9860113  58.7144913  77.4681313
  19.1120113  58.3854913  76.6701313  18.1740113  58.4654913  77.6671313
  18.8850113  58.6294913  77.3801313  27.7430113  65.8674913  80.5121313
  27.8190113  66.2084913  81.3111313  27.9120113  65.0204913  80.6331313
  27.7790113  65.7924913  80.6481313  25.2650113  65.1414913  80.0771313
  24.9670113  64.8264913  80.8341313  25.9600113  65.6144913  80.3121313
  25.3240113  65.1644913  80.2241313  25.4870113  69.2594913  88.1041313
  26.1740113  69.1454913  88.6291313  25.6210113  70.0504913  87.7601313
  25.6080113  69.3594913  88.1311313  28.1760113  62.5334913  88.4911313
  27.9210113  61.8144913  88.9131313  28.9970113  62.6494913  88.7611313
  28.2600113  62.4444913  88.5931313  25.8950113  67.1874913  85.5371313
  25.2010113  67.5894913  85.8801313  26.5720113  67.6204913  85.8761313
  25.8920113  67.3104913  85.6381313  18.9630113  60.7254913  87.8841313
  19.3380113  61.3444913  87.3971313  19.6370113  60.2514913  88.1691313
  19.1180113  60.7474913  87.8541313  16.7380113  59.1734913  87.1591313
  16.8150113  59.0044913  86.3061313  17.4840113  59.5794913  87.3561313
  16.8590113  59.2084913  87.0621313  32.2970113  61.8134913  77.5991313
  32.4000113  61.7554913  76.7351313  33.0380113  61.4814913  77.9171313
  32.4220113  61.7564913  77.5181313  26.2170113  68.7784913  78.7061313
  26.0120113  69.6114913  78.5471313  25.4420113  68.3964913  78.8281313
  26.0720113  68.8454913  78.7011313  31.3990113  61.9594913  86.9551313
  31.3970113  61.0964913  87.0791313  31.4660113  62.2834913  87.7621313
  31.4090113  61.8794913  87.0921313  16.1350113  64.3994913  87.3831313
  16.4550113  64.6184913  86.6021313  16.0350113  63.5344913  87.3281313
  16.1670113  64.3044913  87.2601313  17.5910113  60.3354913  74.0011313
  16.9190113  60.3494913  74.5571313  17.6860113  59.4874913  73.8171313
  17.5060113  60.2124913  74.0561313  26.2720113  56.9494913  81.5911313
  25.5720113  57.4674913  81.5351313  26.3100113  56.5694913  80.8071313
  26.1740113  56.9704913  81.4671313  21.5790113  69.0404913  75.1151313
  22.0200113  69.1204913  75.8631313  20.7740113  68.8244913  75.3731313
  21.5250113  69.0204913  75.2641313  29.8700113  57.4654913  84.3911313
  30.7250113  57.5644913  84.5361313  29.5010113  58.0184913  84.9561313
  29.9420113  57.5624913  84.4961313  20.8980113  63.6914913  88.7681313
  20.5020113  64.4654913  88.8431313  20.4920113  63.3184913  88.0921313
  20.7800113  63.7504913  88.6791313  30.1740113  62.7454913  82.8821313
  30.8400113  63.2864913  83.0421313  29.8290113  63.0564913  82.1431313
  30.2210113  62.8714913  82.7971313  18.9080113  68.1104913  75.7161313
  18.6640113  67.8034913  76.4961313  18.8750113  67.4074913  75.2001313
  18.8670113  67.9614913  75.7551313  21.7270113  66.3554913  74.4591313
  20.9090113  66.0874913  74.5991313  21.6990113  67.2074913  74.6441313
  21.6020113  66.4424913  74.5071313  21.3270113  56.6684913  86.2181313
  20.4630113  56.7524913  86.2981313  21.5470113  56.1544913  86.8871313
  21.2320113  56.6054913  86.3291313  33.3450113  55.3034913  87.5471313
  33.2930113  55.2594913  88.4171313  34.0320113  54.8004913  87.3571313
  33.4390113  55.2234913  87.6471313  25.4300113  57.4164913  84.5921313
  24.6930113  56.9624913  84.7051313  26.0010113  57.0144913  85.1151313
  25.4050113  57.2894913  84.6861313  28.1620113  68.2644913  86.3801313
  28.3680113  68.5654913  87.1721313  28.1010113  68.9864913  85.8951313
  28.1830113  68.4154913  86.4251313  23.7290113  54.9974913  74.4231313
  23.8070113  55.2444913  73.5901313  22.9860113  55.3744913  74.6811313
  23.6310113  55.0894913  74.3381313  32.9740113  66.9034913  85.8381313
  32.9420113  66.0414913  85.7031313  32.2810113  67.2054913  85.4041313
  32.8670113  66.8204913  85.7541313  31.0790113  70.1634913  84.6351313
  31.6060113  70.0804913  83.9441313  30.6880113  69.3854913  84.6891313
  31.0990113  70.0364913  84.5411313  18.5470113  56.7514913  86.8661313
  18.2040113  55.9844913  86.6321313  17.8520113  57.2754913  86.9301313
  18.3940113  56.7154913  86.8411313  27.5930113  55.6074913  83.8431313
  28.2630113  56.1514913  83.9701313  27.0900113  56.0314913  83.2701313
  27.6180113  55.7504913  83.7771313  26.9520113  61.4154913  81.3361313
  27.5030113  60.8084913  81.6361313  26.5270113  61.6784913  82.0511313
  26.9710113  61.3644913  81.4851313  17.2000113  60.0654913  80.8221313
  16.8320113  60.3674913  81.5531313  17.7340113  59.4364913  81.1061313
  17.2240113  60.0174913  80.9721313  16.8880113  68.4734913  88.3331313
  16.3140113  68.8894913  88.8421313  17.6210113  68.9384913  88.4281313
  16.9120113  68.6034913  88.4221313  28.9220113  63.2464913  77.8981313
  28.9900113  62.3964913  78.0791313  28.0990113  63.3324913  77.6201313
  28.8100113  63.1334913  77.8841313  22.8410113  64.1374913  76.8361313
  22.9410113  64.2764913  75.9811313  23.6590113  64.0774913  77.1321313
  22.9760113  64.1484913  76.7531313  28.0760113  68.4664913  76.6381313
  27.8250113  68.3384913  77.4641313  27.7590113  67.7714913  76.2171313
  27.9920113  68.3454913  76.6981313  32.7200113  60.1244913  84.7581313
  31.8870113  60.3744913  84.6861313  32.6640113  59.2844913  84.9871313
  32.5890113  60.0374913  84.7811313  24.9620113  66.6744913  76.0681313
  25.6790113  66.3274913  75.7121313  24.9280113  67.4744913  75.7201313
  25.0630113  66.7414913  75.9641313  26.3710113  55.3154913  60.3068903
  26.1260113  55.8034913  59.6268903  27.2340113  55.2424913  60.2068903
  26.4620113  55.3764913  60.1918903  26.1800113  62.2314913  64.9778903
  25.6560113  62.8274913  65.3408903  26.5770113  61.8634913  65.6618903
  26.1610113  62.2654913  65.1328903  16.0490113  66.3714913  60.4338903
  15.6080113  66.4894913  61.1768903  15.7660113  65.5964913  60.1488903
  15.9420113  66.2744913  60.5018903  32.3240113  69.6724913  57.9488903
  33.0250113  69.1534913  57.9448903  31.7370113  69.2274913  57.4798903
  32.3410113  69.5294913  57.8788903  15.7920113  60.1634913  56.9408903
  15.0140113  60.3254913  56.5808903  15.8310113  59.2924913  56.9628903
  15.6830113  60.0584913  56.8908903  18.9310113  65.4264913  55.6128903
  18.5390113  65.0554913  54.9268903  18.8510113  64.8284913  56.2418903
  18.8610113  65.2834913  55.6038903  28.8510113  63.2984913  61.6538903
  28.9310113  63.3024913  60.7848903  28.2670113  62.6664913  61.8028903
  28.7760113  63.2054913  61.5478903  18.5580113  67.0674913  59.5128903
  19.1660113  66.8974913  60.1158903  17.8070113  66.9274913  59.9338903
  18.5370113  67.0214913  59.6638903  22.8400113  56.4024913  59.4618903
  22.7700113  57.0794913  58.9158903  23.5810113  56.0144913  59.2128903
  22.9390113  56.4454913  59.3438903  17.4490113  70.1584913  55.5898903
  17.9160113  70.2424913  54.8578903  17.9040113  69.5804913  56.0588903
  17.5850113  70.0854913  55.5508903  15.9890113  69.1064913  66.6888903
  16.1180113  68.8264913  67.5048903  15.3790113  68.5654913  66.3798903
  15.9180113  68.9854913  66.7638903  22.5630113  66.6314913  71.7558903
  22.3270113  66.6284913  72.5958903  21.8150113  66.4834913  71.3318903
  22.4170113  66.6084913  71.8168903  17.4350113  63.6274913  60.8908903
  16.9730113  63.2354913  60.2638903  18.1350113  63.1144913  60.9828903
  17.4700113  63.4944913  60.8118903  21.9430113  59.2374913  66.2378903
  22.6210113  59.2554913  65.6888903  21.8980113  58.4014913  66.4828903
  22.0360113  59.1164913  66.1928903  19.4360113  61.7274913  60.9138903
  20.2530113  61.5404913  61.1568903  18.9590113  61.1134913  61.3098903
  19.4860113  61.6094913  61.0088903  23.6400113  67.7084913  63.5238903
  23.9880113  66.9094913  63.5538903  24.3050113  68.2124913  63.2688903
  23.7900113  67.6644913  63.4908903  23.6970113  67.1574913  59.7348903
  24.0280113  66.5134913  60.2208903  23.9370113  66.9464913  58.9238903
  23.7810113  67.0314913  59.6868903  25.6650113  61.2884913  71.0738903
  24.8170113  61.1894913  70.8958903  25.6940113  62.0334913  71.5278903
  25.5440113  61.3844913  71.1148903  20.0330113  56.8214913  60.1798903
  19.7370113  57.3224913  59.5298903  20.9000113  56.8994913  60.1228903
  20.1170113  56.9074913  60.0758903  30.2230113  54.2484913  70.1878903
  30.0650113  55.0174913  69.8058903  29.4510113  54.0284913  70.5318903
  30.0850113  54.3294913  70.1828903  23.0120113  55.9634913  62.4028903
  23.0850113  56.8234913  62.5318903  22.9740113  55.8884913  61.5348903
  23.0170113  56.0794913  62.2938903  27.6850113  58.8894913  54.7018903
  27.2350113  59.5704913  55.0088903  27.7990113  58.3854913  55.4048903
  27.6360113  58.9154913  54.8508903  15.8910113  61.3884913  63.9038903
  15.6350113  62.2194913  63.8288903  15.2270113  61.0054913  64.3208903
  15.7550113  61.4544913  63.9548903  21.6410113  68.9424913  59.2838903
  21.0620113  68.6674913  59.8758903  22.2650113  68.3334913  59.3088903
  21.6480113  68.8124913  59.3748903  18.9200113  56.2054913  64.3948903
  18.3990113  55.5774913  64.0868903  19.5110113  55.7684913  64.8658903
  18.9310113  56.0474913  64.4188903  22.2260113  58.3384913  73.6928903
  22.3430113  57.8844913  72.9568903  22.5140113  59.1364913  73.4898903
  22.2860113  58.3894913  73.5538903  17.3460113  69.7684913  59.7348903
  18.0020113  69.1934913  59.7498903  17.7350113  70.5174913  59.5138903
  17.5010113  69.7934913  59.7048903  33.0790113  58.8624913  60.9968903
  32.7330113  59.5404913  61.4228903  32.4430113  58.2644913  61.0128903
  32.9340113  58.8744913  61.0618903  17.9590113  57.9354913  72.6768903
  17.1810113  57.5454913  72.6048903  18.4500113  57.5234913  72.0858903
  17.9160113  57.8164913  72.5788903  18.1640113  68.2554913  63.2348903
  18.5870113  67.8994913  62.5608903  18.4880113  67.8334913  63.9268903
  18.2740113  68.1404913  63.2378903  24.6080113  55.5784913  71.8448903
  24.7860113  54.7694913  71.5698903  24.4650113  56.0194913  71.1058903
  24.6130113  55.5244913  71.6948903  25.2020113  60.5044913  60.6178903
  25.4890113  60.2724913  59.8278903  25.9340113  60.5834913  61.0868903
  25.3520113  60.4814913  60.5708903  25.9240113  60.8434913  55.7388903
  26.2050113  61.6314913  55.9878903  25.1480113  61.0084913  55.3758903
  25.8510113  60.9844913  55.7218903  32.7540113  57.1854913  66.3658903
  33.5110113  57.2574913  65.9378903  32.8170113  56.4124913  66.7648903
  32.8750113  57.0824913  66.3608903  15.3070113  58.4834913  70.2628903
  15.3030113  59.0704913  70.9088903  15.9010113  58.7954913  69.7058903
  15.3940113  58.6164913  70.2758903  27.6450113  68.8174913  70.8048903
  27.6110113  69.1994913  71.5888903  28.4990113  68.7754913  70.6338903
  27.7660113  68.8674913  70.8958903  24.7830113  69.0144913  55.5548903
  24.6020113  69.5594913  56.2118903  25.5490113  69.3044913  55.2538903
  24.8690113  69.1384913  55.6078903  28.2900113  56.9104913  56.6088903
  28.8300113  56.2284913  56.6848903  28.3520113  57.3084913  57.3828903
  28.3790113  56.8684913  56.7348903  16.2440113  58.0784913  59.1778903
  16.1300113  57.2144913  59.2088903  15.7690113  58.3724913  59.8478903
  16.1570113  57.9944913  59.2808903  18.3860113  70.4884913  67.3928903
  17.6880113  69.9804913  67.5188903  18.6460113  70.2834913  66.5848903
  18.3210113  70.3834913  67.2918903  25.5480113  59.2864913  57.9228903
  25.0400113  58.6244913  57.6688903  25.6000113  59.7904913  57.2128903
  25.4810113  59.2634913  57.7808903  25.5480113  56.2274913  57.8138903
  25.0930113  55.8254913  57.1878903  26.3210113  56.3824913  57.4388903
  25.5950113  56.1914913  57.6658903  24.1460113  58.5944913  62.3358903
  24.2200113  59.1624913  61.6778903  24.2670113  59.0864913  63.0458903
  24.1740113  58.7514913  62.3438903  29.3710113  68.4294913  60.7478903
  30.0720113  67.9474913  60.9368903  28.7110113  67.8604913  60.7928903
  29.3770113  68.2744913  60.7818903  19.7470113  69.3394913  69.9598903
  20.5880113  69.4024913  69.7378903  19.7100113  69.7364913  70.7358903
  19.8660113  69.4074913  70.0418903  18.7540113  54.4174913  60.6838903
  19.2900113  55.1054913  60.6738903  18.7570113  54.1434913  59.8558903
  18.8330113  54.4784913  60.5598903  21.7100113  64.8504913  64.7088903
  21.8820113  64.6404913  65.5378903  21.0550113  64.3164913  64.4928903
  21.6390113  64.7404913  64.7998903  27.9380113  58.7644913  68.2238903
  27.8430113  59.0834913  69.0298903  27.3450113  58.1254913  68.1858903
  27.8360113  58.7164913  68.3378903  22.4600113  64.7884913  67.2988903
  22.5130113  65.6354913  67.5008903  22.1750113  64.4184913  68.0358903
  22.4260113  64.8584913  67.4368903  28.6370113  65.4834913  66.4288903
  28.1230113  65.0714913  66.9998903  28.5110113  66.3274913  66.6098903
  28.5430113  65.5474913  66.5398903  29.1940113  54.7084913  61.0598903
  29.2430113  54.3904913  61.8708903  29.5170113  54.0644913  60.5668903
  29.2490113  54.5664913  61.1068903  15.2810113  69.1594913  73.5098903
  16.0370113  69.5084913  73.7678903  15.4580113  68.3064913  73.4528903
  15.4190113  69.0844913  73.5398903  31.6580113  58.9444913  69.3678903
  32.4300113  58.7194913  69.7048903  31.1830113  59.1614913  70.0678903
  31.7020113  58.9434913  69.5208903  19.2020113  58.2274913  62.3378903
  19.4740113  57.7974913  61.6298903  19.0260113  57.5914913  62.9088903
  19.2160113  58.0704913  62.3178903  31.8900113  65.9224913  56.5558903
  32.0090113  65.6354913  57.3708903  32.6970113  65.9434913  56.2258903
  32.0260113  65.8834913  56.6278903  19.0260113  65.6544913  61.8868903
  19.8770113  65.5744913  61.7138903  18.6690113  64.9724913  61.4748903
  19.0990113  65.5414913  61.7998903  17.3430113  59.3294913  65.4198903
  18.1860113  59.5494913  65.3768903  16.9540113  59.9024913  64.8888903
  17.4100113  59.4464913  65.3348903  29.7850113  62.4594913  56.1408903
  29.5650113  63.1904913  55.7188903  29.3370113  62.5104913  56.8878903
  29.6860113  62.5744913  56.1888903  21.3940113  65.6614913  60.1218903
  22.1070113  66.1564913  60.2118903  21.6160113  65.0944913  59.4958903
  21.5320113  65.6504913  60.0428903  33.9720113  57.3204913  55.5938903
  33.3100113  56.7524913  55.6168903  33.7790113  57.8324913  54.9138903
  33.8460113  57.3124913  55.4968903  15.5500113  67.3044913  63.4418903
  14.8830113  67.7924913  63.7178903  16.2300113  67.8494913  63.4708903
  15.5520113  67.4564913  63.4868903  23.1970113  61.0144913  73.5378903
  22.7130113  61.5914913  73.9798903  23.1690113  61.3094913  72.7168903
  23.1210113  61.1434913  73.4818903  34.2950113  61.6984913  68.1498903
  34.5100113  60.8984913  67.8738903  33.4450113  61.7584913  67.9608903
  34.2010113  61.5894913  68.0808903  15.6160113  63.9884913  58.5448903
  15.4310113  63.1494913  58.6968903  16.2750113  63.9524913  57.9748903
  15.6860113  63.8594913  58.4828903  31.9740113  56.8784913  57.8728903
  32.7200113  56.4714913  58.0718903  32.2370113  57.5934913  57.4478903
  32.1230113  56.9244913  57.8398903  25.9170113  69.3644913  62.4488903
  25.3940113  69.9984913  62.1558903  26.2270113  69.0004913  61.7198903
  25.8850113  69.4044913  62.2978903  15.7880113  68.1524913  58.1198903
  16.3400113  68.7214913  58.4838903  15.5560113  67.6374913  58.7848903
  15.8350113  68.1604913  58.2718903  19.9920113  67.1524913  65.2088903
  20.4590113  67.4414913  65.8868903  20.5640113  66.6744913  64.7548903
  20.1460113  67.1244913  65.2418903  28.4280113  59.1664913  62.9458903
  28.7720113  59.3184913  63.7328903  27.9750113  58.4284913  63.0588903
  28.4120113  59.0794913  63.0788903  15.6180113  66.6014913  55.7478903
  16.3740113  66.1694913  55.8058903  15.6330113  67.1334913  56.4388903
  15.7320113  66.6164913  55.8588903  16.5580113  64.8224913  63.7528903
  16.9890113  64.6934913  63.0058903  16.3530113  65.6704913  63.7268903
  16.5910113  64.9284913  63.6388903  22.9040113  58.3864913  57.4028903
  22.9020113  58.2694913  56.5378903  22.7230113  59.2344913  57.4948903
  22.8770113  58.4944913  57.2888903  20.6420113  68.3384913  62.0348903
  20.7680113  69.1814913  62.2218903  21.3100113  67.9394913  62.4308903
  20.7600113  68.4044913  62.1208903  18.7720113  61.8214913  71.8968903
  18.2360113  61.3154913  72.3648903  18.7920113  61.4314913  71.1168903
  18.6950113  61.6884913  71.8508903  19.2570113  61.2184913  57.0368903
  19.1290113  60.7704913  57.7748903  18.6750113  60.8764913  56.4848903
  19.1520113  61.1014913  57.0648903  19.4240113  63.0484913  63.6358903
  18.6430113  62.9894913  63.2528903  19.4960113  62.2964913  64.0728903
  19.3190113  62.9294913  63.6438903  19.8540113  62.7854913  67.1038903
  19.8790113  62.1104913  66.5528903  19.2080113  63.2814913  66.7918903
  19.7630113  62.7584913  66.9768903  29.7490113  60.4984913  65.4998903
  29.0870113  60.8264913  65.9628903  29.9360113  61.1324913  64.9308903
  29.6790113  60.6404913  65.4838903  26.3940113  56.4044913  68.9288903
  26.5430113  55.5794913  68.6858903  26.7730113  56.4594913  69.7128903
  26.4720113  56.2904913  69.0088903  27.9420113  58.4674913  59.0108903
  28.4320113  59.1844913  58.9338903  27.1520113  58.7284913  58.7478903
  27.8980113  58.6114913  58.9608903  17.6530113  64.1404913  72.6628903
  17.6160113  64.6414913  71.9488903  17.9840113  63.3884913  72.3678903
  17.6960113  64.1024913  72.5138903  29.2560113  66.3454913  70.9208903
  29.7400113  67.0634913  71.0188903  29.6500113  65.9184913  70.2698903
  29.3860113  66.3884913  70.8388903  23.5520113  69.1904913  72.0978903
  23.9060113  69.0124913  72.8748903  23.1160113  68.4614913  71.8988903
  23.5400113  69.0564913  72.1838903  24.5240113  59.9374913  64.7358903
  25.0040113  60.6364913  64.9438903  24.8970113  59.2904913  65.1868903
  24.6500113  59.9454913  64.8328903  26.7130113  63.1064913  57.0098903
  26.7050113  63.8284913  56.5198903  26.0740113  63.2414913  57.5868903
  26.6180113  63.2334913  57.0228903  31.6850113  66.9764913  60.9908903
  32.0410113  66.6264913  61.7058903  31.6770113  66.3154913  60.4208903
  31.7370113  66.8264913  61.0118903  27.7300113  70.0424913  64.8348903
  27.1270113  69.7464913  64.2778903  28.2750113  70.4944913  64.3258903
  27.7210113  70.0654913  64.6768903  27.7430113  66.8934913  64.2348903
  26.9460113  67.1174913  64.5088903  28.0010113  66.2994913  64.8198903
  27.6630113  66.8384913  64.3618903  21.3060113  55.4484913  56.6708903
  21.4030113  55.3414913  57.5318903  20.5980113  55.9544913  56.6058903
  21.2160113  55.5074913  56.7888903  31.0030113  64.8914913  69.0808903
  31.0580113  65.0164913  68.2188903  31.7560113  65.2114913  69.3828903
  31.1220113  64.9564913  68.9978903  32.0350113  55.1894913  72.0678903
  31.3980113  54.7894913  71.6258903  32.0610113  54.7584913  72.8258903
  31.9450113  55.0674913  72.1138903  18.4280113  63.7554913  57.9138903
  18.7520113  62.9764913  57.6918903  19.0740113  64.1234913  58.3688903
  18.5710113  63.6944913  57.9478903  26.7340113  64.6974913  68.6808903
  26.5790113  65.3074913  69.2848903  27.2680113  64.1394913  69.0868903
  26.7900113  64.7054913  68.8298903  15.4250113  55.4164913  58.8818903
  15.5540113  54.7084913  58.3898903  15.0580113  55.0984913  59.6068903
  15.3900113  55.2644913  58.9168903  25.1180113  63.0974913  59.3388903
  25.1770113  63.7474913  59.9178903  24.9290113  62.4014913  59.8298903
  25.0990113  63.0904913  59.4968903  30.3440113  67.4264913  65.2078903
  29.8650113  67.7244913  64.5418903  29.9880113  66.6504913  65.3858903
  30.2210113  67.3554913  65.1358903  19.6140113  57.6144913  55.8508903
  19.1030113  57.6674913  55.1448903  20.3980113  57.8544913  55.5548903
  19.6540113  57.6574913  55.7028903  24.3410113  65.1444913  63.7698903
  23.4940113  64.9504913  63.8508903  24.6650113  64.9794913  64.5628903
  24.2630113  65.0914913  63.8988903  18.1890113  64.8374913  66.0858903
  18.9110113  65.3254913  66.0488903  17.9190113  64.8074913  65.2568903
  18.2560113  64.9054913  65.9578903  21.4190113  60.0084913  62.8208903
  22.2650113  59.8184913  62.9188903  21.0490113  59.2314913  62.6828903
  21.4890113  59.8654913  62.8148903  16.2400113  61.3464913  59.4758903
  16.7290113  61.0544913  60.1368903  16.3690113  60.7534913  58.8488903
  16.3310113  61.2154913  59.4808903  31.2750113  64.3684913  66.3268903
  31.2680113  63.5924913  66.7248903  30.4340113  64.6024913  66.3198903
  31.1500113  64.2884913  66.3848903  20.7650113  62.7804913  54.9618903
  20.1550113  62.3754913  55.4358903  20.3790113  62.8984913  54.1888903
  20.6180113  62.7374913  54.9178903  17.5840113  65.8894913  70.3638903
  17.1630113  65.3714913  69.8028903  17.2320113  66.6754913  70.2208903
  17.4700113  65.9294913  70.2598903  32.5310113  64.4394913  63.7638903
  32.2450113  64.8404913  64.4838903  33.3910113  64.3774913  63.8908903
  32.6160113  64.4894913  63.8888903  22.2200113  61.2414913  57.6718903
  22.4920113  62.0674913  57.7388903  21.3570113  61.3164913  57.5758903
  22.1330113  61.3744913  57.6668903  30.1930113  58.3634913  72.3038903
  29.6680113  58.8224913  72.8278903  29.8320113  57.5684913  72.2978903
  30.0620113  58.3134913  72.3798903  15.7000113  57.2114913  64.2078903
  15.7440113  57.5554913  63.4068903  16.4550113  57.4484913  64.5748903
  15.8180113  57.2974913  64.1438903  33.6620113  70.0724913  64.2928903
  33.9520113  70.3294913  63.5118903  34.3570113  70.1684913  64.8118903
  33.8080113  70.1244913  64.2538903  28.6850113  61.9324913  72.3798903
  28.7580113  62.0364913  73.2428903  28.0510113  62.4904913  72.1588903
  28.6020113  62.0304913  72.4748903  30.9530113  62.2514913  70.7448903
  31.2720113  63.0374913  70.9478903  30.5830113  61.9814913  71.4878903
  30.9460113  62.3274913  70.8848903  30.2670113  68.6754913  56.2748903
  30.6010113  67.8694913  56.3098903  29.5120113  68.6034913  56.7048903
  30.2050113  68.5454913  56.3438903  30.7490113  60.5094913  61.9338903
  30.0040113  60.1864913  62.2518903  30.7510113  61.3354913  62.2138903
  30.6390113  60.5834913  62.0218903  33.6510113  62.7934913  73.4798903
  33.5990113  62.4524913  72.6788903  34.3880113  63.2604913  73.4578903
  33.7520113  62.8124913  73.3578903  33.1890113  66.4694913  69.6858903
  33.8170113  65.9204913  69.4298903  33.1280113  67.0344913  69.0238903
  33.2730113  66.4724913  69.5498903  27.6410113  66.5504913  55.6778903
  28.3250113  66.0364913  55.5088903  27.2240113  66.5964913  54.9128903
  27.6800113  66.4814913  55.5398903  22.3230113  67.7004913  66.9818903
  22.0250113  68.2924913  67.5488903  22.3780113  68.1424913  66.2328903
  22.2870113  67.8534913  66.9548903  20.3020113  66.6504913  70.3798903
  19.4960113  66.3604913  70.5468903  20.2130113  67.5184913  70.3858903
  20.1700113  66.7354913  70.4048903  29.6610113  56.8394913  69.3948903
  30.4050113  57.2914913  69.3318903  29.0950113  57.3094913  68.9258903
  29.6880113  56.9764913  69.3168903  24.8390113  64.1234913  66.4728903
  25.3150113  64.4974913  67.1008903  24.0160113  64.2574913  66.7318903
  24.7880113  64.1984913  66.6038903  21.5490113  59.7264913  69.2138903
  21.7100113  58.9824913  69.6408903  21.5040113  59.4774913  68.3788903
  21.5660113  59.5794913  69.1538903  30.9460113  54.8194913  67.0648903
  30.6660113  55.6444913  67.0208903  31.6620113  54.8724913  67.5608903
  31.0110113  54.9494913  67.1318903  23.3010113  55.5344913  69.0938903
  24.0060113  55.8544913  68.6918903  23.5420113  54.7274913  69.3208903
  23.4400113  55.4624913  69.0678903  22.2860113  69.7444913  65.0898903
  21.6620113  70.3264913  64.9078903  22.5340113  69.4584913  64.3038903
  22.2300113  69.7884913  64.9468903  26.5950113  66.3784913  72.0788903
  27.3520113  66.6644913  71.7528903  26.0480113  66.4304913  71.4008903
  26.6260113  66.4284913  71.9298903  30.5040113  68.9284913  70.5828903
  30.8500113  69.1984913  71.3368903  30.7980113  69.5104913  70.0028903
  30.5990113  69.0544913  70.6088903  32.3670113  61.0744913  55.9218903
  32.7450113  61.7514913  55.5218903  31.5250113  61.2984913  55.9528903
  32.2980113  61.2074913  55.8668903  23.8800113  64.5204913  55.0048903
  23.0750113  64.3434913  54.7198903  23.8470113  65.3714913  55.1968903
  23.7560113  64.6194913  54.9918903  19.8100113  60.5874913  65.1548903
  20.2500113  60.4844913  64.4088903  20.3550113  60.2744913  65.7598903
  19.9550113  60.5264913  65.1338903  27.8260113  59.6894913  70.7468903
  27.1780113  60.1594913  71.0948903  28.3910113  59.6004913  71.4058903
  27.8140113  59.7454913  70.8958903  27.5140113  61.2264913  67.0448903
  27.8160113  61.6464913  67.7478903  27.5500113  60.3864913  67.2768903
  27.5640113  61.1644913  67.1828903  30.0620113  60.6734913  59.2968903
  30.2690113  60.4724913  60.1208903  30.8180113  60.9414913  58.9548903
  30.2040113  60.6834913  59.3678903  23.3570113  55.5724913  65.2018903
  22.5310113  55.4234913  65.4388903  23.3170113  55.6074913  64.3308903
  23.2290113  55.5554913  65.1078903  31.0840113  56.7564913  60.7708903
  30.3700113  56.2854913  60.9418903  30.9220113  57.0974913  59.9848903
  30.9550113  56.7374913  60.6798903  31.5270113  64.7004913  59.1508903
  32.0030113  63.9714913  59.1028903  30.7060113  64.4144913  59.0748903
  31.4760113  64.5504913  59.1318903  24.9980113  66.6124913  69.9898903
  24.2030113  66.5484913  70.3408903  25.0690113  67.4594913  69.7948903
  24.8910113  66.7274913  70.0128903  15.9220113  55.9704913  71.2368903
  15.7820113  56.7654913  70.9058903  15.1360113  55.7274913  71.5258903
  15.7850113  56.0524913  71.2308903  18.9860113  58.7144913  58.4618903
  19.1120113  58.3854913  57.6638903  18.1740113  58.4654913  58.6608903
  18.8850113  58.6294913  58.3738903  27.7430113  65.8674913  61.5058903
  27.8190113  66.2084913  62.3048903  27.9120113  65.0204913  61.6268903
  27.7790113  65.7924913  61.6418903  25.2650113  65.1414913  61.0708903
  24.9670113  64.8264913  61.8278903  25.9600113  65.6144913  61.3058903
  25.3240113  65.1644913  61.2178903  25.4870113  69.2594913  69.0978903
  26.1740113  69.1454913  69.6228903  25.6210113  70.0504913  68.7538903
  25.6080113  69.3594913  69.1248903  33.6630113  61.8684913  70.9088903
  32.8080113  61.7464913  71.0348903  33.8160113  61.4734913  70.1458903
  33.5590113  61.7914913  70.8148903  28.1760113  62.5334913  69.4848903
  27.9210113  61.8144913  69.9068903  28.9970113  62.6494913  69.7548903
  28.2600113  62.4444913  69.5868903  26.1100113  63.7234913  72.6718903
  26.4330113  64.4094913  72.2398903  25.4060113  64.0464913  73.0738903
  26.0530113  63.8724913  72.6668903  25.8950113  67.1874913  66.5308903
  25.2010113  67.5894913  66.8738903  26.5720113  67.6204913  66.8698903
  25.8920113  67.3104913  66.6318903  31.2720113  69.7804913  73.1108903
  32.0480113  69.3904913  73.1938903  30.8030113  69.4444913  73.7658903
  31.3170113  69.6734913  73.2198903  18.9630113  60.7254913  68.8778903
  19.3380113  61.3444913  68.3908903  19.6370113  60.2514913  69.1628903
  19.1180113  60.7474913  68.8478903  16.7380113  59.1734913  68.1528903
  16.8150113  59.0044913  67.2998903  17.4840113  59.5794913  68.3498903
  16.8590113  59.2084913  68.0558903  32.2970113  61.8134913  58.5928903
  32.4000113  61.7554913  57.7288903  33.0380113  61.4814913  58.9108903
  32.4220113  61.7564913  58.5118903  19.2920113  56.5834913  70.5638903
  19.2110113  55.7394913  70.7698903  18.9780113  56.6274913  69.7508903
  19.2340113  56.4654913  70.4738903  26.2170113  68.7784913  59.6998903
  26.0120113  69.6114913  59.5408903  25.4420113  68.3964913  59.8218903
  26.0720113  68.8454913  59.6948903  31.3990113  61.9594913  67.9488903
  31.3970113  61.0964913  68.0728903  31.4660113  62.2834913  68.7558903
  31.4090113  61.8794913  68.0858903  16.1350113  64.3994913  68.3768903
  16.4550113  64.6184913  67.5958903  16.0350113  63.5344913  68.3218903
  16.1670113  64.3044913  68.2538903  17.5910113  60.3354913  54.9948903
  16.9190113  60.3494913  55.5508903  17.6860113  59.4874913  54.8108903
  17.5060113  60.2124913  55.0498903  27.2780113  56.7594913  71.7308903
  27.3700113  57.4714913  72.2248903  26.6410113  56.3144913  72.1278903
  27.1970113  56.7984913  71.8628903  26.2720113  56.9494913  62.5848903
  25.5720113  57.4674913  62.5288903  26.3100113  56.5694913  61.8008903
  26.1740113  56.9704913  62.4608903  21.5790113  69.0404913  56.1088903
  22.0200113  69.1204913  56.8568903  20.7740113  68.8244913  56.3668903
  21.5250113  69.0204913  56.2578903  29.8700113  57.4654913  65.3848903
  30.7250113  57.5644913  65.5298903  29.5010113  58.0184913  65.9498903
  29.9420113  57.5624913  65.4898903  20.8980113  63.6914913  69.7618903
  20.5020113  64.4654913  69.8368903  20.4920113  63.3184913  69.0858903
  20.7800113  63.7504913  69.6728903  30.1740113  62.7454913  63.8758903
  30.8400113  63.2864913  64.0358903  29.8290113  63.0564913  63.1368903
  30.2210113  62.8714913  63.7908903  18.9080113  68.1104913  56.7098903
  18.6640113  67.8034913  57.4898903  18.8750113  67.4074913  56.1938903
  18.8670113  67.9614913  56.7488903  21.7270113  66.3554913  55.4528903
  20.9090113  66.0874913  55.5928903  21.6990113  67.2074913  55.6378903
  21.6020113  66.4424913  55.5008903  21.3270113  56.6684913  67.2118903
  20.4630113  56.7524913  67.2918903  21.5470113  56.1544913  67.8808903
  21.2320113  56.6054913  67.3228903  33.3450113  55.3034913  68.5408903
  33.2930113  55.2594913  69.4108903  34.0320113  54.8004913  68.3508903
  33.4390113  55.2234913  68.6408903  25.4300113  57.4164913  65.5858903
  24.6930113  56.9624913  65.6988903  26.0010113  57.0144913  66.1088903
  25.4050113  57.2894913  65.6798903  28.1620113  68.2644913  67.3738903
  28.3680113  68.5654913  68.1658903  28.1010113  68.9864913  66.8888903
  28.1830113  68.4154913  67.4188903  22.9330113  61.7454913  70.7898903
  22.6110113  61.1694913  70.2198903  22.5740113  62.5004913  70.5438903
  22.8330113  61.7714913  70.6698903  23.7290113  54.9974913  55.4168903
  23.8070113  55.2444913  54.5838903  22.9860113  55.3744913  55.6748903
  23.6310113  55.0894913  55.3318903  32.9740113  66.9034913  66.8318903
  32.9420113  66.0414913  66.6968903  32.2810113  67.2054913  66.3978903
  32.8670113  66.8204913  66.7478903  31.0790113  70.1634913  65.6288903
  31.6060113  70.0804913  64.9378903  30.6880113  69.3854913  65.6828903
  31.0990113  70.0364913  65.5348903  18.5470113  56.7514913  67.8598903
  18.2040113  55.9844913  67.6258903  17.8520113  57.2754913  67.9238903
  18.3940113  56.7154913  67.8348903  27.5930113  55.6074913  64.8368903
  28.2630113  56.1514913  64.9638903  27.0900113  56.0314913  64.2638903
  27.6180113  55.7504913  64.7708903  26.9520113  61.4154913  62.3298903
  27.5030113  60.8084913  62.6298903  26.5270113  61.6784913  63.0448903
  26.9710113  61.3644913  62.4788903  17.2000113  60.0654913  61.8158903
  16.8320113  60.3674913  62.5468903  17.7340113  59.4364913  62.0998903
  17.2240113  60.0174913  61.9658903  16.8880113  68.4734913  69.3268903
  16.3140113  68.8894913  69.8358903  17.6210113  68.9384913  69.4218903
  16.9120113  68.6034913  69.4158903  28.9220113  63.2464913  58.8918903
  28.9900113  62.3964913  59.0728903  28.0990113  63.3324913  58.6138903
  28.8100113  63.1334913  58.8778903  22.8410113  64.1374913  57.8298903
  22.9410113  64.2764913  56.9748903  23.6590113  64.0774913  58.1258903
  22.9760113  64.1484913  57.7468903  32.1960113  64.6194913  72.0428903
  32.8300113  64.4494913  72.6168903  32.6130113  65.0224913  71.3908903
  32.3510113  64.6544913  72.0318903  28.0760113  68.4664913  57.6318903
  27.8250113  68.3384913  58.4578903  27.7590113  67.7714913  57.2108903
  27.9920113  68.3454913  57.6918903  32.8210113  59.1834913  72.7808903
  32.6250113  59.8274913  73.3358903  32.0990113  58.6934913  72.7728903
  32.6860113  59.2064913  72.8618903  32.7200113  60.1244913  65.7518903
  31.8870113  60.3744913  65.6798903  32.6640113  59.2844913  65.9808903
  32.5890113  60.0374913  65.7748903  21.9800113  57.1124913  70.9458903
  22.2140113  56.5364913  70.3328903  21.1380113  56.9314913  71.0868903
  21.8900113  57.0004913  70.8758903  29.6070113  64.7304913  73.3978903
  30.4780113  64.6944913  73.3618903  29.3880113  65.1504913  72.6658903
  29.7040113  64.7864913  73.2848903  24.9620113  66.6744913  57.0618903
  25.6790113  66.3274913  56.7058903  24.9280113  67.4744913  56.7138903
  25.0630113  66.7414913  56.9578903  26.3710113  55.3154913  41.3006493
  26.1260113  55.8034913  40.6206493  27.2340113  55.2424913  41.2006493
  26.4620113  55.3764913  41.1856493  26.1800113  62.2314913  45.9716493
  25.6560113  62.8274913  46.3346493  26.5770113  61.8634913  46.6556493
  26.1610113  62.2654913  46.1266493  16.0490113  66.3714913  41.4276493
  15.6080113  66.4894913  42.1706493  15.7660113  65.5964913  41.1426493
  15.9420113  66.2744913  41.4956493  32.3240113  69.6724913  38.9426493
  33.0250113  69.1534913  38.9386493  31.7370113  69.2274913  38.4736493
  32.3410113  69.5294913  38.8726493  15.7920113  60.1634913  37.9346493
  15.0140113  60.3254913  37.5746493  15.8310113  59.2924913  37.9566493
  15.6830113  60.0584913  37.8846493  18.9310113  65.4264913  36.6066493
  18.5390113  65.0554913  35.9206493  18.8510113  64.8284913  37.2356493
  18.8610113  65.2834913  36.5976493  28.8510113  63.2984913  42.6476493
  28.9310113  63.3024913  41.7786493  28.2670113  62.6664913  42.7966493
  28.7760113  63.2054913  42.5416493  18.5580113  67.0674913  40.5066493
  19.1660113  66.8974913  41.1096493  17.8070113  66.9274913  40.9276493
  18.5370113  67.0214913  40.6576493  22.8400113  56.4024913  40.4556493
  22.7700113  57.0794913  39.9096493  23.5810113  56.0144913  40.2066493
  22.9390113  56.4454913  40.3376493  17.4490113  70.1584913  36.5836493
  17.9160113  70.2424913  35.8516493  17.9040113  69.5804913  37.0526493
  17.5850113  70.0854913  36.5446493  15.9890113  69.1064913  47.6826493
  16.1180113  68.8264913  48.4986493  15.3790113  68.5654913  47.3736493
  15.9180113  68.9854913  47.7576493  22.5630113  66.6314913  52.7496493
  22.3270113  66.6284913  53.5896493  21.8150113  66.4834913  52.3256493
  22.4170113  66.6084913  52.8106493  17.4350113  63.6274913  41.8846493
  16.9730113  63.2354913  41.2576493  18.1350113  63.1144913  41.9766493
  17.4700113  63.4944913  41.8056493  21.9430113  59.2374913  47.2316493
  22.6210113  59.2554913  46.6826493  21.8980113  58.4014913  47.4766493
  22.0360113  59.1164913  47.1866493  19.4360113  61.7274913  41.9076493
  20.2530113  61.5404913  42.1506493  18.9590113  61.1134913  42.3036493
  19.4860113  61.6094913  42.0026493  23.6400113  67.7084913  44.5176493
  23.9880113  66.9094913  44.5476493  24.3050113  68.2124913  44.2626493
  23.7900113  67.6644913  44.4846493  23.6970113  67.1574913  40.7286493
  24.0280113  66.5134913  41.2146493  23.9370113  66.9464913  39.9176493
  23.7810113  67.0314913  40.6806493  25.6650113  61.2884913  52.0676493
  24.8170113  61.1894913  51.8896493  25.6940113  62.0334913  52.5216493
  25.5440113  61.3844913  52.1086493  20.0330113  56.8214913  41.1736493
  19.7370113  57.3224913  40.5236493  20.9000113  56.8994913  41.1166493
  20.1170113  56.9074913  41.0696493  30.2230113  54.2484913  51.1816493
  30.0650113  55.0174913  50.7996493  29.4510113  54.0284913  51.5256493
  30.0850113  54.3294913  51.1766493  23.0120113  55.9634913  43.3966493
  23.0850113  56.8234913  43.5256493  22.9740113  55.8884913  42.5286493
  23.0170113  56.0794913  43.2876493  27.6850113  58.8894913  35.6956493
  27.2350113  59.5704913  36.0026493  27.7990113  58.3854913  36.3986493
  27.6360113  58.9154913  35.8446493  15.8910113  61.3884913  44.8976493
  15.6350113  62.2194913  44.8226493  15.2270113  61.0054913  45.3146493
  15.7550113  61.4544913  44.9486493  21.6410113  68.9424913  40.2776493
  21.0620113  68.6674913  40.8696493  22.2650113  68.3334913  40.3026493
  21.6480113  68.8124913  40.3686493  18.9200113  56.2054913  45.3886493
  18.3990113  55.5774913  45.0806493  19.5110113  55.7684913  45.8596493
  18.9310113  56.0474913  45.4126493  22.2260113  58.3384913  54.6866493
  22.3430113  57.8844913  53.9506493  22.5140113  59.1364913  54.4836493
  22.2860113  58.3894913  54.5476493  17.3460113  69.7684913  40.7286493
  18.0020113  69.1934913  40.7436493  17.7350113  70.5174913  40.5076493
  17.5010113  69.7934913  40.6986493  33.0790113  58.8624913  41.9906493
  32.7330113  59.5404913  42.4166493  32.4430113  58.2644913  42.0066493
  32.9340113  58.8744913  42.0556493  17.9590113  57.9354913  53.6706493
  17.1810113  57.5454913  53.5986493  18.4500113  57.5234913  53.0796493
  17.9160113  57.8164913  53.5726493  18.1640113  68.2554913  44.2286493
  18.5870113  67.8994913  43.5546493  18.4880113  67.8334913  44.9206493
  18.2740113  68.1404913  44.2316493  24.6080113  55.5784913  52.8386493
  24.7860113  54.7694913  52.5636493  24.4650113  56.0194913  52.0996493
  24.6130113  55.5244913  52.6886493  25.2020113  60.5044913  41.6116493
  25.4890113  60.2724913  40.8216493  25.9340113  60.5834913  42.0806493
  25.3520113  60.4814913  41.5646493  25.9240113  60.8434913  36.7326493
  26.2050113  61.6314913  36.9816493  25.1480113  61.0084913  36.3696493
  25.8510113  60.9844913  36.7156493  32.7540113  57.1854913  47.3596493
  33.5110113  57.2574913  46.9316493  32.8170113  56.4124913  47.7586493
  32.8750113  57.0824913  47.3546493  15.3070113  58.4834913  51.2566493
  15.3030113  59.0704913  51.9026493  15.9010113  58.7954913  50.6996493
  15.3940113  58.6164913  51.2696493  27.6450113  68.8174913  51.7986493
  27.6110113  69.1994913  52.5826493  28.4990113  68.7754913  51.6276493
  27.7660113  68.8674913  51.8896493  24.7830113  69.0144913  36.5486493
  24.6020113  69.5594913  37.2056493  25.5490113  69.3044913  36.2476493
  24.8690113  69.1384913  36.6016493  28.2900113  56.9104913  37.6026493
  28.8300113  56.2284913  37.6786493  28.3520113  57.3084913  38.3766493
  28.3790113  56.8684913  37.7286493  16.2440113  58.0784913  40.1716493
  16.1300113  57.2144913  40.2026493  15.7690113  58.3724913  40.8416493
  16.1570113  57.9944913  40.2746493  18.3860113  70.4884913  48.3866493
  17.6880113  69.9804913  48.5126493  18.6460113  70.2834913  47.5786493
  18.3210113  70.3834913  48.2856493  25.5480113  59.2864913  38.9166493
  25.0400113  58.6244913  38.6626493  25.6000113  59.7904913  38.2066493
  25.4810113  59.2634913  38.7746493  25.5480113  56.2274913  38.8076493
  25.0930113  55.8254913  38.1816493  26.3210113  56.3824913  38.4326493
  25.5950113  56.1914913  38.6596493  24.1460113  58.5944913  43.3296493
  24.2200113  59.1624913  42.6716493  24.2670113  59.0864913  44.0396493
  24.1740113  58.7514913  43.3376493  29.3710113  68.4294913  41.7416493
  30.0720113  67.9474913  41.9306493  28.7110113  67.8604913  41.7866493
  29.3770113  68.2744913  41.7756493  19.7470113  69.3394913  50.9536493
  20.5880113  69.4024913  50.7316493  19.7100113  69.7364913  51.7296493
  19.8660113  69.4074913  51.0356493  18.7540113  54.4174913  41.6776493
  19.2900113  55.1054913  41.6676493  18.7570113  54.1434913  40.8496493
  18.8330113  54.4784913  41.5536493  21.7100113  64.8504913  45.7026493
  21.8820113  64.6404913  46.5316493  21.0550113  64.3164913  45.4866493
  21.6390113  64.7404913  45.7936493  27.9380113  58.7644913  49.2176493
  27.8430113  59.0834913  50.0236493  27.3450113  58.1254913  49.1796493
  27.8360113  58.7164913  49.3316493  22.4600113  64.7884913  48.2926493
  22.5130113  65.6354913  48.4946493  22.1750113  64.4184913  49.0296493
  22.4260113  64.8584913  48.4306493  28.6370113  65.4834913  47.4226493
  28.1230113  65.0714913  47.9936493  28.5110113  66.3274913  47.6036493
  28.5430113  65.5474913  47.5336493  29.1940113  54.7084913  42.0536493
  29.2430113  54.3904913  42.8646493  29.5170113  54.0644913  41.5606493
  29.2490113  54.5664913  42.1006493  15.2810113  69.1594913  54.5036493
  16.0370113  69.5084913  54.7616493  15.4580113  68.3064913  54.4466493
  15.4190113  69.0844913  54.5336493  31.6580113  58.9444913  50.3616493
  32.4300113  58.7194913  50.6986493  31.1830113  59.1614913  51.0616493
  31.7020113  58.9434913  50.5146493  19.2020113  58.2274913  43.3316493
  19.4740113  57.7974913  42.6236493  19.0260113  57.5914913  43.9026493
  19.2160113  58.0704913  43.3116493  31.8900113  65.9224913  37.5496493
  32.0090113  65.6354913  38.3646493  32.6970113  65.9434913  37.2196493
  32.0260113  65.8834913  37.6216493  19.0260113  65.6544913  42.8806493
  19.8770113  65.5744913  42.7076493  18.6690113  64.9724913  42.4686493
  19.0990113  65.5414913  42.7936493  17.3430113  59.3294913  46.4136493
  18.1860113  59.5494913  46.3706493  16.9540113  59.9024913  45.8826493
  17.4100113  59.4464913  46.3286493  29.7850113  62.4594913  37.1346493
  29.5650113  63.1904913  36.7126493  29.3370113  62.5104913  37.8816493
  29.6860113  62.5744913  37.1826493  21.3940113  65.6614913  41.1156493
  22.1070113  66.1564913  41.2056493  21.6160113  65.0944913  40.4896493
  21.5320113  65.6504913  41.0366493  33.9720113  57.3204913  36.5876493
  33.3100113  56.7524913  36.6106493  33.7790113  57.8324913  35.9076493
  33.8460113  57.3124913  36.4906493  15.5500113  67.3044913  44.4356493
  14.8830113  67.7924913  44.7116493  16.2300113  67.8494913  44.4646493
  15.5520113  67.4564913  44.4806493  23.1970113  61.0144913  54.5316493
  22.7130113  61.5914913  54.9736493  23.1690113  61.3094913  53.7106493
  23.1210113  61.1434913  54.4756493  34.2950113  61.6984913  49.1436493
  34.5100113  60.8984913  48.8676493  33.4450113  61.7584913  48.9546493
  34.2010113  61.5894913  49.0746493  15.6160113  63.9884913  39.5386493
  15.4310113  63.1494913  39.6906493  16.2750113  63.9524913  38.9686493
  15.6860113  63.8594913  39.4766493  31.9740113  56.8784913  38.8666493
  32.7200113  56.4714913  39.0656493  32.2370113  57.5934913  38.4416493
  32.1230113  56.9244913  38.8336493  25.9170113  69.3644913  43.4426493
  25.3940113  69.9984913  43.1496493  26.2270113  69.0004913  42.7136493
  25.8850113  69.4044913  43.2916493  15.7880113  68.1524913  39.1136493
  16.3400113  68.7214913  39.4776493  15.5560113  67.6374913  39.7786493
  15.8350113  68.1604913  39.2656493  19.9920113  67.1524913  46.2026493
  20.4590113  67.4414913  46.8806493  20.5640113  66.6744913  45.7486493
  20.1460113  67.1244913  46.2356493  28.4280113  59.1664913  43.9396493
  28.7720113  59.3184913  44.7266493  27.9750113  58.4284913  44.0526493
  28.4120113  59.0794913  44.0726493  15.6180113  66.6014913  36.7416493
  16.3740113  66.1694913  36.7996493  15.6330113  67.1334913  37.4326493
  15.7320113  66.6164913  36.8526493  16.5580113  64.8224913  44.7466493
  16.9890113  64.6934913  43.9996493  16.3530113  65.6704913  44.7206493
  16.5910113  64.9284913  44.6326493  22.9040113  58.3864913  38.3966493
  22.9020113  58.2694913  37.5316493  22.7230113  59.2344913  38.4886493
  22.8770113  58.4944913  38.2826493  20.6420113  68.3384913  43.0286493
  20.7680113  69.1814913  43.2156493  21.3100113  67.9394913  43.4246493
  20.7600113  68.4044913  43.1146493  18.7720113  61.8214913  52.8906493
  18.2360113  61.3154913  53.3586493  18.7920113  61.4314913  52.1106493
  18.6950113  61.6884913  52.8446493  19.2570113  61.2184913  38.0306493
  19.1290113  60.7704913  38.7686493  18.6750113  60.8764913  37.4786493
  19.1520113  61.1014913  38.0586493  19.4240113  63.0484913  44.6296493
  18.6430113  62.9894913  44.2466493  19.4960113  62.2964913  45.0666493
  19.3190113  62.9294913  44.6376493  19.8540113  62.7854913  48.0976493
  19.8790113  62.1104913  47.5466493  19.2080113  63.2814913  47.7856493
  19.7630113  62.7584913  47.9706493  29.7490113  60.4984913  46.4936493
  29.0870113  60.8264913  46.9566493  29.9360113  61.1324913  45.9246493
  29.6790113  60.6404913  46.4776493  26.3940113  56.4044913  49.9226493
  26.5430113  55.5794913  49.6796493  26.7730113  56.4594913  50.7066493
  26.4720113  56.2904913  50.0026493  27.9420113  58.4674913  40.0046493
  28.4320113  59.1844913  39.9276493  27.1520113  58.7284913  39.7416493
  27.8980113  58.6114913  39.9546493  17.6530113  64.1404913  53.6566493
  17.6160113  64.6414913  52.9426493  17.9840113  63.3884913  53.3616493
  17.6960113  64.1024913  53.5076493  29.2560113  66.3454913  51.9146493
  29.7400113  67.0634913  52.0126493  29.6500113  65.9184913  51.2636493
  29.3860113  66.3884913  51.8326493  23.5520113  69.1904913  53.0916493
  23.9060113  69.0124913  53.8686493  23.1160113  68.4614913  52.8926493
  23.5400113  69.0564913  53.1776493  24.5240113  59.9374913  45.7296493
  25.0040113  60.6364913  45.9376493  24.8970113  59.2904913  46.1806493
  24.6500113  59.9454913  45.8266493  26.7130113  63.1064913  38.0036493
  26.7050113  63.8284913  37.5136493  26.0740113  63.2414913  38.5806493
  26.6180113  63.2334913  38.0166493  31.6850113  66.9764913  41.9846493
  32.0410113  66.6264913  42.6996493  31.6770113  66.3154913  41.4146493
  31.7370113  66.8264913  42.0056493  27.7300113  70.0424913  45.8286493
  27.1270113  69.7464913  45.2716493  28.2750113  70.4944913  45.3196493
  27.7210113  70.0654913  45.6706493  27.7430113  66.8934913  45.2286493
  26.9460113  67.1174913  45.5026493  28.0010113  66.2994913  45.8136493
  27.6630113  66.8384913  45.3556493  21.3060113  55.4484913  37.6646493
  21.4030113  55.3414913  38.5256493  20.5980113  55.9544913  37.5996493
  21.2160113  55.5074913  37.7826493  31.0030113  64.8914913  50.0746493
  31.0580113  65.0164913  49.2126493  31.7560113  65.2114913  50.3766493
  31.1220113  64.9564913  49.9916493  32.0350113  55.1894913  53.0616493
  31.3980113  54.7894913  52.6196493  32.0610113  54.7584913  53.8196493
  31.9450113  55.0674913  53.1076493  18.4280113  63.7554913  38.9076493
  18.7520113  62.9764913  38.6856493  19.0740113  64.1234913  39.3626493
  18.5710113  63.6944913  38.9416493  26.7340113  64.6974913  49.6746493
  26.5790113  65.3074913  50.2786493  27.2680113  64.1394913  50.0806493
  26.7900113  64.7054913  49.8236493  15.4250113  55.4164913  39.8756493
  15.5540113  54.7084913  39.3836493  15.0580113  55.0984913  40.6006493
  15.3900113  55.2644913  39.9106493  25.1180113  63.0974913  40.3326493
  25.1770113  63.7474913  40.9116493  24.9290113  62.4014913  40.8236493
  25.0990113  63.0904913  40.4906493  30.3440113  67.4264913  46.2016493
  29.8650113  67.7244913  45.5356493  29.9880113  66.6504913  46.3796493
  30.2210113  67.3554913  46.1296493  19.6140113  57.6144913  36.8446493
  19.1030113  57.6674913  36.1386493  20.3980113  57.8544913  36.5486493
  19.6540113  57.6574913  36.6966493  24.3410113  65.1444913  44.7636493
  23.4940113  64.9504913  44.8446493  24.6650113  64.9794913  45.5566493
  24.2630113  65.0914913  44.8926493  18.1890113  64.8374913  47.0796493
  18.9110113  65.3254913  47.0426493  17.9190113  64.8074913  46.2506493
  18.2560113  64.9054913  46.9516493  21.4190113  60.0084913  43.8146493
  22.2650113  59.8184913  43.9126493  21.0490113  59.2314913  43.6766493
  21.4890113  59.8654913  43.8086493  16.2400113  61.3464913  40.4696493
  16.7290113  61.0544913  41.1306493  16.3690113  60.7534913  39.8426493
  16.3310113  61.2154913  40.4746493  31.2750113  64.3684913  47.3206493
  31.2680113  63.5924913  47.7186493  30.4340113  64.6024913  47.3136493
  31.1500113  64.2884913  47.3786493  20.7650113  62.7804913  35.9556493
  20.1550113  62.3754913  36.4296493  20.3790113  62.8984913  35.1826493
  20.6180113  62.7374913  35.9116493  17.5840113  65.8894913  51.3576493
  17.1630113  65.3714913  50.7966493  17.2320113  66.6754913  51.2146493
  17.4700113  65.9294913  51.2536493  32.5310113  64.4394913  44.7576493
  32.2450113  64.8404913  45.4776493  33.3910113  64.3774913  44.8846493
  32.6160113  64.4894913  44.8826493  22.2200113  61.2414913  38.6656493
  22.4920113  62.0674913  38.7326493  21.3570113  61.3164913  38.5696493
  22.1330113  61.3744913  38.6606493  30.1930113  58.3634913  53.2976493
  29.6680113  58.8224913  53.8216493  29.8320113  57.5684913  53.2916493
  30.0620113  58.3134913  53.3736493  15.7000113  57.2114913  45.2016493
  15.7440113  57.5554913  44.4006493  16.4550113  57.4484913  45.5686493
  15.8180113  57.2974913  45.1376493  33.6620113  70.0724913  45.2866493
  33.9520113  70.3294913  44.5056493  34.3570113  70.1684913  45.8056493
  33.8080113  70.1244913  45.2476493  28.6850113  61.9324913  53.3736493
  28.7580113  62.0364913  54.2366493  28.0510113  62.4904913  53.1526493
  28.6020113  62.0304913  53.4686493  30.9530113  62.2514913  51.7386493
  31.2720113  63.0374913  51.9416493  30.5830113  61.9814913  52.4816493
  30.9460113  62.3274913  51.8786493  30.2670113  68.6754913  37.2686493
  30.6010113  67.8694913  37.3036493  29.5120113  68.6034913  37.6986493
  30.2050113  68.5454913  37.3376493  30.7490113  60.5094913  42.9276493
  30.0040113  60.1864913  43.2456493  30.7510113  61.3354913  43.2076493
  30.6390113  60.5834913  43.0156493  33.6510113  62.7934913  54.4736493
  33.5990113  62.4524913  53.6726493  34.3880113  63.2604913  54.4516493
  33.7520113  62.8124913  54.3516493  33.1890113  66.4694913  50.6796493
  33.8170113  65.9204913  50.4236493  33.1280113  67.0344913  50.0176493
  33.2730113  66.4724913  50.5436493  27.6410113  66.5504913  36.6716493
  28.3250113  66.0364913  36.5026493  27.2240113  66.5964913  35.9066493
  27.6800113  66.4814913  36.5336493  22.3230113  67.7004913  47.9756493
  22.0250113  68.2924913  48.5426493  22.3780113  68.1424913  47.2266493
  22.2870113  67.8534913  47.9486493  20.3020113  66.6504913  51.3736493
  19.4960113  66.3604913  51.5406493  20.2130113  67.5184913  51.3796493
  20.1700113  66.7354913  51.3986493  29.6610113  56.8394913  50.3886493
  30.4050113  57.2914913  50.3256493  29.0950113  57.3094913  49.9196493
  29.6880113  56.9764913  50.3106493  24.8390113  64.1234913  47.4666493
  25.3150113  64.4974913  48.0946493  24.0160113  64.2574913  47.7256493
  24.7880113  64.1984913  47.5976493  21.5490113  59.7264913  50.2076493
  21.7100113  58.9824913  50.6346493  21.5040113  59.4774913  49.3726493
  21.5660113  59.5794913  50.1476493  30.9460113  54.8194913  48.0586493
  30.6660113  55.6444913  48.0146493  31.6620113  54.8724913  48.5546493
  31.0110113  54.9494913  48.1256493  23.3010113  55.5344913  50.0876493
  24.0060113  55.8544913  49.6856493  23.5420113  54.7274913  50.3146493
  23.4400113  55.4624913  50.0616493  22.2860113  69.7444913  46.0836493
  21.6620113  70.3264913  45.9016493  22.5340113  69.4584913  45.2976493
  22.2300113  69.7884913  45.9406493  26.5950113  66.3784913  53.0726493
  27.3520113  66.6644913  52.7466493  26.0480113  66.4304913  52.3946493
  26.6260113  66.4284913  52.9236493  30.5040113  68.9284913  51.5766493
  30.8500113  69.1984913  52.3306493  30.7980113  69.5104913  50.9966493
  30.5990113  69.0544913  51.6026493  32.3670113  61.0744913  36.9156493
  32.7450113  61.7514913  36.5156493  31.5250113  61.2984913  36.9466493
  32.2980113  61.2074913  36.8606493  23.8800113  64.5204913  35.9986493
  23.0750113  64.3434913  35.7136493  23.8470113  65.3714913  36.1906493
  23.7560113  64.6194913  35.9856493  19.8100113  60.5874913  46.1486493
  20.2500113  60.4844913  45.4026493  20.3550113  60.2744913  46.7536493
  19.9550113  60.5264913  46.1276493  27.5140113  61.2264913  48.0386493
  27.8160113  61.6464913  48.7416493  27.5500113  60.3864913  48.2706493
  27.5640113  61.1644913  48.1766493  30.0620113  60.6734913  40.2906493
  30.2690113  60.4724913  41.1146493  30.8180113  60.9414913  39.9486493
  30.2040113  60.6834913  40.3616493  23.3570113  55.5724913  46.1956493
  22.5310113  55.4234913  46.4326493  23.3170113  55.6074913  45.3246493
  23.2290113  55.5554913  46.1016493  31.0840113  56.7564913  41.7646493
  30.3700113  56.2854913  41.9356493  30.9220113  57.0974913  40.9786493
  30.9550113  56.7374913  41.6736493  31.5270113  64.7004913  40.1446493
  32.0030113  63.9714913  40.0966493  30.7060113  64.4144913  40.0686493
  31.4760113  64.5504913  40.1256493  24.9980113  66.6124913  50.9836493
  24.2030113  66.5484913  51.3346493  25.0690113  67.4594913  50.7886493
  24.8910113  66.7274913  51.0066493  15.9220113  55.9704913  52.2306493
  15.7820113  56.7654913  51.8996493  15.1360113  55.7274913  52.5196493
  15.7850113  56.0524913  52.2246493  18.9860113  58.7144913  39.4556493
  19.1120113  58.3854913  38.6576493  18.1740113  58.4654913  39.6546493
  18.8850113  58.6294913  39.3676493  27.7430113  65.8674913  42.4996493
  27.8190113  66.2084913  43.2986493  27.9120113  65.0204913  42.6206493
  27.7790113  65.7924913  42.6356493  25.2650113  65.1414913  42.0646493
  24.9670113  64.8264913  42.8216493  25.9600113  65.6144913  42.2996493
  25.3240113  65.1644913  42.2116493  25.4870113  69.2594913  50.0916493
  26.1740113  69.1454913  50.6166493  25.6210113  70.0504913  49.7476493
  25.6080113  69.3594913  50.1186493  33.6630113  61.8684913  51.9026493
  32.8080113  61.7464913  52.0286493  33.8160113  61.4734913  51.1396493
  33.5590113  61.7914913  51.8086493  28.1760113  62.5334913  50.4786493
  27.9210113  61.8144913  50.9006493  28.9970113  62.6494913  50.7486493
  28.2600113  62.4444913  50.5806493  26.1100113  63.7234913  53.6656493
  26.4330113  64.4094913  53.2336493  25.4060113  64.0464913  54.0676493
  26.0530113  63.8724913  53.6606493  25.8950113  67.1874913  47.5246493
  25.2010113  67.5894913  47.8676493  26.5720113  67.6204913  47.8636493
  25.8920113  67.3104913  47.6256493  31.2720113  69.7804913  54.1046493
  32.0480113  69.3904913  54.1876493  30.8030113  69.4444913  54.7596493
  31.3170113  69.6734913  54.2136493  18.9630113  60.7254913  49.8716493
  19.3380113  61.3444913  49.3846493  19.6370113  60.2514913  50.1566493
  19.1180113  60.7474913  49.8416493  16.7380113  59.1734913  49.1466493
  16.8150113  59.0044913  48.2936493  17.4840113  59.5794913  49.3436493
  16.8590113  59.2084913  49.0496493  32.2970113  61.8134913  39.5866493
  32.4000113  61.7554913  38.7226493  33.0380113  61.4814913  39.9046493
  32.4220113  61.7564913  39.5056493  19.2920113  56.5834913  51.5576493
  19.2110113  55.7394913  51.7636493  18.9780113  56.6274913  50.7446493
  19.2340113  56.4654913  51.4676493  26.2170113  68.7784913  40.6936493
  26.0120113  69.6114913  40.5346493  25.4420113  68.3964913  40.8156493
  26.0720113  68.8454913  40.6886493  31.3990113  61.9594913  48.9426493
  31.3970113  61.0964913  49.0666493  31.4660113  62.2834913  49.7496493
  31.4090113  61.8794913  49.0796493  16.1350113  64.3994913  49.3706493
  16.4550113  64.6184913  48.5896493  16.0350113  63.5344913  49.3156493
  16.1670113  64.3044913  49.2476493  17.5910113  60.3354913  35.9886493
  16.9190113  60.3494913  36.5446493  17.6860113  59.4874913  35.8046493
  17.5060113  60.2124913  36.0436493  27.2780113  56.7594913  52.7246493
  27.3700113  57.4714913  53.2186493  26.6410113  56.3144913  53.1216493
  27.1970113  56.7984913  52.8566493  26.2720113  56.9494913  43.5786493
  25.5720113  57.4674913  43.5226493  26.3100113  56.5694913  42.7946493
  26.1740113  56.9704913  43.4546493  21.5790113  69.0404913  37.1026493
  22.0200113  69.1204913  37.8506493  20.7740113  68.8244913  37.3606493
  21.5250113  69.0204913  37.2516493  20.8980113  63.6914913  50.7556493
  20.5020113  64.4654913  50.8306493  20.4920113  63.3184913  50.0796493
  20.7800113  63.7504913  50.6666493  30.1740113  62.7454913  44.8696493
  30.8400113  63.2864913  45.0296493  29.8290113  63.0564913  44.1306493
  30.2210113  62.8714913  44.7846493  18.9080113  68.1104913  37.7036493
  18.6640113  67.8034913  38.4836493  18.8750113  67.4074913  37.1876493
  18.8670113  67.9614913  37.7426493  21.7270113  66.3554913  36.4466493
  20.9090113  66.0874913  36.5866493  21.6990113  67.2074913  36.6316493
  21.6020113  66.4424913  36.4946493  21.3270113  56.6684913  48.2056493
  20.4630113  56.7524913  48.2856493  21.5470113  56.1544913  48.8746493
  21.2320113  56.6054913  48.3166493  33.3450113  55.3034913  49.5346493
  33.2930113  55.2594913  50.4046493  34.0320113  54.8004913  49.3446493
  33.4390113  55.2234913  49.6346493  25.4300113  57.4164913  46.5796493
  24.6930113  56.9624913  46.6926493  26.0010113  57.0144913  47.1026493
  25.4050113  57.2894913  46.6736493  28.1620113  68.2644913  48.3676493
  28.3680113  68.5654913  49.1596493  28.1010113  68.9864913  47.8826493
  28.1830113  68.4154913  48.4126493  22.9330113  61.7454913  51.7836493
  22.6110113  61.1694913  51.2136493  22.5740113  62.5004913  51.5376493
  22.8330113  61.7714913  51.6636493  23.7290113  54.9974913  36.4106493
  23.8070113  55.2444913  35.5776493  22.9860113  55.3744913  36.6686493
  23.6310113  55.0894913  36.3256493  32.9740113  66.9034913  47.8256493
  32.9420113  66.0414913  47.6906493  32.2810113  67.2054913  47.3916493
  32.8670113  66.8204913  47.7416493  31.0790113  70.1634913  46.6226493
  31.6060113  70.0804913  45.9316493  30.6880113  69.3854913  46.6766493
  31.0990113  70.0364913  46.5286493  18.5470113  56.7514913  48.8536493
  18.2040113  55.9844913  48.6196493  17.8520113  57.2754913  48.9176493
  18.3940113  56.7154913  48.8286493  27.5930113  55.6074913  45.8306493
  28.2630113  56.1514913  45.9576493  27.0900113  56.0314913  45.2576493
  27.6180113  55.7504913  45.7646493  26.9520113  61.4154913  43.3236493
  27.5030113  60.8084913  43.6236493  26.5270113  61.6784913  44.0386493
  26.9710113  61.3644913  43.4726493  17.2000113  60.0654913  42.8096493
  16.8320113  60.3674913  43.5406493  17.7340113  59.4364913  43.0936493
  17.2240113  60.0174913  42.9596493  16.8880113  68.4734913  50.3206493
  16.3140113  68.8894913  50.8296493  17.6210113  68.9384913  50.4156493
  16.9120113  68.6034913  50.4096493  28.9220113  63.2464913  39.8856493
  28.9900113  62.3964913  40.0666493  28.0990113  63.3324913  39.6076493
  28.8100113  63.1334913  39.8716493  22.8410113  64.1374913  38.8236493
  22.9410113  64.2764913  37.9686493  23.6590113  64.0774913  39.1196493
  22.9760113  64.1484913  38.7406493  32.1960113  64.6194913  53.0366493
  32.8300113  64.4494913  53.6106493  32.6130113  65.0224913  52.3846493
  32.3510113  64.6544913  53.0256493  28.0760113  68.4664913  38.6256493
  27.8250113  68.3384913  39.4516493  27.7590113  67.7714913  38.2046493
  27.9920113  68.3454913  38.6856493  32.8210113  59.1834913  53.7746493
  32.6250113  59.8274913  54.3296493  32.0990113  58.6934913  53.7666493
  32.6860113  59.2064913  53.8556493  32.7200113  60.1244913  46.7456493
  31.8870113  60.3744913  46.6736493  32.6640113  59.2844913  46.9746493
  32.5890113  60.0374913  46.7686493  21.9800113  57.1124913  51.9396493
  22.2140113  56.5364913  51.3266493  21.1380113  56.9314913  52.0806493
  21.8900113  57.0004913  51.8696493  29.6070113  64.7304913  54.3916493
  30.4780113  64.6944913  54.3556493  29.3880113  65.1504913  53.6596493
  29.7040113  64.7864913  54.2786493  24.9620113  66.6744913  38.0556493
  25.6790113  66.3274913  37.6996493  24.9280113  67.4744913  37.7076493
  25.0630113  66.7414913  37.9516493  26.3710113  55.3154913  22.2944083
  26.1260113  55.8034913  21.6144083  27.2340113  55.2424913  22.1944083
  26.4620113  55.3764913  22.1794083  26.1800113  62.2314913  26.9654083
  25.6560113  62.8274913  27.3284083  26.5770113  61.8634913  27.6494083
  26.1610113  62.2654913  27.1204083  16.0490113  66.3714913  22.4214083
  15.6080113  66.4894913  23.1644083  15.7660113  65.5964913  22.1364083
  15.9420113  66.2744913  22.4894083  32.3240113  69.6724913  19.9364083
  33.0250113  69.1534913  19.9324083  31.7370113  69.2274913  19.4674083
  32.3410113  69.5294913  19.8664083  15.7920113  60.1634913  18.9284083
  15.0140113  60.3254913  18.5684083  15.8310113  59.2924913  18.9504083
  15.6830113  60.0584913  18.8784083  18.9310113  65.4264913  17.6004083
  18.5390113  65.0554913  16.9144083  18.8510113  64.8284913  18.2294083
  18.8610113  65.2834913  17.5914083  28.8510113  63.2984913  23.6414083
  28.9310113  63.3024913  22.7724083  28.2670113  62.6664913  23.7904083
  28.7760113  63.2054913  23.5354083  18.5580113  67.0674913  21.5004083
  19.1660113  66.8974913  22.1034083  17.8070113  66.9274913  21.9214083
  18.5370113  67.0214913  21.6514083  22.8400113  56.4024913  21.4494083
  22.7700113  57.0794913  20.9034083  23.5810113  56.0144913  21.2004083
  22.9390113  56.4454913  21.3314083  17.4490113  70.1584913  17.5774083
  17.9160113  70.2424913  16.8454083  17.9040113  69.5804913  18.0464083
  17.5850113  70.0854913  17.5384083  15.9890113  69.1064913  28.6764083
  16.1180113  68.8264913  29.4924083  15.3790113  68.5654913  28.3674083
  15.9180113  68.9854913  28.7514083  22.5630113  66.6314913  33.7434083
  22.3270113  66.6284913  34.5834083  21.8150113  66.4834913  33.3194083
  22.4170113  66.6084913  33.8044083  17.4350113  63.6274913  22.8784083
  16.9730113  63.2354913  22.2514083  18.1350113  63.1144913  22.9704083
  17.4700113  63.4944913  22.7994083  21.9430113  59.2374913  28.2254083
  22.6210113  59.2554913  27.6764083  21.8980113  58.4014913  28.4704083
  22.0360113  59.1164913  28.1804083  19.4360113  61.7274913  22.9014083
  20.2530113  61.5404913  23.1444083  18.9590113  61.1134913  23.2974083
  19.4860113  61.6094913  22.9964083  23.6400113  67.7084913  25.5114083
  23.9880113  66.9094913  25.5414083  24.3050113  68.2124913  25.2564083
  23.7900113  67.6644913  25.4784083  23.6970113  67.1574913  21.7224083
  24.0280113  66.5134913  22.2084083  23.9370113  66.9464913  20.9114083
  23.7810113  67.0314913  21.6744083  25.6650113  61.2884913  33.0614083
  24.8170113  61.1894913  32.8834083  25.6940113  62.0334913  33.5154083
  25.5440113  61.3844913  33.1024083  20.0330113  56.8214913  22.1674083
  19.7370113  57.3224913  21.5174083  20.9000113  56.8994913  22.1104083
  20.1170113  56.9074913  22.0634083  30.2230113  54.2484913  32.1754083
  30.0650113  55.0174913  31.7934083  29.4510113  54.0284913  32.5194083
  30.0850113  54.3294913  32.1704083  23.0120113  55.9634913  24.3904083
  23.0850113  56.8234913  24.5194083  22.9740113  55.8884913  23.5224083
  23.0170113  56.0794913  24.2814083  27.6850113  58.8894913  16.6894083
  27.2350113  59.5704913  16.9964083  27.7990113  58.3854913  17.3924083
  27.6360113  58.9154913  16.8384083  15.8910113  61.3884913  25.8914083
  15.6350113  62.2194913  25.8164083  15.2270113  61.0054913  26.3084083
  15.7550113  61.4544913  25.9424083  21.6410113  68.9424913  21.2714083
  21.0620113  68.6674913  21.8634083  22.2650113  68.3334913  21.2964083
  21.6480113  68.8124913  21.3624083  18.9200113  56.2054913  26.3824083
  18.3990113  55.5774913  26.0744083  19.5110113  55.7684913  26.8534083
  18.9310113  56.0474913  26.4064083  22.2260113  58.3384913  35.6804083
  22.3430113  57.8844913  34.9444083  22.5140113  59.1364913  35.4774083
  22.2860113  58.3894913  35.5414083  17.3460113  69.7684913  21.7224083
  18.0020113  69.1934913  21.7374083  17.7350113  70.5174913  21.5014083
  17.5010113  69.7934913  21.6924083  33.0790113  58.8624913  22.9844083
  32.7330113  59.5404913  23.4104083  32.4430113  58.2644913  23.0004083
  32.9340113  58.8744913  23.0494083  17.9590113  57.9354913  34.6644083
  17.1810113  57.5454913  34.5924083  18.4500113  57.5234913  34.0734083
  17.9160113  57.8164913  34.5664083  18.1640113  68.2554913  25.2224083
  18.5870113  67.8994913  24.5484083  18.4880113  67.8334913  25.9144083
  18.2740113  68.1404913  25.2254083  24.6080113  55.5784913  33.8324083
  24.7860113  54.7694913  33.5574083  24.4650113  56.0194913  33.0934083
  24.6130113  55.5244913  33.6824083  25.2020113  60.5044913  22.6054083
  25.4890113  60.2724913  21.8154083  25.9340113  60.5834913  23.0744083
  25.3520113  60.4814913  22.5584083  25.9240113  60.8434913  17.7264083
  26.2050113  61.6314913  17.9754083  25.1480113  61.0084913  17.3634083
  25.8510113  60.9844913  17.7094083  32.7540113  57.1854913  28.3534083
  33.5110113  57.2574913  27.9254083  32.8170113  56.4124913  28.7524083
  32.8750113  57.0824913  28.3484083  15.3070113  58.4834913  32.2504083
  15.3030113  59.0704913  32.8964083  15.9010113  58.7954913  31.6934083
  15.3940113  58.6164913  32.2634083  27.6450113  68.8174913  32.7924083
  27.6110113  69.1994913  33.5764083  28.4990113  68.7754913  32.6214083
  27.7660113  68.8674913  32.8834083  24.7830113  69.0144913  17.5424083
  24.6020113  69.5594913  18.1994083  25.5490113  69.3044913  17.2414083
  24.8690113  69.1384913  17.5954083  28.2900113  56.9104913  18.5964083
  28.8300113  56.2284913  18.6724083  28.3520113  57.3084913  19.3704083
  28.3790113  56.8684913  18.7224083  16.2440113  58.0784913  21.1654083
  16.1300113  57.2144913  21.1964083  15.7690113  58.3724913  21.8354083
  16.1570113  57.9944913  21.2684083  18.3860113  70.4884913  29.3804083
  17.6880113  69.9804913  29.5064083  18.6460113  70.2834913  28.5724083
  18.3210113  70.3834913  29.2794083  25.5480113  59.2864913  19.9104083
  25.0400113  58.6244913  19.6564083  25.6000113  59.7904913  19.2004083
  25.4810113  59.2634913  19.7684083  25.5480113  56.2274913  19.8014083
  25.0930113  55.8254913  19.1754083  26.3210113  56.3824913  19.4264083
  25.5950113  56.1914913  19.6534083  24.1460113  58.5944913  24.3234083
  24.2200113  59.1624913  23.6654083  24.2670113  59.0864913  25.0334083
  24.1740113  58.7514913  24.3314083  29.3710113  68.4294913  22.7354083
  30.0720113  67.9474913  22.9244083  28.7110113  67.8604913  22.7804083
  29.3770113  68.2744913  22.7694083  19.7470113  69.3394913  31.9474083
  20.5880113  69.4024913  31.7254083  19.7100113  69.7364913  32.7234083
  19.8660113  69.4074913  32.0294083  18.7540113  54.4174913  22.6714083
  19.2900113  55.1054913  22.6614083  18.7570113  54.1434913  21.8434083
  18.8330113  54.4784913  22.5474083  21.7100113  64.8504913  26.6964083
  21.8820113  64.6404913  27.5254083  21.0550113  64.3164913  26.4804083
  21.6390113  64.7404913  26.7874083  27.9380113  58.7644913  30.2114083
  27.8430113  59.0834913  31.0174083  27.3450113  58.1254913  30.1734083
  27.8360113  58.7164913  30.3254083  22.4600113  64.7884913  29.2864083
  22.5130113  65.6354913  29.4884083  22.1750113  64.4184913  30.0234083
  22.4260113  64.8584913  29.4244083  28.6370113  65.4834913  28.4164083
  28.1230113  65.0714913  28.9874083  28.5110113  66.3274913  28.5974083
  28.5430113  65.5474913  28.5274083  29.1940113  54.7084913  23.0474083
  29.2430113  54.3904913  23.8584083  29.5170113  54.0644913  22.5544083
  29.2490113  54.5664913  23.0944083  15.2810113  69.1594913  35.4974083
  16.0370113  69.5084913  35.7554083  15.4580113  68.3064913  35.4404083
  15.4190113  69.0844913  35.5274083  31.6580113  58.9444913  31.3554083
  32.4300113  58.7194913  31.6924083  31.1830113  59.1614913  32.0554083
  31.7020113  58.9434913  31.5084083  19.2020113  58.2274913  24.3254083
  19.4740113  57.7974913  23.6174083  19.0260113  57.5914913  24.8964083
  19.2160113  58.0704913  24.3054083  31.8900113  65.9224913  18.5434083
  32.0090113  65.6354913  19.3584083  32.6970113  65.9434913  18.2134083
  32.0260113  65.8834913  18.6154083  19.0260113  65.6544913  23.8744083
  19.8770113  65.5744913  23.7014083  18.6690113  64.9724913  23.4624083
  19.0990113  65.5414913  23.7874083  17.3430113  59.3294913  27.4074083
  18.1860113  59.5494913  27.3644083  16.9540113  59.9024913  26.8764083
  17.4100113  59.4464913  27.3224083  29.7850113  62.4594913  18.1284083
  29.5650113  63.1904913  17.7064083  29.3370113  62.5104913  18.8754083
  29.6860113  62.5744913  18.1764083  21.3940113  65.6614913  22.1094083
  22.1070113  66.1564913  22.1994083  21.6160113  65.0944913  21.4834083
  21.5320113  65.6504913  22.0304083  33.9720113  57.3204913  17.5814083
  33.3100113  56.7524913  17.6044083  33.7790113  57.8324913  16.9014083
  33.8460113  57.3124913  17.4844083  15.5500113  67.3044913  25.4294083
  14.8830113  67.7924913  25.7054083  16.2300113  67.8494913  25.4584083
  15.5520113  67.4564913  25.4744083  23.1970113  61.0144913  35.5254083
  22.7130113  61.5914913  35.9674083  23.1690113  61.3094913  34.7044083
  23.1210113  61.1434913  35.4694083  34.2950113  61.6984913  30.1374083
  34.5100113  60.8984913  29.8614083  33.4450113  61.7584913  29.9484083
  34.2010113  61.5894913  30.0684083  15.6160113  63.9884913  20.5324083
  15.4310113  63.1494913  20.6844083  16.2750113  63.9524913  19.9624083
  15.6860113  63.8594913  20.4704083  31.9740113  56.8784913  19.8604083
  32.7200113  56.4714913  20.0594083  32.2370113  57.5934913  19.4354083
  32.1230113  56.9244913  19.8274083  25.9170113  69.3644913  24.4364083
  25.3940113  69.9984913  24.1434083  26.2270113  69.0004913  23.7074083
  25.8850113  69.4044913  24.2854083  15.7880113  68.1524913  20.1074083
  16.3400113  68.7214913  20.4714083  15.5560113  67.6374913  20.7724083
  15.8350113  68.1604913  20.2594083  19.9920113  67.1524913  27.1964083
  20.4590113  67.4414913  27.8744083  20.5640113  66.6744913  26.7424083
  20.1460113  67.1244913  27.2294083  28.4280113  59.1664913  24.9334083
  28.7720113  59.3184913  25.7204083  27.9750113  58.4284913  25.0464083
  28.4120113  59.0794913  25.0664083  15.6180113  66.6014913  17.7354083
  16.3740113  66.1694913  17.7934083  15.6330113  67.1334913  18.4264083
  15.7320113  66.6164913  17.8464083  16.5580113  64.8224913  25.7404083
  16.9890113  64.6934913  24.9934083  16.3530113  65.6704913  25.7144083
  16.5910113  64.9284913  25.6264083  22.9040113  58.3864913  19.3904083
  22.9020113  58.2694913  18.5254083  22.7230113  59.2344913  19.4824083
  22.8770113  58.4944913  19.2764083  20.6420113  68.3384913  24.0224083
  20.7680113  69.1814913  24.2094083  21.3100113  67.9394913  24.4184083
  20.7600113  68.4044913  24.1084083  18.7720113  61.8214913  33.8844083
  18.2360113  61.3154913  34.3524083  18.7920113  61.4314913  33.1044083
  18.6950113  61.6884913  33.8384083  19.2570113  61.2184913  19.0244083
  19.1290113  60.7704913  19.7624083  18.6750113  60.8764913  18.4724083
  19.1520113  61.1014913  19.0524083  19.4240113  63.0484913  25.6234083
  18.6430113  62.9894913  25.2404083  19.4960113  62.2964913  26.0604083
  19.3190113  62.9294913  25.6314083  19.8540113  62.7854913  29.0914083
  19.8790113  62.1104913  28.5404083  19.2080113  63.2814913  28.7794083
  19.7630113  62.7584913  28.9644083  29.7490113  60.4984913  27.4874083
  29.0870113  60.8264913  27.9504083  29.9360113  61.1324913  26.9184083
  29.6790113  60.6404913  27.4714083  26.3940113  56.4044913  30.9164083
  26.5430113  55.5794913  30.6734083  26.7730113  56.4594913  31.7004083
  26.4720113  56.2904913  30.9964083  27.9420113  58.4674913  20.9984083
  28.4320113  59.1844913  20.9214083  27.1520113  58.7284913  20.7354083
  27.8980113  58.6114913  20.9484083  17.6530113  64.1404913  34.6504083
  17.6160113  64.6414913  33.9364083  17.9840113  63.3884913  34.3554083
  17.6960113  64.1024913  34.5014083  29.2560113  66.3454913  32.9084083
  29.7400113  67.0634913  33.0064083  29.6500113  65.9184913  32.2574083
  29.3860113  66.3884913  32.8264083  23.5520113  69.1904913  34.0854083
  23.9060113  69.0124913  34.8624083  23.1160113  68.4614913  33.8864083
  23.5400113  69.0564913  34.1714083  24.5240113  59.9374913  26.7234083
  25.0040113  60.6364913  26.9314083  24.8970113  59.2904913  27.1744083
  24.6500113  59.9454913  26.8204083  26.7130113  63.1064913  18.9974083
  26.7050113  63.8284913  18.5074083  26.0740113  63.2414913  19.5744083
  26.6180113  63.2334913  19.0104083  31.6850113  66.9764913  22.9784083
  32.0410113  66.6264913  23.6934083  31.6770113  66.3154913  22.4084083
  31.7370113  66.8264913  22.9994083  27.7300113  70.0424913  26.8224083
  27.1270113  69.7464913  26.2654083  28.2750113  70.4944913  26.3134083
  27.7210113  70.0654913  26.6644083  27.7430113  66.8934913  26.2224083
  26.9460113  67.1174913  26.4964083  28.0010113  66.2994913  26.8074083
  27.6630113  66.8384913  26.3494083  21.3060113  55.4484913  18.6584083
  21.4030113  55.3414913  19.5194083  20.5980113  55.9544913  18.5934083
  21.2160113  55.5074913  18.7764083  31.0030113  64.8914913  31.0684083
  31.0580113  65.0164913  30.2064083  31.7560113  65.2114913  31.3704083
  31.1220113  64.9564913  30.9854083  32.0350113  55.1894913  34.0554083
  31.3980113  54.7894913  33.6134083  32.0610113  54.7584913  34.8134083
  31.9450113  55.0674913  34.1014083  18.4280113  63.7554913  19.9014083
  18.7520113  62.9764913  19.6794083  19.0740113  64.1234913  20.3564083
  18.5710113  63.6944913  19.9354083  26.7340113  64.6974913  30.6684083
  26.5790113  65.3074913  31.2724083  27.2680113  64.1394913  31.0744083
  26.7900113  64.7054913  30.8174083  15.4250113  55.4164913  20.8694083
  15.5540113  54.7084913  20.3774083  15.0580113  55.0984913  21.5944083
  15.3900113  55.2644913  20.9044083  25.1180113  63.0974913  21.3264083
  25.1770113  63.7474913  21.9054083  24.9290113  62.4014913  21.8174083
  25.0990113  63.0904913  21.4844083  30.3440113  67.4264913  27.1954083
  29.8650113  67.7244913  26.5294083  29.9880113  66.6504913  27.3734083
  30.2210113  67.3554913  27.1234083  19.6140113  57.6144913  17.8384083
  19.1030113  57.6674913  17.1324083  20.3980113  57.8544913  17.5424083
  19.6540113  57.6574913  17.6904083  24.3410113  65.1444913  25.7574083
  23.4940113  64.9504913  25.8384083  24.6650113  64.9794913  26.5504083
  24.2630113  65.0914913  25.8864083  18.1890113  64.8374913  28.0734083
  18.9110113  65.3254913  28.0364083  17.9190113  64.8074913  27.2444083
  18.2560113  64.9054913  27.9454083  21.4190113  60.0084913  24.8084083
  22.2650113  59.8184913  24.9064083  21.0490113  59.2314913  24.6704083
  21.4890113  59.8654913  24.8024083  16.2400113  61.3464913  21.4634083
  16.7290113  61.0544913  22.1244083  16.3690113  60.7534913  20.8364083
  16.3310113  61.2154913  21.4684083  31.2750113  64.3684913  28.3144083
  31.2680113  63.5924913  28.7124083  30.4340113  64.6024913  28.3074083
  31.1500113  64.2884913  28.3724083  20.7650113  62.7804913  16.9494083
  20.1550113  62.3754913  17.4234083  20.3790113  62.8984913  16.1764083
  20.6180113  62.7374913  16.9054083  17.5840113  65.8894913  32.3514083
  17.1630113  65.3714913  31.7904083  17.2320113  66.6754913  32.2084083
  17.4700113  65.9294913  32.2474083  32.5310113  64.4394913  25.7514083
  32.2450113  64.8404913  26.4714083  33.3910113  64.3774913  25.8784083
  32.6160113  64.4894913  25.8764083  22.2200113  61.2414913  19.6594083
  22.4920113  62.0674913  19.7264083  21.3570113  61.3164913  19.5634083
  22.1330113  61.3744913  19.6544083  30.1930113  58.3634913  34.2914083
  29.6680113  58.8224913  34.8154083  29.8320113  57.5684913  34.2854083
  30.0620113  58.3134913  34.3674083  15.7000113  57.2114913  26.1954083
  15.7440113  57.5554913  25.3944083  16.4550113  57.4484913  26.5624083
  15.8180113  57.2974913  26.1314083  33.6620113  70.0724913  26.2804083
  33.9520113  70.3294913  25.4994083  34.3570113  70.1684913  26.7994083
  33.8080113  70.1244913  26.2414083  28.6850113  61.9324913  34.3674083
  28.7580113  62.0364913  35.2304083  28.0510113  62.4904913  34.1464083
  28.6020113  62.0304913  34.4624083  30.9530113  62.2514913  32.7324083
  31.2720113  63.0374913  32.9354083  30.5830113  61.9814913  33.4754083
  30.9460113  62.3274913  32.8724083  30.2670113  68.6754913  18.2624083
  30.6010113  67.8694913  18.2974083  29.5120113  68.6034913  18.6924083
  30.2050113  68.5454913  18.3314083  30.7490113  60.5094913  23.9214083
  30.0040113  60.1864913  24.2394083  30.7510113  61.3354913  24.2014083
  30.6390113  60.5834913  24.0094083  33.6510113  62.7934913  35.4674083
  33.5990113  62.4524913  34.6664083  34.3880113  63.2604913  35.4454083
  33.7520113  62.8124913  35.3454083  33.1890113  66.4694913  31.6734083
  33.8170113  65.9204913  31.4174083  33.1280113  67.0344913  31.0114083
  33.2730113  66.4724913  31.5374083  27.6410113  66.5504913  17.6654083
  28.3250113  66.0364913  17.4964083  27.2240113  66.5964913  16.9004083
  27.6800113  66.4814913  17.5274083  22.3230113  67.7004913  28.9694083
  22.0250113  68.2924913  29.5364083  22.3780113  68.1424913  28.2204083
  22.2870113  67.8534913  28.9424083  20.3020113  66.6504913  32.3674083
  19.4960113  66.3604913  32.5344083  20.2130113  67.5184913  32.3734083
  20.1700113  66.7354913  32.3924083  29.6610113  56.8394913  31.3824083
  30.4050113  57.2914913  31.3194083  29.0950113  57.3094913  30.9134083
  29.6880113  56.9764913  31.3044083  24.8390113  64.1234913  28.4604083
  25.3150113  64.4974913  29.0884083  24.0160113  64.2574913  28.7194083
  24.7880113  64.1984913  28.5914083  21.5490113  59.7264913  31.2014083
  21.7100113  58.9824913  31.6284083  21.5040113  59.4774913  30.3664083
  21.5660113  59.5794913  31.1414083  30.9460113  54.8194913  29.0524083
  30.6660113  55.6444913  29.0084083  31.6620113  54.8724913  29.5484083
  31.0110113  54.9494913  29.1194083  23.3010113  55.5344913  31.0814083
  24.0060113  55.8544913  30.6794083  23.5420113  54.7274913  31.3084083
  23.4400113  55.4624913  31.0554083  22.2860113  69.7444913  27.0774083
  21.6620113  70.3264913  26.8954083  22.5340113  69.4584913  26.2914083
  22.2300113  69.7884913  26.9344083  26.5950113  66.3784913  34.0664083
  27.3520113  66.6644913  33.7404083  26.0480113  66.4304913  33.3884083
  26.6260113  66.4284913  33.9174083  30.5040113  68.9284913  32.5704083
  30.8500113  69.1984913  33.3244083  30.7980113  69.5104913  31.9904083
  30.5990113  69.0544913  32.5964083  32.3670113  61.0744913  17.9094083
  32.7450113  61.7514913  17.5094083  31.5250113  61.2984913  17.9404083
  32.2980113  61.2074913  17.8544083  23.8800113  64.5204913  16.9924083
  23.0750113  64.3434913  16.7074083  23.8470113  65.3714913  17.1844083
  23.7560113  64.6194913  16.9794083  19.8100113  60.5874913  27.1424083
  20.2500113  60.4844913  26.3964083  20.3550113  60.2744913  27.7474083
  19.9550113  60.5264913  27.1214083  27.8260113  59.6894913  32.7344083
  27.1780113  60.1594913  33.0824083  28.3910113  59.6004913  33.3934083
  27.8140113  59.7454913  32.8834083  27.5140113  61.2264913  29.0324083
  27.8160113  61.6464913  29.7354083  27.5500113  60.3864913  29.2644083
  27.5640113  61.1644913  29.1704083  30.0620113  60.6734913  21.2844083
  30.2690113  60.4724913  22.1084083  30.8180113  60.9414913  20.9424083
  30.2040113  60.6834913  21.3554083  23.3570113  55.5724913  27.1894083
  22.5310113  55.4234913  27.4264083  23.3170113  55.6074913  26.3184083
  23.2290113  55.5554913  27.0954083  31.0840113  56.7564913  22.7584083
  30.3700113  56.2854913  22.9294083  30.9220113  57.0974913  21.9724083
  30.9550113  56.7374913  22.6674083  31.5270113  64.7004913  21.1384083
  32.0030113  63.9714913  21.0904083  30.7060113  64.4144913  21.0624083
  31.4760113  64.5504913  21.1194083  24.9980113  66.6124913  31.9774083
  24.2030113  66.5484913  32.3284083  25.0690113  67.4594913  31.7824083
  24.8910113  66.7274913  32.0004083  15.9220113  55.9704913  33.2244083
  15.7820113  56.7654913  32.8934083  15.1360113  55.7274913  33.5134083
  15.7850113  56.0524913  33.2184083  18.9860113  58.7144913  20.4494083
  19.1120113  58.3854913  19.6514083  18.1740113  58.4654913  20.6484083
  18.8850113  58.6294913  20.3614083  27.7430113  65.8674913  23.4934083
  27.8190113  66.2084913  24.2924083  27.9120113  65.0204913  23.6144083
  27.7790113  65.7924913  23.6294083  25.2650113  65.1414913  23.0584083
  24.9670113  64.8264913  23.8154083  25.9600113  65.6144913  23.2934083
  25.3240113  65.1644913  23.2054083  25.4870113  69.2594913  31.0854083
  26.1740113  69.1454913  31.6104083  25.6210113  70.0504913  30.7414083
  25.6080113  69.3594913  31.1124083  33.6630113  61.8684913  32.8964083
  32.8080113  61.7464913  33.0224083  33.8160113  61.4734913  32.1334083
  33.5590113  61.7914913  32.8024083  28.1760113  62.5334913  31.4724083
  27.9210113  61.8144913  31.8944083  28.9970113  62.6494913  31.7424083
  28.2600113  62.4444913  31.5744083  26.1100113  63.7234913  34.6594083
  26.4330113  64.4094913  34.2274083  25.4060113  64.0464913  35.0614083
  26.0530113  63.8724913  34.6544083  25.8950113  67.1874913  28.5184083
  25.2010113  67.5894913  28.8614083  26.5720113  67.6204913  28.8574083
  25.8920113  67.3104913  28.6194083  31.2720113  69.7804913  35.0984083
  32.0480113  69.3904913  35.1814083  30.8030113  69.4444913  35.7534083
  31.3170113  69.6734913  35.2074083  18.9630113  60.7254913  30.8654083
  19.3380113  61.3444913  30.3784083  19.6370113  60.2514913  31.1504083
  19.1180113  60.7474913  30.8354083  16.7380113  59.1734913  30.1404083
  16.8150113  59.0044913  29.2874083  17.4840113  59.5794913  30.3374083
  16.8590113  59.2084913  30.0434083  32.2970113  61.8134913  20.5804083
  32.4000113  61.7554913  19.7164083  33.0380113  61.4814913  20.8984083
  32.4220113  61.7564913  20.4994083  19.2920113  56.5834913  32.5514083
  19.2110113  55.7394913  32.7574083  18.9780113  56.6274913  31.7384083
  19.2340113  56.4654913  32.4614083  26.2170113  68.7784913  21.6874083
  26.0120113  69.6114913  21.5284083  25.4420113  68.3964913  21.8094083
  26.0720113  68.8454913  21.6824083  31.3990113  61.9594913  29.9364083
  31.3970113  61.0964913  30.0604083  31.4660113  62.2834913  30.7434083
  31.4090113  61.8794913  30.0734083  16.1350113  64.3994913  30.3644083
  16.4550113  64.6184913  29.5834083  16.0350113  63.5344913  30.3094083
  16.1670113  64.3044913  30.2414083  17.5910113  60.3354913  16.9824083
  16.9190113  60.3494913  17.5384083  17.6860113  59.4874913  16.7984083
  17.5060113  60.2124913  17.0374083  27.2780113  56.7594913  33.7184083
  27.3700113  57.4714913  34.2124083  26.6410113  56.3144913  34.1154083
  27.1970113  56.7984913  33.8504083  26.2720113  56.9494913  24.5724083
  25.5720113  57.4674913  24.5164083  26.3100113  56.5694913  23.7884083
  26.1740113  56.9704913  24.4484083  21.5790113  69.0404913  18.0964083
  22.0200113  69.1204913  18.8444083  20.7740113  68.8244913  18.3544083
  21.5250113  69.0204913  18.2454083  29.8700113  57.4654913  27.3724083
  30.7250113  57.5644913  27.5174083  29.5010113  58.0184913  27.9374083
  29.9420113  57.5624913  27.4774083  20.8980113  63.6914913  31.7494083
  20.5020113  64.4654913  31.8244083  20.4920113  63.3184913  31.0734083
  20.7800113  63.7504913  31.6604083  30.1740113  62.7454913  25.8634083
  30.8400113  63.2864913  26.0234083  29.8290113  63.0564913  25.1244083
  30.2210113  62.8714913  25.7784083  18.9080113  68.1104913  18.6974083
  18.6640113  67.8034913  19.4774083  18.8750113  67.4074913  18.1814083
  18.8670113  67.9614913  18.7364083  21.7270113  66.3554913  17.4404083
  20.9090113  66.0874913  17.5804083  21.6990113  67.2074913  17.6254083
  21.6020113  66.4424913  17.4884083  21.3270113  56.6684913  29.1994083
  20.4630113  56.7524913  29.2794083  21.5470113  56.1544913  29.8684083
  21.2320113  56.6054913  29.3104083  33.3450113  55.3034913  30.5284083
  33.2930113  55.2594913  31.3984083  34.0320113  54.8004913  30.3384083
  33.4390113  55.2234913  30.6284083  25.4300113  57.4164913  27.5734083
  24.6930113  56.9624913  27.6864083  26.0010113  57.0144913  28.0964083
  25.4050113  57.2894913  27.6674083  28.1620113  68.2644913  29.3614083
  28.3680113  68.5654913  30.1534083  28.1010113  68.9864913  28.8764083
  28.1830113  68.4154913  29.4064083  22.9330113  61.7454913  32.7774083
  22.6110113  61.1694913  32.2074083  22.5740113  62.5004913  32.5314083
  22.8330113  61.7714913  32.6574083  23.7290113  54.9974913  17.4044083
  23.8070113  55.2444913  16.5714083  22.9860113  55.3744913  17.6624083
  23.6310113  55.0894913  17.3194083  32.9740113  66.9034913  28.8194083
  32.9420113  66.0414913  28.6844083  32.2810113  67.2054913  28.3854083
  32.8670113  66.8204913  28.7354083  31.0790113  70.1634913  27.6164083
  31.6060113  70.0804913  26.9254083  30.6880113  69.3854913  27.6704083
  31.0990113  70.0364913  27.5224083  18.5470113  56.7514913  29.8474083
  18.2040113  55.9844913  29.6134083  17.8520113  57.2754913  29.9114083
  18.3940113  56.7154913  29.8224083  27.5930113  55.6074913  26.8244083
  28.2630113  56.1514913  26.9514083  27.0900113  56.0314913  26.2514083
  27.6180113  55.7504913  26.7584083  26.9520113  61.4154913  24.3174083
  27.5030113  60.8084913  24.6174083  26.5270113  61.6784913  25.0324083
  26.9710113  61.3644913  24.4664083  17.2000113  60.0654913  23.8034083
  16.8320113  60.3674913  24.5344083  17.7340113  59.4364913  24.0874083
  17.2240113  60.0174913  23.9534083  16.8880113  68.4734913  31.3144083
  16.3140113  68.8894913  31.8234083  17.6210113  68.9384913  31.4094083
  16.9120113  68.6034913  31.4034083  28.9220113  63.2464913  20.8794083
  28.9900113  62.3964913  21.0604083  28.0990113  63.3324913  20.6014083
  28.8100113  63.1334913  20.8654083  22.8410113  64.1374913  19.8174083
  22.9410113  64.2764913  18.9624083  23.6590113  64.0774913  20.1134083
  22.9760113  64.1484913  19.7344083  32.1960113  64.6194913  34.0304083
  32.8300113  64.4494913  34.6044083  32.6130113  65.0224913  33.3784083
  32.3510113  64.6544913  34.0194083  28.0760113  68.4664913  19.6194083
  27.8250113  68.3384913  20.4454083  27.7590113  67.7714913  19.1984083
  27.9920113  68.3454913  19.6794083  32.8210113  59.1834913  34.7684083
  32.6250113  59.8274913  35.3234083  32.0990113  58.6934913  34.7604083
  32.6860113  59.2064913  34.8494083  32.7200113  60.1244913  27.7394083
  31.8870113  60.3744913  27.6674083  32.6640113  59.2844913  27.9684083
  32.5890113  60.0374913  27.7624083  21.9800113  57.1124913  32.9334083
  22.2140113  56.5364913  32.3204083  21.1380113  56.9314913  33.0744083
  21.8900113  57.0004913  32.8634083  29.6070113  64.7304913  35.3854083
  30.4780113  64.6944913  35.3494083  29.3880113  65.1504913  34.6534083
  29.7040113  64.7864913  35.2724083  24.9620113  66.6744913  19.0494083
  25.6790113  66.3274913  18.6934083  24.9280113  67.4744913  18.7014083
  25.0630113  66.7414913  18.9454083  26.3710113  55.3154913   3.2881673
  26.1260113  55.8034913   2.6081673  27.2340113  55.2424913   3.1881673
  26.4620113  55.3764913   3.1731673  26.1800113  62.2314913   7.9591673
  25.6560113  62.8274913   8.3221673  26.5770113  61.8634913   8.6431673
  26.1610113  62.2654913   8.1141673  16.0490113  66.3714913   3.4151673
  15.6080113  66.4894913   4.1581673  15.7660113  65.5964913   3.1301673
  15.9420113  66.2744913   3.4831673  28.8510113  63.2984913   4.6351673
  28.9310113  63.3024913   3.7661673  28.2670113  62.6664913   4.7841673
  28.7760113  63.2054913   4.5291673  18.5580113  67.0674913   2.4941673
  19.1660113  66.8974913   3.0971673  17.8070113  66.9274913   2.9151673
  18.5370113  67.0214913   2.6451673  22.8400113  56.4024913   2.4431673
  22.7700113  57.0794913   1.8971673  23.5810113  56.0144913   2.1941673
  22.9390113  56.4454913   2.3251673  15.9890113  69.1064913   9.6701673
  16.1180113  68.8264913  10.4861673  15.3790113  68.5654913   9.3611673
  15.9180113  68.9854913   9.7451673  22.5630113  66.6314913  14.7371673
  22.3270113  66.6284913  15.5771673  21.8150113  66.4834913  14.3131673
  22.4170113  66.6084913  14.7981673  17.4350113  63.6274913   3.8721673
  16.9730113  63.2354913   3.2451673  18.1350113  63.1144913   3.9641673
  17.4700113  63.4944913   3.7931673  21.9430113  59.2374913   9.2191673
  22.6210113  59.2554913   8.6701673  21.8980113  58.4014913   9.4641673
  22.0360113  59.1164913   9.1741673  19.4360113  61.7274913   3.8951673
  20.2530113  61.5404913   4.1381673  18.9590113  61.1134913   4.2911673
  19.4860113  61.6094913   3.9901673  23.6400113  67.7084913   6.5051673
  23.9880113  66.9094913   6.5351673  24.3050113  68.2124913   6.2501673
  23.7900113  67.6644913   6.4721673  23.6970113  67.1574913   2.7161673
  24.0280113  66.5134913   3.2021673  23.9370113  66.9464913   1.9051673
  23.7810113  67.0314913   2.6681673  25.6650113  61.2884913  14.0551673
  24.8170113  61.1894913  13.8771673  25.6940113  62.0334913  14.5091673
  25.5440113  61.3844913  14.0961673  20.0330113  56.8214913   3.1611673
  19.7370113  57.3224913   2.5111673  20.9000113  56.8994913   3.1041673
  20.1170113  56.9074913   3.0571673  30.2230113  54.2484913  13.1691673
  30.0650113  55.0174913  12.7871673  29.4510113  54.0284913  13.5131673
  30.0850113  54.3294913  13.1641673  23.0120113  55.9634913   5.3841673
  23.0850113  56.8234913   5.5131673  22.9740113  55.8884913   4.5161673
  23.0170113  56.0794913   5.2751673  15.8910113  61.3884913   6.8851673
  15.6350113  62.2194913   6.8101673  15.2270113  61.0054913   7.3021673
  15.7550113  61.4544913   6.9361673  21.6410113  68.9424913   2.2651673
  21.0620113  68.6674913   2.8571673  22.2650113  68.3334913   2.2901673
  21.6480113  68.8124913   2.3561673  18.9200113  56.2054913   7.3761673
  18.3990113  55.5774913   7.0681673  19.5110113  55.7684913   7.8471673
  18.9310113  56.0474913   7.4001673  22.2260113  58.3384913  16.6741673
  22.3430113  57.8844913  15.9381673  22.5140113  59.1364913  16.4711673
  22.2860113  58.3894913  16.5351673  17.3460113  69.7684913   2.7161673
  18.0020113  69.1934913   2.7311673  17.7350113  70.5174913   2.4951673
  17.5010113  69.7934913   2.6861673  33.0790113  58.8624913   3.9781673
  32.7330113  59.5404913   4.4041673  32.4430113  58.2644913   3.9941673
  32.9340113  58.8744913   4.0431673  17.9590113  57.9354913  15.6581673
  17.1810113  57.5454913  15.5861673  18.4500113  57.5234913  15.0671673
  17.9160113  57.8164913  15.5601673  18.1640113  68.2554913   6.2161673
  18.5870113  67.8994913   5.5421673  18.4880113  67.8334913   6.9081673
  18.2740113  68.1404913   6.2191673  24.6080113  55.5784913  14.8261673
  24.7860113  54.7694913  14.5511673  24.4650113  56.0194913  14.0871673
  24.6130113  55.5244913  14.6761673  25.2020113  60.5044913   3.5991673
  25.4890113  60.2724913   2.8091673  25.9340113  60.5834913   4.0681673
  25.3520113  60.4814913   3.5521673  32.7540113  57.1854913   9.3471673
  33.5110113  57.2574913   8.9191673  32.8170113  56.4124913   9.7461673
  32.8750113  57.0824913   9.3421673  15.3070113  58.4834913  13.2441673
  15.3030113  59.0704913  13.8901673  15.9010113  58.7954913  12.6871673
  15.3940113  58.6164913  13.2571673  27.6450113  68.8174913  13.7861673
  27.6110113  69.1994913  14.5701673  28.4990113  68.7754913  13.6151673
  27.7660113  68.8674913  13.8771673  16.2440113  58.0784913   2.1591673
  16.1300113  57.2144913   2.1901673  15.7690113  58.3724913   2.8291673
  16.1570113  57.9944913   2.2621673  18.3860113  70.4884913  10.3741673
  17.6880113  69.9804913  10.5001673  18.6460113  70.2834913   9.5661673
  18.3210113  70.3834913  10.2731673  24.1460113  58.5944913   5.3171673
  24.2200113  59.1624913   4.6591673  24.2670113  59.0864913   6.0271673
  24.1740113  58.7514913   5.3251673  29.3710113  68.4294913   3.7291673
  30.0720113  67.9474913   3.9181673  28.7110113  67.8604913   3.7741673
  29.3770113  68.2744913   3.7631673  19.7470113  69.3394913  12.9411673
  20.5880113  69.4024913  12.7191673  19.7100113  69.7364913  13.7171673
  19.8660113  69.4074913  13.0231673  18.7540113  54.4174913   3.6651673
  19.2900113  55.1054913   3.6551673  18.7570113  54.1434913   2.8371673
  18.8330113  54.4784913   3.5411673  21.7100113  64.8504913   7.6901673
  21.8820113  64.6404913   8.5191673  21.0550113  64.3164913   7.4741673
  21.6390113  64.7404913   7.7811673  27.9380113  58.7644913  11.2051673
  27.8430113  59.0834913  12.0111673  27.3450113  58.1254913  11.1671673
  27.8360113  58.7164913  11.3191673  22.4600113  64.7884913  10.2801673
  22.5130113  65.6354913  10.4821673  22.1750113  64.4184913  11.0171673
  22.4260113  64.8584913  10.4181673  28.6370113  65.4834913   9.4101673
  28.1230113  65.0714913   9.9811673  28.5110113  66.3274913   9.5911673
  28.5430113  65.5474913   9.5211673  29.1940113  54.7084913   4.0411673
  29.2430113  54.3904913   4.8521673  29.5170113  54.0644913   3.5481673
  29.2490113  54.5664913   4.0881673  15.2810113  69.1594913  16.4911673
  16.0370113  69.5084913  16.7491673  15.4580113  68.3064913  16.4341673
  15.4190113  69.0844913  16.5211673  31.6580113  58.9444913  12.3491673
  32.4300113  58.7194913  12.6861673  31.1830113  59.1614913  13.0491673
  31.7020113  58.9434913  12.5021673  19.2020113  58.2274913   5.3191673
  19.4740113  57.7974913   4.6111673  19.0260113  57.5914913   5.8901673
  19.2160113  58.0704913   5.2991673  19.0260113  65.6544913   4.8681673
  19.8770113  65.5744913   4.6951673  18.6690113  64.9724913   4.4561673
  19.0990113  65.5414913   4.7811673  17.3430113  59.3294913   8.4011673
  18.1860113  59.5494913   8.3581673  16.9540113  59.9024913   7.8701673
  17.4100113  59.4464913   8.3161673  21.3940113  65.6614913   3.1031673
  22.1070113  66.1564913   3.1931673  21.6160113  65.0944913   2.4771673
  21.5320113  65.6504913   3.0241673  15.5500113  67.3044913   6.4231673
  14.8830113  67.7924913   6.6991673  16.2300113  67.8494913   6.4521673
  15.5520113  67.4564913   6.4681673  23.1970113  61.0144913  16.5191673
  22.7130113  61.5914913  16.9611673  23.1690113  61.3094913  15.6981673
  23.1210113  61.1434913  16.4631673  34.2950113  61.6984913  11.1311673
  34.5100113  60.8984913  10.8551673  33.4450113  61.7584913  10.9421673
  34.2010113  61.5894913  11.0621673  25.9170113  69.3644913   5.4301673
  25.3940113  69.9984913   5.1371673  26.2270113  69.0004913   4.7011673
  25.8850113  69.4044913   5.2791673  19.9920113  67.1524913   8.1901673
  20.4590113  67.4414913   8.8681673  20.5640113  66.6744913   7.7361673
  20.1460113  67.1244913   8.2231673  28.4280113  59.1664913   5.9271673
  28.7720113  59.3184913   6.7141673  27.9750113  58.4284913   6.0401673
  28.4120113  59.0794913   6.0601673  16.5580113  64.8224913   6.7341673
  16.9890113  64.6934913   5.9871673  16.3530113  65.6704913   6.7081673
  16.5910113  64.9284913   6.6201673  20.6420113  68.3384913   5.0161673
  20.7680113  69.1814913   5.2031673  21.3100113  67.9394913   5.4121673
  20.7600113  68.4044913   5.1021673  18.7720113  61.8214913  14.8781673
  18.2360113  61.3154913  15.3461673  18.7920113  61.4314913  14.0981673
  18.6950113  61.6884913  14.8321673  19.4240113  63.0484913   6.6171673
  18.6430113  62.9894913   6.2341673  19.4960113  62.2964913   7.0541673
  19.3190113  62.9294913   6.6251673  19.8540113  62.7854913  10.0851673
  19.8790113  62.1104913   9.5341673  19.2080113  63.2814913   9.7731673
  19.7630113  62.7584913   9.9581673  29.7490113  60.4984913   8.4811673
  29.0870113  60.8264913   8.9441673  29.9360113  61.1324913   7.9121673
  29.6790113  60.6404913   8.4651673  26.3940113  56.4044913  11.9101673
  26.5430113  55.5794913  11.6671673  26.7730113  56.4594913  12.6941673
  26.4720113  56.2904913  11.9901673  27.9420113  58.4674913   1.9921673
  28.4320113  59.1844913   1.9151673  27.1520113  58.7284913   1.7291673
  27.8980113  58.6114913   1.9421673  17.6530113  64.1404913  15.6441673
  17.6160113  64.6414913  14.9301673  17.9840113  63.3884913  15.3491673
  17.6960113  64.1024913  15.4951673  29.2560113  66.3454913  13.9021673
  29.7400113  67.0634913  14.0001673  29.6500113  65.9184913  13.2511673
  29.3860113  66.3884913  13.8201673  23.5520113  69.1904913  15.0791673
  23.9060113  69.0124913  15.8561673  23.1160113  68.4614913  14.8801673
  23.5400113  69.0564913  15.1651673  24.5240113  59.9374913   7.7171673
  25.0040113  60.6364913   7.9251673  24.8970113  59.2904913   8.1681673
  24.6500113  59.9454913   7.8141673  31.6850113  66.9764913   3.9721673
  32.0410113  66.6264913   4.6871673  31.6770113  66.3154913   3.4021673
  31.7370113  66.8264913   3.9931673  27.7300113  70.0424913   7.8161673
  27.1270113  69.7464913   7.2591673  28.2750113  70.4944913   7.3071673
  27.7210113  70.0654913   7.6581673  27.7430113  66.8934913   7.2161673
  26.9460113  67.1174913   7.4901673  28.0010113  66.2994913   7.8011673
  27.6630113  66.8384913   7.3431673  31.0030113  64.8914913  12.0621673
  31.0580113  65.0164913  11.2001673  31.7560113  65.2114913  12.3641673
  31.1220113  64.9564913  11.9791673  32.0350113  55.1894913  15.0491673
  31.3980113  54.7894913  14.6071673  32.0610113  54.7584913  15.8071673
  31.9450113  55.0674913  15.0951673  26.7340113  64.6974913  11.6621673
  26.5790113  65.3074913  12.2661673  27.2680113  64.1394913  12.0681673
  26.7900113  64.7054913  11.8111673  15.4250113  55.4164913   1.8631673
  15.5540113  54.7084913   1.3711673  15.0580113  55.0984913   2.5881673
  15.3900113  55.2644913   1.8981673  25.1180113  63.0974913   2.3201673
  25.1770113  63.7474913   2.8991673  24.9290113  62.4014913   2.8111673
  25.0990113  63.0904913   2.4781673  30.3440113  67.4264913   8.1891673
  29.8650113  67.7244913   7.5231673  29.9880113  66.6504913   8.3671673
  30.2210113  67.3554913   8.1171673  24.3410113  65.1444913   6.7511673
  23.4940113  64.9504913   6.8321673  24.6650113  64.9794913   7.5441673
  24.2630113  65.0914913   6.8801673  18.1890113  64.8374913   9.0671673
  18.9110113  65.3254913   9.0301673  17.9190113  64.8074913   8.2381673
  18.2560113  64.9054913   8.9391673  21.4190113  60.0084913   5.8021673
  22.2650113  59.8184913   5.9001673  21.0490113  59.2314913   5.6641673
  21.4890113  59.8654913   5.7961673  16.2400113  61.3464913   2.4571673
  16.7290113  61.0544913   3.1181673  16.3690113  60.7534913   1.8301673
  16.3310113  61.2154913   2.4621673  31.2750113  64.3684913   9.3081673
  31.2680113  63.5924913   9.7061673  30.4340113  64.6024913   9.3011673
  31.1500113  64.2884913   9.3661673  17.5840113  65.8894913  13.3451673
  17.1630113  65.3714913  12.7841673  17.2320113  66.6754913  13.2021673
  17.4700113  65.9294913  13.2411673  32.5310113  64.4394913   6.7451673
  32.2450113  64.8404913   7.4651673  33.3910113  64.3774913   6.8721673
  32.6160113  64.4894913   6.8701673  30.1930113  58.3634913  15.2851673
  29.6680113  58.8224913  15.8091673  29.8320113  57.5684913  15.2791673
  30.0620113  58.3134913  15.3611673  15.7000113  57.2114913   7.1891673
  15.7440113  57.5554913   6.3881673  16.4550113  57.4484913   7.5561673
  15.8180113  57.2974913   7.1251673  33.6620113  70.0724913   7.2741673
  33.9520113  70.3294913   6.4931673  34.3570113  70.1684913   7.7931673
  33.8080113  70.1244913   7.2351673  28.6850113  61.9324913  15.3611673
  28.7580113  62.0364913  16.2241673  28.0510113  62.4904913  15.1401673
  28.6020113  62.0304913  15.4561673  30.9530113  62.2514913  13.7261673
  31.2720113  63.0374913  13.9291673  30.5830113  61.9814913  14.4691673
  30.9460113  62.3274913  13.8661673  30.7490113  60.5094913   4.9151673
  30.0040113  60.1864913   5.2331673  30.7510113  61.3354913   5.1951673
  30.6390113  60.5834913   5.0031673  33.6510113  62.7934913  16.4611673
  33.5990113  62.4524913  15.6601673  34.3880113  63.2604913  16.4391673
  33.7520113  62.8124913  16.3391673  33.1890113  66.4694913  12.6671673
  33.8170113  65.9204913  12.4111673  33.1280113  67.0344913  12.0051673
  33.2730113  66.4724913  12.5311673  22.3230113  67.7004913   9.9631673
  22.0250113  68.2924913  10.5301673  22.3780113  68.1424913   9.2141673
  22.2870113  67.8534913   9.9361673  20.3020113  66.6504913  13.3611673
  19.4960113  66.3604913  13.5281673  20.2130113  67.5184913  13.3671673
  20.1700113  66.7354913  13.3861673  29.6610113  56.8394913  12.3761673
  30.4050113  57.2914913  12.3131673  29.0950113  57.3094913  11.9071673
  29.6880113  56.9764913  12.2981673  24.8390113  64.1234913   9.4541673
  25.3150113  64.4974913  10.0821673  24.0160113  64.2574913   9.7131673
  24.7880113  64.1984913   9.5851673  21.5490113  59.7264913  12.1951673
  21.7100113  58.9824913  12.6221673  21.5040113  59.4774913  11.3601673
  21.5660113  59.5794913  12.1351673  30.9460113  54.8194913  10.0461673
  30.6660113  55.6444913  10.0021673  31.6620113  54.8724913  10.5421673
  31.0110113  54.9494913  10.1131673  23.3010113  55.5344913  12.0751673
  24.0060113  55.8544913  11.6731673  23.5420113  54.7274913  12.3021673
  23.4400113  55.4624913  12.0491673  22.2860113  69.7444913   8.0711673
  21.6620113  70.3264913   7.8891673  22.5340113  69.4584913   7.2851673
  22.2300113  69.7884913   7.9281673  26.5950113  66.3784913  15.0601673
  27.3520113  66.6644913  14.7341673  26.0480113  66.4304913  14.3821673
  26.6260113  66.4284913  14.9111673  30.5040113  68.9284913  13.5641673
  30.8500113  69.1984913  14.3181673  30.7980113  69.5104913  12.9841673
  30.5990113  69.0544913  13.5901673  19.8100113  60.5874913   8.1361673
  20.2500113  60.4844913   7.3901673  20.3550113  60.2744913   8.7411673
  19.9550113  60.5264913   8.1151673  27.8260113  59.6894913  13.7281673
  27.1780113  60.1594913  14.0761673  28.3910113  59.6004913  14.3871673
  27.8140113  59.7454913  13.8771673  27.5140113  61.2264913  10.0261673
  27.8160113  61.6464913  10.7291673  27.5500113  60.3864913  10.2581673
  27.5640113  61.1644913  10.1641673  30.0620113  60.6734913   2.2781673
  30.2690113  60.4724913   3.1021673  30.8180113  60.9414913   1.9361673
  30.2040113  60.6834913   2.3491673  23.3570113  55.5724913   8.1831673
  22.5310113  55.4234913   8.4201673  23.3170113  55.6074913   7.3121673
  23.2290113  55.5554913   8.0891673  31.0840113  56.7564913   3.7521673
  30.3700113  56.2854913   3.9231673  30.9220113  57.0974913   2.9661673
  30.9550113  56.7374913   3.6611673  31.5270113  64.7004913   2.1321673
  32.0030113  63.9714913   2.0841673  30.7060113  64.4144913   2.0561673
  31.4760113  64.5504913   2.1131673  24.9980113  66.6124913  12.9711673
  24.2030113  66.5484913  13.3221673  25.0690113  67.4594913  12.7761673
  24.8910113  66.7274913  12.9941673  15.9220113  55.9704913  14.2181673
  15.7820113  56.7654913  13.8871673  15.1360113  55.7274913  14.5071673
  15.7850113  56.0524913  14.2121673  27.7430113  65.8674913   4.4871673
  27.8190113  66.2084913   5.2861673  27.9120113  65.0204913   4.6081673
  27.7790113  65.7924913   4.6231673  25.2650113  65.1414913   4.0521673
  24.9670113  64.8264913   4.8091673  25.9600113  65.6144913   4.2871673
  25.3240113  65.1644913   4.1991673  25.4870113  69.2594913  12.0791673
  26.1740113  69.1454913  12.6041673  25.6210113  70.0504913  11.7351673
  25.6080113  69.3594913  12.1061673  33.6630113  61.8684913  13.8901673
  32.8080113  61.7464913  14.0161673  33.8160113  61.4734913  13.1271673
  33.5590113  61.7914913  13.7961673  28.1760113  62.5334913  12.4661673
  27.9210113  61.8144913  12.8881673  28.9970113  62.6494913  12.7361673
  28.2600113  62.4444913  12.5681673  26.1100113  63.7234913  15.6531673
  26.4330113  64.4094913  15.2211673  25.4060113  64.0464913  16.0551673
  26.0530113  63.8724913  15.6481673  25.8950113  67.1874913   9.5121673
  25.2010113  67.5894913   9.8551673  26.5720113  67.6204913   9.8511673
  25.8920113  67.3104913   9.6131673  31.2720113  69.7804913  16.0921673
  32.0480113  69.3904913  16.1751673  30.8030113  69.4444913  16.7471673
  31.3170113  69.6734913  16.2011673  18.9630113  60.7254913  11.8591673
  19.3380113  61.3444913  11.3721673  19.6370113  60.2514913  12.1441673
  19.1180113  60.7474913  11.8291673  16.7380113  59.1734913  11.1341673
  16.8150113  59.0044913  10.2811673  17.4840113  59.5794913  11.3311673
  16.8590113  59.2084913  11.0371673  19.2920113  56.5834913  13.5451673
  19.2110113  55.7394913  13.7511673  18.9780113  56.6274913  12.7321673
  19.2340113  56.4654913  13.4551673  26.2170113  68.7784913   2.6811673
  26.0120113  69.6114913   2.5221673  25.4420113  68.3964913   2.8031673
  26.0720113  68.8454913   2.6761673  31.3990113  61.9594913  10.9301673
  31.3970113  61.0964913  11.0541673  31.4660113  62.2834913  11.7371673
  31.4090113  61.8794913  11.0671673  16.1350113  64.3994913  11.3581673
  16.4550113  64.6184913  10.5771673  16.0350113  63.5344913  11.3031673
  16.1670113  64.3044913  11.2351673  27.2780113  56.7594913  14.7121673
  27.3700113  57.4714913  15.2061673  26.6410113  56.3144913  15.1091673
  27.1970113  56.7984913  14.8441673  26.2720113  56.9494913   5.5661673
  25.5720113  57.4674913   5.5101673  26.3100113  56.5694913   4.7821673
  26.1740113  56.9704913   5.4421673  29.8700113  57.4654913   8.3661673
  30.7250113  57.5644913   8.5111673  29.5010113  58.0184913   8.9311673
  29.9420113  57.5624913   8.4711673  20.8980113  63.6914913  12.7431673
  20.5020113  64.4654913  12.8181673  20.4920113  63.3184913  12.0671673
  20.7800113  63.7504913  12.6541673  30.1740113  62.7454913   6.8571673
  30.8400113  63.2864913   7.0171673  29.8290113  63.0564913   6.1181673
  30.2210113  62.8714913   6.7721673  21.3270113  56.6684913  10.1931673
  20.4630113  56.7524913  10.2731673  21.5470113  56.1544913  10.8621673
  21.2320113  56.6054913  10.3041673  33.3450113  55.3034913  11.5221673
  33.2930113  55.2594913  12.3921673  34.0320113  54.8004913  11.3321673
  33.4390113  55.2234913  11.6221673  25.4300113  57.4164913   8.5671673
  24.6930113  56.9624913   8.6801673  26.0010113  57.0144913   9.0901673
  25.4050113  57.2894913   8.6611673  28.1620113  68.2644913  10.3551673
  28.3680113  68.5654913  11.1471673  28.1010113  68.9864913   9.8701673
  28.1830113  68.4154913  10.4001673  22.9330113  61.7454913  13.7711673
  22.6110113  61.1694913  13.2011673  22.5740113  62.5004913  13.5251673
  22.8330113  61.7714913  13.6511673  32.9740113  66.9034913   9.8131673
  32.9420113  66.0414913   9.6781673  32.2810113  67.2054913   9.3791673
  32.8670113  66.8204913   9.7291673  31.0790113  70.1634913   8.6101673
  31.6060113  70.0804913   7.9191673  30.6880113  69.3854913   8.6641673
  31.0990113  70.0364913   8.5161673  18.5470113  56.7514913  10.8411673
  18.2040113  55.9844913  10.6071673  17.8520113  57.2754913  10.9051673
  18.3940113  56.7154913  10.8161673  27.5930113  55.6074913   7.8181673
  28.2630113  56.1514913   7.9451673  27.0900113  56.0314913   7.2451673
  27.6180113  55.7504913   7.7521673  26.9520113  61.4154913   5.3111673
  27.5030113  60.8084913   5.6111673  26.5270113  61.6784913   6.0261673
  26.9710113  61.3644913   5.4601673  17.2000113  60.0654913   4.7971673
  16.8320113  60.3674913   5.5281673  17.7340113  59.4364913   5.0811673
  17.2240113  60.0174913   4.9471673  16.8880113  68.4734913  12.3081673
  16.3140113  68.8894913  12.8171673  17.6210113  68.9384913  12.4031673
  16.9120113  68.6034913  12.3971673  28.9220113  63.2464913   1.8731673
  28.9900113  62.3964913   2.0541673  28.0990113  63.3324913   1.5951673
  28.8100113  63.1334913   1.8591673  32.1960113  64.6194913  15.0241673
  32.8300113  64.4494913  15.5981673  32.6130113  65.0224913  14.3721673
  32.3510113  64.6544913  15.0131673  32.8210113  59.1834913  15.7621673
  32.6250113  59.8274913  16.3171673  32.0990113  58.6934913  15.7541673
  32.6860113  59.2064913  15.8431673  32.7200113  60.1244913   8.7331673
  31.8870113  60.3744913   8.6611673  32.6640113  59.2844913   8.9621673
  32.5890113  60.0374913   8.7561673  21.9800113  57.1124913  13.9271673
  22.2140113  56.5364913  13.3141673  21.1380113  56.9314913  14.0681673
  21.8900113  57.0004913  13.8571673  29.6070113  64.7304913  16.3791673
  30.4780113  64.6944913  16.3431673  29.3880113  65.1504913  15.6471673
  29.7040113  64.7864913  16.2661673  26.3710113  36.8373833  79.3131313
  26.1260113  37.3253833  78.6331313  27.2340113  36.7643833  79.2131313
  26.4620113  36.8983833  79.1981313  26.1800113  43.7533833  83.9841313
  25.6560113  44.3493833  84.3471313  26.5770113  43.3853833  84.6681313
  26.1610113  43.7873833  84.1391313  16.0490113  47.8933833  79.4401313
  15.6080113  48.0113833  80.1831313  15.7660113  47.1183833  79.1551313
  15.9420113  47.7963833  79.5081313  32.3240113  51.1943833  76.9551313
  33.0250113  50.6753833  76.9511313  31.7370113  50.7493833  76.4861313
  32.3410113  51.0513833  76.8851313  15.7920113  41.6853833  75.9471313
  15.0140113  41.8473833  75.5871313  15.8310113  40.8143833  75.9691313
  15.6830113  41.5803833  75.8971313  18.9310113  46.9483833  74.6191313
  18.5390113  46.5773833  73.9331313  18.8510113  46.3503833  75.2481313
  18.8610113  46.8053833  74.6101313  28.8510113  44.8203833  80.6601313
  28.9310113  44.8243833  79.7911313  28.2670113  44.1883833  80.8091313
  28.7760113  44.7273833  80.5541313  18.5580113  48.5893833  78.5191313
  19.1660113  48.4193833  79.1221313  17.8070113  48.4493833  78.9401313
  18.5370113  48.5433833  78.6701313  22.8400113  37.9243833  78.4681313
  22.7700113  38.6013833  77.9221313  23.5810113  37.5363833  78.2191313
  22.9390113  37.9673833  78.3501313  17.4490113  51.6803833  74.5961313
  17.9160113  51.7643833  73.8641313  17.9040113  51.1023833  75.0651313
  17.5850113  51.6073833  74.5571313  15.9890113  50.6283833  85.6951313
  16.1180113  50.3483833  86.5111313  15.3790113  50.0873833  85.3861313
  15.9180113  50.5073833  85.7701313  17.4350113  45.1493833  79.8971313
  16.9730113  44.7573833  79.2701313  18.1350113  44.6363833  79.9891313
  17.4700113  45.0163833  79.8181313  21.9430113  40.7593833  85.2441313
  22.6210113  40.7773833  84.6951313  21.8980113  39.9233833  85.4891313
  22.0360113  40.6383833  85.1991313  22.5450113  51.3453833  88.0251313
  22.6830113  52.1053833  87.6181313  23.3360113  50.9803833  88.0521313
  22.6820113  51.4043833  87.9691313  19.4360113  43.2493833  79.9201313
  20.2530113  43.0623833  80.1631313  18.9590113  42.6353833  80.3161313
  19.4860113  43.1313833  80.0151313  23.6400113  49.2303833  82.5301313
  23.9880113  48.4313833  82.5601313  24.3050113  49.7343833  82.2751313
  23.7900113  49.1863833  82.4971313  23.6970113  48.6793833  78.7411313
  24.0280113  48.0353833  79.2271313  23.9370113  48.4683833  77.9301313
  23.7810113  48.5533833  78.6931313  20.0330113  38.3433833  79.1861313
  19.7370113  38.8443833  78.5361313  20.9000113  38.4213833  79.1291313
  20.1170113  38.4293833  79.0821313  23.0120113  37.4853833  81.4091313
  23.0850113  38.3453833  81.5381313  22.9740113  37.4103833  80.5411313
  23.0170113  37.6013833  81.3001313  27.6850113  40.4113833  73.7081313
  27.2350113  41.0923833  74.0151313  27.7990113  39.9073833  74.4111313
  27.6360113  40.4373833  73.8571313  15.8910113  42.9103833  82.9101313
  15.6350113  43.7413833  82.8351313  15.2270113  42.5273833  83.3271313
  15.7550113  42.9763833  82.9611313  15.8010113  52.6203833  80.8101313
  15.2090113  53.1783833  80.4971313  16.2270113  52.3513833  80.0981313
  15.7770113  52.6623833  80.6591313  21.6410113  50.4643833  78.2901313
  21.0620113  50.1893833  78.8821313  22.2650113  49.8553833  78.3151313
  21.6480113  50.3343833  78.3811313  27.7840113  52.7523833  75.8121313
  28.5110113  53.2243833  75.9141313  28.0130113  51.9583833  76.0921313
  27.9260113  52.7053833  75.8691313  25.9520113  53.1443833  77.8021313
  26.1660113  53.6713833  78.4641313  26.7190113  52.9703833  77.4231313
  26.0970113  53.1963833  77.8441313  18.9200113  37.7273833  83.4011313
  18.3990113  37.0993833  83.0931313  19.5110113  37.2903833  83.8721313
  18.9310113  37.5693833  83.4251313  17.3460113  51.2903833  78.7411313
  18.0020113  50.7153833  78.7561313  17.7350113  52.0393833  78.5201313
  17.5010113  51.3153833  78.7111313  33.0790113  40.3843833  80.0031313
  32.7330113  41.0623833  80.4291313  32.4430113  39.7863833  80.0191313
  32.9340113  40.3963833  80.0681313  28.3910113  53.1543833  86.1071313
  29.1350113  53.6103833  86.0971313  28.2700113  52.9403833  85.2701313
  28.4830113  53.1903833  85.9821313  18.1640113  49.7773833  82.2411313
  18.5870113  49.4213833  81.5671313  18.4880113  49.3553833  82.9331313
  18.2740113  49.6623833  82.2441313  21.3950113  52.6293833  81.5371313
  22.2390113  52.7333833  81.3421313  21.0980113  53.4473833  81.6051313
  21.4760113  52.7653833  81.5181313  25.2020113  42.0263833  79.6241313
  25.4890113  41.7943833  78.8341313  25.9340113  42.1053833  80.0931313
  25.3520113  42.0033833  79.5771313  25.9240113  42.3653833  74.7451313
  26.2050113  43.1533833  74.9941313  25.1480113  42.5303833  74.3821313
  25.8510113  42.5063833  74.7281313  29.9650113  54.3393833  76.2121313
  30.6300113  54.1913833  75.6671313  30.3250113  54.2563833  77.0021313
  30.1170113  54.3053833  76.2481313  20.3930113  53.8483833  87.2771313
  20.6850113  53.7813833  88.0971313  19.7670113  53.2433833  87.2321313
  20.3440113  53.7493833  87.3921313  32.7540113  38.7073833  85.3721313
  33.5110113  38.7793833  84.9441313  32.8170113  37.9343833  85.7711313
  32.8750113  38.6043833  85.3671313  24.7830113  50.5363833  74.5611313
  24.6020113  51.0813833  75.2181313  25.5490113  50.8263833  74.2601313
  24.8690113  50.6603833  74.6141313  28.2900113  38.4323833  75.6151313
  28.8300113  37.7503833  75.6911313  28.3520113  38.8303833  76.3891313
  28.3790113  38.3903833  75.7411313  16.2440113  39.6003833  78.1841313
  16.1300113  38.7363833  78.2151313  15.7690113  39.8943833  78.8541313
  16.1570113  39.5163833  78.2871313  18.3860113  52.0103833  86.3991313
  17.6880113  51.5023833  86.5251313  18.6460113  51.8053833  85.5911313
  18.3210113  51.9053833  86.2981313  25.5480113  40.8083833  76.9291313
  25.0400113  40.1463833  76.6751313  25.6000113  41.3123833  76.2191313
  25.4810113  40.7853833  76.7871313  26.0970113  53.5033833  87.3091313
  26.8650113  53.4233833  86.9031313  25.5140113  53.3823833  86.6711313
  26.1240113  53.4733833  87.1551313  25.5480113  37.7493833  76.8201313
  25.0930113  37.3473833  76.1941313  26.3210113  37.9043833  76.4451313
  25.5950113  37.7133833  76.6721313  32.3740113  54.1063833  80.2101313
  31.9190113  54.8233833  80.4111313  31.7600113  53.5353833  79.9681313
  32.2160113  54.1283833  80.2041313  24.1460113  40.1163833  81.3421313
  24.2200113  40.6843833  80.6841313  24.2670113  40.6083833  82.0521313
  24.1740113  40.2733833  81.3501313  29.3710113  49.9513833  79.7541313
  30.0720113  49.4693833  79.9431313  28.7110113  49.3823833  79.7991313
  29.3770113  49.7963833  79.7881313  18.7540113  35.9393833  79.6901313
  19.2900113  36.6273833  79.6801313  18.7570113  35.6653833  78.8621313
  18.8330113  36.0003833  79.5661313  21.7100113  46.3723833  83.7151313
  21.8820113  46.1623833  84.5441313  21.0550113  45.8383833  83.4991313
  21.6390113  46.2623833  83.8061313  27.9380113  40.2863833  87.2301313
  27.8430113  40.6053833  88.0361313  27.3450113  39.6473833  87.1921313
  27.8360113  40.2383833  87.3441313  22.4600113  46.3103833  86.3051313
  22.5130113  47.1573833  86.5071313  22.1750113  45.9403833  87.0421313
  22.4260113  46.3803833  86.4431313  28.6370113  47.0053833  85.4351313
  28.1230113  46.5933833  86.0061313  28.5110113  47.8493833  85.6161313
  28.5430113  47.0693833  85.5461313  29.1940113  36.2303833  80.0661313
  29.2430113  35.9123833  80.8771313  29.5170113  35.5863833  79.5731313
  29.2490113  36.0883833  80.1131313  19.2020113  39.7493833  81.3441313
  19.4740113  39.3193833  80.6361313  19.0260113  39.1133833  81.9151313
  19.2160113  39.5923833  81.3241313  31.8900113  47.4443833  75.5621313
  32.0090113  47.1573833  76.3771313  32.6970113  47.4653833  75.2321313
  32.0260113  47.4053833  75.6341313  19.0260113  47.1763833  80.8931313
  19.8770113  47.0963833  80.7201313  18.6690113  46.4943833  80.4811313
  19.0990113  47.0633833  80.8061313  17.7930113  53.9013833  82.1301313
  17.1200113  53.4033833  81.8851313  18.1960113  54.0863833  81.3791313
  17.7530113  53.8553833  81.9831313  17.3430113  40.8513833  84.4261313
  18.1860113  41.0713833  84.3831313  16.9540113  41.4243833  83.8951313
  17.4100113  40.9683833  84.3411313  29.7850113  43.9813833  75.1471313
  29.5650113  44.7123833  74.7251313  29.3370113  44.0323833  75.8941313
  29.6860113  44.0963833  75.1951313  21.3940113  47.1833833  79.1281313
  22.1070113  47.6783833  79.2181313  21.6160113  46.6163833  78.5021313
  21.5320113  47.1723833  79.0491313  33.9720113  38.8423833  74.6001313
  33.3100113  38.2743833  74.6231313  33.7790113  39.3543833  73.9201313
  33.8460113  38.8343833  74.5031313  15.5500113  48.8263833  82.4481313
  14.8830113  49.3143833  82.7241313  16.2300113  49.3713833  82.4771313
  15.5520113  48.9783833  82.4931313  34.2950113  43.2203833  87.1561313
  34.5100113  42.4203833  86.8801313  33.4450113  43.2803833  86.9671313
  34.2010113  43.1113833  87.0871313  15.6160113  45.5103833  77.5511313
  15.4310113  44.6713833  77.7031313  16.2750113  45.4743833  76.9811313
  15.6860113  45.3813833  77.4891313  31.9740113  38.4003833  76.8791313
  32.7200113  37.9933833  77.0781313  32.2370113  39.1153833  76.4541313
  32.1230113  38.4463833  76.8461313  25.9170113  50.8863833  81.4551313
  25.3940113  51.5203833  81.1621313  26.2270113  50.5223833  80.7261313
  25.8850113  50.9263833  81.3041313  15.7880113  49.6743833  77.1261313
  16.3400113  50.2433833  77.4901313  15.5560113  49.1593833  77.7911313
  15.8350113  49.6823833  77.2781313  19.9920113  48.6743833  84.2151313
  20.4590113  48.9633833  84.8931313  20.5640113  48.1963833  83.7611313
  20.1460113  48.6463833  84.2481313  28.4280113  40.6883833  81.9521313
  28.7720113  40.8403833  82.7391313  27.9750113  39.9503833  82.0651313
  28.4120113  40.6013833  82.0851313  15.6180113  48.1233833  74.7541313
  16.3740113  47.6913833  74.8121313  15.6330113  48.6553833  75.4451313
  15.7320113  48.1383833  74.8651313  16.5580113  46.3443833  82.7591313
  16.9890113  46.2153833  82.0121313  16.3530113  47.1923833  82.7331313
  16.5910113  46.4503833  82.6451313  22.9040113  39.9083833  76.4091313
  22.9020113  39.7913833  75.5441313  22.7230113  40.7563833  76.5011313
  22.8770113  40.0163833  76.2951313  31.9580113  52.3353833  87.9061313
  31.2870113  52.8493833  88.1241313  32.0210113  52.4353833  87.0421313
  31.8680113  52.4263833  87.8111313  20.6420113  49.8603833  81.0411313
  20.7680113  50.7033833  81.2281313  21.3100113  49.4613833  81.4371313
  20.7600113  49.9263833  81.1271313  19.2570113  42.7403833  76.0431313
  19.1290113  42.2923833  76.7811313  18.6750113  42.3983833  75.4911313
  19.1520113  42.6233833  76.0711313  19.4240113  44.5703833  82.6421313
  18.6430113  44.5113833  82.2591313  19.4960113  43.8183833  83.0791313
  19.3190113  44.4513833  82.6501313  19.8540113  44.3073833  86.1101313
  19.8790113  43.6323833  85.5591313  19.2080113  44.8033833  85.7981313
  19.7630113  44.2803833  85.9831313  29.7490113  42.0203833  84.5061313
  29.0870113  42.3483833  84.9691313  29.9360113  42.6543833  83.9371313
  29.6790113  42.1623833  84.4901313  23.9540113  53.0843833  85.5021313
  23.6770113  52.4433833  84.9791313  23.7460113  53.8103833  85.0641313
  23.8830113  53.0973833  85.3601313  26.3940113  37.9263833  87.9351313
  26.5430113  37.1013833  87.6921313  26.7730113  37.9813833  88.7191313
  26.4720113  37.8123833  88.0151313  27.9420113  39.9893833  78.0171313
  28.4320113  40.7063833  77.9401313  27.1520113  40.2503833  77.7541313
  27.8980113  40.1333833  77.9671313  24.5240113  41.4593833  83.7421313
  25.0040113  42.1583833  83.9501313  24.8970113  40.8123833  84.1931313
  24.6500113  41.4673833  83.8391313  26.7130113  44.6283833  76.0161313
  26.7050113  45.3503833  75.5261313  26.0740113  44.7633833  76.5931313
  26.6180113  44.7553833  76.0291313  31.6850113  48.4983833  79.9971313
  32.0410113  48.1483833  80.7121313  31.6770113  47.8373833  79.4271313
  31.7370113  48.3483833  80.0181313  27.7300113  51.5643833  83.8411313
  27.1270113  51.2683833  83.2841313  28.2750113  52.0163833  83.3321313
  27.7210113  51.5873833  83.6831313  27.7430113  48.4153833  83.2411313
  26.9460113  48.6393833  83.5151313  28.0010113  47.8213833  83.8261313
  27.6630113  48.3603833  83.3681313  21.6350113  53.2273833  77.6891313
  21.4880113  52.4513833  78.0601313  22.3240113  53.0803833  77.1741313
  21.7150113  53.0903833  77.6681313  21.3060113  36.9703833  75.6771313
  21.4030113  36.8633833  76.5381313  20.5980113  37.4763833  75.6121313
  21.2160113  37.0293833  75.7951313  23.9270113  52.7433833  76.0911313
  24.5490113  52.9063833  76.6811313  23.9630113  53.4343833  75.5591313
  24.0240113  52.8693833  76.1001313  31.0030113  46.4133833  88.0871313
  31.0580113  46.5383833  87.2251313  31.7560113  46.7333833  88.3891313
  31.1220113  46.4783833  88.0041313  18.4280113  45.2773833  76.9201313
  18.7520113  44.4983833  76.6981313  19.0740113  45.6453833  77.3751313
  18.5710113  45.2163833  76.9541313  26.7340113  46.2193833  87.6871313
  26.5790113  46.8293833  88.2911313  27.2680113  45.6613833  88.0931313
  26.7900113  46.2273833  87.8361313  15.4250113  36.9383833  77.8881313
  15.5540113  36.2303833  77.3961313  15.0580113  36.6203833  78.6131313
  15.3900113  36.7863833  77.9231313  25.1180113  44.6193833  78.3451313
  25.1770113  45.2693833  78.9241313  24.9290113  43.9233833  78.8361313
  25.0990113  44.6123833  78.5031313  30.3440113  48.9483833  84.2141313
  29.8650113  49.2463833  83.5481313  29.9880113  48.1723833  84.3921313
  30.2210113  48.8773833  84.1421313  19.6140113  39.1363833  74.8571313
  19.1030113  39.1893833  74.1511313  20.3980113  39.3763833  74.5611313
  19.6540113  39.1793833  74.7091313  24.3410113  46.6663833  82.7761313
  23.4940113  46.4723833  82.8571313  24.6650113  46.5013833  83.5691313
  24.2630113  46.6133833  82.9051313  21.0930113  53.3963833  73.6621313
  21.5320113  52.6993833  73.9501313  21.3000113  54.0203833  74.2351313
  21.1890113  53.3853833  73.7891313  18.1890113  46.3593833  85.0921313
  18.9110113  46.8473833  85.0551313  17.9190113  46.3293833  84.2631313
  18.2560113  46.4273833  84.9641313  21.4190113  41.5303833  81.8271313
  22.2650113  41.3403833  81.9251313  21.0490113  40.7533833  81.6891313
  21.4890113  41.3873833  81.8211313  34.0360113  53.1143833  76.1541313
  34.7300113  52.6473833  75.9061313  33.4970113  52.5163833  76.4911313
  34.0590113  52.9563833  76.1671313  16.2400113  42.8683833  78.4821313
  16.7290113  42.5763833  79.1431313  16.3690113  42.2753833  77.8551313
  16.3310113  42.7373833  78.4871313  31.2750113  45.8903833  85.3331313
  31.2680113  45.1143833  85.7311313  30.4340113  46.1243833  85.3261313
  31.1500113  45.8103833  85.3911313  20.7650113  44.3023833  73.9681313
  20.1550113  43.8973833  74.4421313  20.3790113  44.4203833  73.1951313
  20.6180113  44.2593833  73.9241313  32.5310113  45.9613833  82.7701313
  32.2450113  46.3623833  83.4901313  33.3910113  45.8993833  82.8971313
  32.6160113  46.0113833  82.8951313  22.2200113  42.7633833  76.6781313
  22.4920113  43.5893833  76.7451313  21.3570113  42.8383833  76.5821313
  22.1330113  42.8963833  76.6731313  15.7000113  38.7333833  83.2141313
  15.7440113  39.0773833  82.4131313  16.4550113  38.9703833  83.5811313
  15.8180113  38.8193833  83.1501313  33.6620113  51.5943833  83.2991313
  33.9520113  51.8513833  82.5181313  34.3570113  51.6903833  83.8181313
  33.8080113  51.6463833  83.2601313  30.2670113  50.1973833  75.2811313
  30.6010113  49.3913833  75.3161313  29.5120113  50.1253833  75.7111313
  30.2050113  50.0673833  75.3501313  30.7490113  42.0313833  80.9401313
  30.0040113  41.7083833  81.2581313  30.7510113  42.8573833  81.2201313
  30.6390113  42.1053833  81.0281313  33.1890113  47.9913833  88.6921313
  33.8170113  47.4423833  88.4361313  33.1280113  48.5563833  88.0301313
  33.2730113  47.9943833  88.5561313  27.6410113  48.0723833  74.6841313
  28.3250113  47.5583833  74.5151313  27.2240113  48.1183833  73.9191313
  27.6800113  48.0033833  74.5461313  22.3230113  49.2223833  85.9881313
  22.0250113  49.8143833  86.5551313  22.3780113  49.6643833  85.2391313
  22.2870113  49.3753833  85.9611313  29.6610113  38.3613833  88.4011313
  30.4050113  38.8133833  88.3381313  29.0950113  38.8313833  87.9321313
  29.6880113  38.4983833  88.3231313  24.8390113  45.6453833  85.4791313
  25.3150113  46.0193833  86.1071313  24.0160113  45.7793833  85.7381313
  24.7880113  45.7203833  85.6101313  21.5490113  41.2483833  88.2201313
  21.7100113  40.5043833  88.6471313  21.5040113  40.9993833  87.3851313
  21.5660113  41.1013833  88.1601313  24.1030113  53.0383833  80.7071313
  24.6490113  53.7173833  80.7611313  23.7530113  53.1203833  79.9121313
  24.1320113  53.1513833  80.5971313  30.9460113  36.3413833  86.0711313
  30.6660113  37.1663833  86.0271313  31.6620113  36.3943833  86.5671313
  31.0110113  36.4713833  86.1381313  23.3010113  37.0563833  88.1001313
  24.0060113  37.3763833  87.6981313  23.5420113  36.2493833  88.3271313
  23.4400113  36.9843833  88.0741313  22.2860113  51.2663833  84.0961313
  21.6620113  51.8483833  83.9141313  22.5340113  50.9803833  83.3101313
  22.2300113  51.3103833  83.9531313  32.3670113  42.5963833  74.9281313
  32.7450113  43.2733833  74.5281313  31.5250113  42.8203833  74.9591313
  32.2980113  42.7293833  74.8731313  23.8800113  46.0423833  74.0111313
  23.0750113  45.8653833  73.7261313  23.8470113  46.8933833  74.2031313
  23.7560113  46.1413833  73.9981313  19.8100113  42.1093833  84.1611313
  20.2500113  42.0063833  83.4151313  20.3550113  41.7963833  84.7661313
  19.9550113  42.0483833  84.1401313  27.5140113  42.7483833  86.0511313
  27.8160113  43.1683833  86.7541313  27.5500113  41.9083833  86.2831313
  27.5640113  42.6863833  86.1891313  30.0620113  42.1953833  78.3031313
  30.2690113  41.9943833  79.1271313  30.8180113  42.4633833  77.9611313
  30.2040113  42.2053833  78.3741313  23.3570113  37.0943833  84.2081313
  22.5310113  36.9453833  84.4451313  23.3170113  37.1293833  83.3371313
  23.2290113  37.0773833  84.1141313  31.0840113  38.2783833  79.7771313
  30.3700113  37.8073833  79.9481313  30.9220113  38.6193833  78.9911313
  30.9550113  38.2593833  79.6861313  31.5270113  46.2223833  78.1571313
  32.0030113  45.4933833  78.1091313  30.7060113  45.9363833  78.0811313
  31.4760113  46.0723833  78.1381313  20.8280113  54.3413833  84.3131313
  20.8390113  54.4003833  85.1831313  20.4030113  53.5943833  84.1631313
  20.7670113  54.2393833  84.4191313  18.9860113  40.2363833  77.4681313
  19.1120113  39.9073833  76.6701313  18.1740113  39.9873833  77.6671313
  18.8850113  40.1513833  77.3801313  27.7430113  47.3893833  80.5121313
  27.8190113  47.7303833  81.3111313  27.9120113  46.5423833  80.6331313
  27.7790113  47.3143833  80.6481313  25.2650113  46.6633833  80.0771313
  24.9670113  46.3483833  80.8341313  25.9600113  47.1363833  80.3121313
  25.3240113  46.6863833  80.2241313  25.4870113  50.7813833  88.1041313
  26.1740113  50.6673833  88.6291313  25.6210113  51.5723833  87.7601313
  25.6080113  50.8813833  88.1311313  28.1760113  44.0553833  88.4911313
  27.9210113  43.3363833  88.9131313  28.9970113  44.1713833  88.7611313
  28.2600113  43.9663833  88.5931313  29.1940113  53.6193833  82.6071313
  28.7430113  54.2623833  82.9861313  29.9020113  53.5403833  83.1121313
  29.2320113  53.7023833  82.7381313  25.8950113  48.7093833  85.5371313
  25.2010113  49.1113833  85.8801313  26.5720113  49.1423833  85.8761313
  25.8920113  48.8323833  85.6381313  18.9630113  42.2473833  87.8841313
  19.3380113  42.8663833  87.3971313  19.6370113  41.7733833  88.1691313
  19.1180113  42.2693833  87.8541313  16.7380113  40.6953833  87.1591313
  16.8150113  40.5263833  86.3061313  17.4840113  41.1013833  87.3561313
  16.8590113  40.7303833  87.0621313  32.2970113  43.3353833  77.5991313
  32.4000113  43.2773833  76.7351313  33.0380113  43.0033833  77.9171313
  32.4220113  43.2783833  77.5181313  26.2170113  50.3003833  78.7061313
  26.0120113  51.1333833  78.5471313  25.4420113  49.9183833  78.8281313
  26.0720113  50.3673833  78.7011313  31.3990113  43.4813833  86.9551313
  31.3970113  42.6183833  87.0791313  31.4660113  43.8053833  87.7621313
  31.4090113  43.4013833  87.0921313  16.1350113  45.9213833  87.3831313
  16.4550113  46.1403833  86.6021313  16.0350113  45.0563833  87.3281313
  16.1670113  45.8263833  87.2601313  17.5910113  41.8573833  74.0011313
  16.9190113  41.8713833  74.5571313  17.6860113  41.0093833  73.8171313
  17.5060113  41.7343833  74.0561313  26.2720113  38.4713833  81.5911313
  25.5720113  38.9893833  81.5351313  26.3100113  38.0913833  80.8071313
  26.1740113  38.4923833  81.4671313  21.5790113  50.5623833  75.1151313
  22.0200113  50.6423833  75.8631313  20.7740113  50.3463833  75.3731313
  21.5250113  50.5423833  75.2641313  29.8700113  38.9873833  84.3911313
  30.7250113  39.0863833  84.5361313  29.5010113  39.5403833  84.9561313
  29.9420113  39.0843833  84.4961313  20.8980113  45.2133833  88.7681313
  20.5020113  45.9873833  88.8431313  20.4920113  44.8403833  88.0921313
  20.7800113  45.2723833  88.6791313  30.1740113  44.2673833  82.8821313
  30.8400113  44.8083833  83.0421313  29.8290113  44.5783833  82.1431313
  30.2210113  44.3933833  82.7971313  30.4870113  52.3333833  78.6891313
  30.3130113  51.6793833  79.2391313  31.2000113  52.0623833  78.2661313
  30.5670113  52.1963833  78.7081313  18.9080113  49.6323833  75.7161313
  18.6640113  49.3253833  76.4961313  18.8750113  48.9293833  75.2001313
  18.8670113  49.4833833  75.7551313  21.7270113  47.8773833  74.4591313
  20.9090113  47.6093833  74.5991313  21.6990113  48.7293833  74.6441313
  21.6020113  47.9643833  74.5071313  21.3270113  38.1903833  86.2181313
  20.4630113  38.2743833  86.2981313  21.5470113  37.6763833  86.8871313
  21.2320113  38.1273833  86.3291313  33.3450113  36.8253833  87.5471313
  33.2930113  36.7813833  88.4171313  34.0320113  36.3223833  87.3571313
  33.4390113  36.7453833  87.6471313  25.4300113  38.9383833  84.5921313
  24.6930113  38.4843833  84.7051313  26.0010113  38.5363833  85.1151313
  25.4050113  38.8113833  84.6861313  28.1620113  49.7863833  86.3801313
  28.3680113  50.0873833  87.1721313  28.1010113  50.5083833  85.8951313
  28.1830113  49.9373833  86.4251313  23.7290113  36.5193833  74.4231313
  23.8070113  36.7663833  73.5901313  22.9860113  36.8963833  74.6811313
  23.6310113  36.6113833  74.3381313  32.9740113  48.4253833  85.8381313
  32.9420113  47.5633833  85.7031313  32.2810113  48.7273833  85.4041313
  32.8670113  48.3423833  85.7541313  31.0790113  51.6853833  84.6351313
  31.6060113  51.6023833  83.9441313  30.6880113  50.9073833  84.6891313
  31.0990113  51.5583833  84.5411313  18.5470113  38.2733833  86.8661313
  18.2040113  37.5063833  86.6321313  17.8520113  38.7973833  86.9301313
  18.3940113  38.2373833  86.8411313  27.5930113  37.1293833  83.8431313
  28.2630113  37.6733833  83.9701313  27.0900113  37.5533833  83.2701313
  27.6180113  37.2723833  83.7771313  26.9520113  42.9373833  81.3361313
  27.5030113  42.3303833  81.6361313  26.5270113  43.2003833  82.0511313
  26.9710113  42.8863833  81.4851313  17.2000113  41.5873833  80.8221313
  16.8320113  41.8893833  81.5531313  17.7340113  40.9583833  81.1061313
  17.2240113  41.5393833  80.9721313  16.8880113  49.9953833  88.3331313
  16.3140113  50.4113833  88.8421313  17.6210113  50.4603833  88.4281313
  16.9120113  50.1253833  88.4221313  28.9220113  44.7683833  77.8981313
  28.9900113  43.9183833  78.0791313  28.0990113  44.8543833  77.6201313
  28.8100113  44.6553833  77.8841313  18.6740113  53.2623833  77.1081313
  18.5290113  53.4183833  76.2621313  19.5400113  53.3413833  77.1861313
  18.7810113  53.2973833  76.9951313  22.8410113  45.6593833  76.8361313
  22.9410113  45.7983833  75.9811313  23.6590113  45.5993833  77.1321313
  22.9760113  45.6703833  76.7531313  32.0010113  53.7233833  74.3161313
  32.6380113  53.5893833  74.8971313  31.6600113  52.9293833  74.1991313
  32.0450113  53.5863833  74.3841313  28.0760113  49.9883833  76.6381313
  27.8250113  49.8603833  77.4641313  27.7590113  49.2933833  76.2171313
  27.9920113  49.8673833  76.6981313  32.7200113  41.6463833  84.7581313
  31.8870113  41.8963833  84.6861313  32.6640113  40.8063833  84.9871313
  32.5890113  41.5593833  84.7811313  19.3610113  52.0773833  83.5851313
  19.2820113  51.2673833  83.2691313  18.9170113  52.5643833  83.0131313
  19.2840113  52.0293833  83.4541313  24.9620113  48.1963833  76.0681313
  25.6790113  47.8493833  75.7121313  24.9280113  48.9963833  75.7201313
  25.0630113  48.2633833  75.9641313  16.9330113  54.3213833  87.1661313
  17.4260113  54.2653833  87.8841313  17.1210113  53.5883833  86.7311313
  17.0340113  54.2043833  87.2081313  26.3710113  36.8373833  60.3068903
  26.1260113  37.3253833  59.6268903  27.2340113  36.7643833  60.2068903
  26.4620113  36.8983833  60.1918903  26.1800113  43.7533833  64.9778903
  25.6560113  44.3493833  65.3408903  26.5770113  43.3853833  65.6618903
  26.1610113  43.7873833  65.1328903  16.0490113  47.8933833  60.4338903
  15.6080113  48.0113833  61.1768903  15.7660113  47.1183833  60.1488903
  15.9420113  47.7963833  60.5018903  32.3240113  51.1943833  57.9488903
  33.0250113  50.6753833  57.9448903  31.7370113  50.7493833  57.4798903
  32.3410113  51.0513833  57.8788903  18.9310113  46.9483833  55.6128903
  18.5390113  46.5773833  54.9268903  18.8510113  46.3503833  56.2418903
  18.8610113  46.8053833  55.6038903  28.8510113  44.8203833  61.6538903
  28.9310113  44.8243833  60.7848903  28.2670113  44.1883833  61.8028903
  28.7760113  44.7273833  61.5478903  18.5580113  48.5893833  59.5128903
  19.1660113  48.4193833  60.1158903  17.8070113  48.4493833  59.9338903
  18.5370113  48.5433833  59.6638903  22.8400113  37.9243833  59.4618903
  22.7700113  38.6013833  58.9158903  23.5810113  37.5363833  59.2128903
  22.9390113  37.9673833  59.3438903  17.4490113  51.6803833  55.5898903
  17.9160113  51.7643833  54.8578903  17.9040113  51.1023833  56.0588903
  17.5850113  51.6073833  55.5508903  15.9890113  50.6283833  66.6888903
  16.1180113  50.3483833  67.5048903  15.3790113  50.0873833  66.3798903
  15.9180113  50.5073833  66.7638903  22.5630113  48.1533833  71.7558903
  22.3270113  48.1503833  72.5958903  21.8150113  48.0053833  71.3318903
  22.4170113  48.1303833  71.8168903  17.4350113  45.1493833  60.8908903
  16.9730113  44.7573833  60.2638903  18.1350113  44.6363833  60.9828903
  17.4700113  45.0163833  60.8118903  21.9430113  40.7593833  66.2378903
  22.6210113  40.7773833  65.6888903  21.8980113  39.9233833  66.4828903
  22.0360113  40.6383833  66.1928903  22.5450113  51.3453833  69.0188903
  22.6830113  52.1053833  68.6118903  23.3360113  50.9803833  69.0458903
  22.6820113  51.4043833  68.9628903  19.4360113  43.2493833  60.9138903
  20.2530113  43.0623833  61.1568903  18.9590113  42.6353833  61.3098903
  19.4860113  43.1313833  61.0088903  23.6400113  49.2303833  63.5238903
  23.9880113  48.4313833  63.5538903  24.3050113  49.7343833  63.2688903
  23.7900113  49.1863833  63.4908903  23.6970113  48.6793833  59.7348903
  24.0280113  48.0353833  60.2208903  23.9370113  48.4683833  58.9238903
  23.7810113  48.5533833  59.6868903  25.6650113  42.8103833  71.0738903
  24.8170113  42.7113833  70.8958903  25.6940113  43.5553833  71.5278903
  25.5440113  42.9063833  71.1148903  20.0330113  38.3433833  60.1798903
  19.7370113  38.8443833  59.5298903  20.9000113  38.4213833  60.1228903
  20.1170113  38.4293833  60.0758903  30.2230113  35.7703833  70.1878903
  30.0650113  36.5393833  69.8058903  29.4510113  35.5503833  70.5318903
  30.0850113  35.8513833  70.1828903  23.0120113  37.4853833  62.4028903
  23.0850113  38.3453833  62.5318903  22.9740113  37.4103833  61.5348903
  23.0170113  37.6013833  62.2938903  27.6850113  40.4113833  54.7018903
  27.2350113  41.0923833  55.0088903  27.7990113  39.9073833  55.4048903
  27.6360113  40.4373833  54.8508903  15.8910113  42.9103833  63.9038903
  15.6350113  43.7413833  63.8288903  15.2270113  42.5273833  64.3208903
  15.7550113  42.9763833  63.9548903  15.8010113  52.6203833  61.8038903
  15.2090113  53.1783833  61.4908903  16.2270113  52.3513833  61.0918903
  15.7770113  52.6623833  61.6528903  21.6410113  50.4643833  59.2838903
  21.0620113  50.1893833  59.8758903  22.2650113  49.8553833  59.3088903
  21.6480113  50.3343833  59.3748903  27.7840113  52.7523833  56.8058903
  28.5110113  53.2243833  56.9078903  28.0130113  51.9583833  57.0858903
  27.9260113  52.7053833  56.8628903  25.9520113  53.1443833  58.7958903
  26.1660113  53.6713833  59.4578903  26.7190113  52.9703833  58.4168903
  26.0970113  53.1963833  58.8378903  18.9200113  37.7273833  64.3948903
  18.3990113  37.0993833  64.0868903  19.5110113  37.2903833  64.8658903
  18.9310113  37.5693833  64.4188903  22.2260113  39.8603833  73.6928903
  22.3430113  39.4063833  72.9568903  22.5140113  40.6583833  73.4898903
  22.2860113  39.9113833  73.5538903  17.3460113  51.2903833  59.7348903
  18.0020113  50.7153833  59.7498903  17.7350113  52.0393833  59.5138903
  17.5010113  51.3153833  59.7048903  33.0790113  40.3843833  60.9968903
  32.7330113  41.0623833  61.4228903  32.4430113  39.7863833  61.0128903
  32.9340113  40.3963833  61.0618903  28.3910113  53.1543833  67.1008903
  29.1350113  53.6103833  67.0908903  28.2700113  52.9403833  66.2638903
  28.4830113  53.1903833  66.9758903  17.9590113  39.4573833  72.6768903
  17.1810113  39.0673833  72.6048903  18.4500113  39.0453833  72.0858903
  17.9160113  39.3383833  72.5788903  18.1640113  49.7773833  63.2348903
  18.5870113  49.4213833  62.5608903  18.4880113  49.3553833  63.9268903
  18.2740113  49.6623833  63.2378903  21.3950113  52.6293833  62.5308903
  22.2390113  52.7333833  62.3358903  21.0980113  53.4473833  62.5988903
  21.4760113  52.7653833  62.5118903  24.6080113  37.1003833  71.8448903
  24.7860113  36.2913833  71.5698903  24.4650113  37.5413833  71.1058903
  24.6130113  37.0463833  71.6948903  25.2020113  42.0263833  60.6178903
  25.4890113  41.7943833  59.8278903  25.9340113  42.1053833  61.0868903
  25.3520113  42.0033833  60.5708903  25.9240113  42.3653833  55.7388903
  26.2050113  43.1533833  55.9878903  25.1480113  42.5303833  55.3758903
  25.8510113  42.5063833  55.7218903  29.9650113  54.3393833  57.2058903
  30.6300113  54.1913833  56.6608903  30.3250113  54.2563833  57.9958903
  30.1170113  54.3053833  57.2418903  20.3930113  53.8483833  68.2708903
  20.6850113  53.7813833  69.0908903  19.7670113  53.2433833  68.2258903
  20.3440113  53.7493833  68.3858903  32.7540113  38.7073833  66.3658903
  33.5110113  38.7793833  65.9378903  32.8170113  37.9343833  66.7648903
  32.8750113  38.6043833  66.3608903  15.3070113  40.0053833  70.2628903
  15.3030113  40.5923833  70.9088903  15.9010113  40.3173833  69.7058903
  15.3940113  40.1383833  70.2758903  27.6450113  50.3393833  70.8048903
  27.6110113  50.7213833  71.5888903  28.4990113  50.2973833  70.6338903
  27.7660113  50.3893833  70.8958903  24.7830113  50.5363833  55.5548903
  24.6020113  51.0813833  56.2118903  25.5490113  50.8263833  55.2538903
  24.8690113  50.6603833  55.6078903  18.3860113  52.0103833  67.3928903
  17.6880113  51.5023833  67.5188903  18.6460113  51.8053833  66.5848903
  18.3210113  51.9053833  67.2918903  25.5480113  40.8083833  57.9228903
  25.0400113  40.1463833  57.6688903  25.6000113  41.3123833  57.2128903
  25.4810113  40.7853833  57.7808903  26.0970113  53.5033833  68.3028903
  26.8650113  53.4233833  67.8968903  25.5140113  53.3823833  67.6648903
  26.1240113  53.4733833  68.1488903  25.5480113  37.7493833  57.8138903
  25.0930113  37.3473833  57.1878903  26.3210113  37.9043833  57.4388903
  25.5950113  37.7133833  57.6658903  32.3740113  54.1063833  61.2038903
  31.9190113  54.8233833  61.4048903  31.7600113  53.5353833  60.9618903
  32.2160113  54.1283833  61.1978903  24.1460113  40.1163833  62.3358903
  24.2200113  40.6843833  61.6778903  24.2670113  40.6083833  63.0458903
  24.1740113  40.2733833  62.3438903  29.3710113  49.9513833  60.7478903
  30.0720113  49.4693833  60.9368903  28.7110113  49.3823833  60.7928903
  29.3770113  49.7963833  60.7818903  19.7470113  50.8613833  69.9598903
  20.5880113  50.9243833  69.7378903  19.7100113  51.2583833  70.7358903
  19.8660113  50.9293833  70.0418903  18.7540113  35.9393833  60.6838903
  19.2900113  36.6273833  60.6738903  18.7570113  35.6653833  59.8558903
  18.8330113  36.0003833  60.5598903  21.7100113  46.3723833  64.7088903
  21.8820113  46.1623833  65.5378903  21.0550113  45.8383833  64.4928903
  21.6390113  46.2623833  64.7998903  27.9380113  40.2863833  68.2238903
  27.8430113  40.6053833  69.0298903  27.3450113  39.6473833  68.1858903
  27.8360113  40.2383833  68.3378903  22.4600113  46.3103833  67.2988903
  22.5130113  47.1573833  67.5008903  22.1750113  45.9403833  68.0358903
  22.4260113  46.3803833  67.4368903  28.6370113  47.0053833  66.4288903
  28.1230113  46.5933833  66.9998903  28.5110113  47.8493833  66.6098903
  28.5430113  47.0693833  66.5398903  15.2810113  50.6813833  73.5098903
  16.0370113  51.0303833  73.7678903  15.4580113  49.8283833  73.4528903
  15.4190113  50.6063833  73.5398903  31.6580113  40.4663833  69.3678903
  32.4300113  40.2413833  69.7048903  31.1830113  40.6833833  70.0678903
  31.7020113  40.4653833  69.5208903  19.2020113  39.7493833  62.3378903
  19.4740113  39.3193833  61.6298903  19.0260113  39.1133833  62.9088903
  19.2160113  39.5923833  62.3178903  31.8900113  47.4443833  56.5558903
  32.0090113  47.1573833  57.3708903  32.6970113  47.4653833  56.2258903
  32.0260113  47.4053833  56.6278903  19.0260113  47.1763833  61.8868903
  19.8770113  47.0963833  61.7138903  18.6690113  46.4943833  61.4748903
  19.0990113  47.0633833  61.7998903  17.7930113  53.9013833  63.1238903
  17.1200113  53.4033833  62.8788903  18.1960113  54.0863833  62.3728903
  17.7530113  53.8553833  62.9768903  17.3430113  40.8513833  65.4198903
  18.1860113  41.0713833  65.3768903  16.9540113  41.4243833  64.8888903
  17.4100113  40.9683833  65.3348903  34.1240113  51.9533833  70.8098903
  33.4420113  52.2633833  70.3628903  33.7550113  51.4953833  71.4548903
  33.9680113  51.9313833  70.8388903  29.7850113  43.9813833  56.1408903
  29.5650113  44.7123833  55.7188903  29.3370113  44.0323833  56.8878903
  29.6860113  44.0963833  56.1888903  21.3940113  47.1833833  60.1218903
  22.1070113  47.6783833  60.2118903  21.6160113  46.6163833  59.4958903
  21.5320113  47.1723833  60.0428903  15.5500113  48.8263833  63.4418903
  14.8830113  49.3143833  63.7178903  16.2300113  49.3713833  63.4708903
  15.5520113  48.9783833  63.4868903  23.1970113  42.5363833  73.5378903
  22.7130113  43.1133833  73.9798903  23.1690113  42.8313833  72.7168903
  23.1210113  42.6653833  73.4818903  34.2950113  43.2203833  68.1498903
  34.5100113  42.4203833  67.8738903  33.4450113  43.2803833  67.9608903
  34.2010113  43.1113833  68.0808903  15.6160113  45.5103833  58.5448903
  15.4310113  44.6713833  58.6968903  16.2750113  45.4743833  57.9748903
  15.6860113  45.3813833  58.4828903  25.9170113  50.8863833  62.4488903
  25.3940113  51.5203833  62.1558903  26.2270113  50.5223833  61.7198903
  25.8850113  50.9263833  62.2978903  15.7880113  49.6743833  58.1198903
  16.3400113  50.2433833  58.4838903  15.5560113  49.1593833  58.7848903
  15.8350113  49.6823833  58.2718903  19.9920113  48.6743833  65.2088903
  20.4590113  48.9633833  65.8868903  20.5640113  48.1963833  64.7548903
  20.1460113  48.6463833  65.2418903  28.4280113  40.6883833  62.9458903
  28.7720113  40.8403833  63.7328903  27.9750113  39.9503833  63.0588903
  28.4120113  40.6013833  63.0788903  15.6180113  48.1233833  55.7478903
  16.3740113  47.6913833  55.8058903  15.6330113  48.6553833  56.4388903
  15.7320113  48.1383833  55.8588903  16.5580113  46.3443833  63.7528903
  16.9890113  46.2153833  63.0058903  16.3530113  47.1923833  63.7268903
  16.5910113  46.4503833  63.6388903  22.9040113  39.9083833  57.4028903
  22.9020113  39.7913833  56.5378903  22.7230113  40.7563833  57.4948903
  22.8770113  40.0163833  57.2888903  31.9580113  52.3353833  68.8998903
  31.2870113  52.8493833  69.1178903  32.0210113  52.4353833  68.0358903
  31.8680113  52.4263833  68.8048903  20.6420113  49.8603833  62.0348903
  20.7680113  50.7033833  62.2218903  21.3100113  49.4613833  62.4308903
  20.7600113  49.9263833  62.1208903  18.7720113  43.3433833  71.8968903
  18.2360113  42.8373833  72.3648903  18.7920113  42.9533833  71.1168903
  18.6950113  43.2103833  71.8508903  19.2570113  42.7403833  57.0368903
  19.1290113  42.2923833  57.7748903  18.6750113  42.3983833  56.4848903
  19.1520113  42.6233833  57.0648903  19.4240113  44.5703833  63.6358903
  18.6430113  44.5113833  63.2528903  19.4960113  43.8183833  64.0728903
  19.3190113  44.4513833  63.6438903  19.8540113  44.3073833  67.1038903
  19.8790113  43.6323833  66.5528903  19.2080113  44.8033833  66.7918903
  19.7630113  44.2803833  66.9768903  29.7490113  42.0203833  65.4998903
  29.0870113  42.3483833  65.9628903  29.9360113  42.6543833  64.9308903
  29.6790113  42.1623833  65.4838903  23.9540113  53.0843833  66.4958903
  23.6770113  52.4433833  65.9728903  23.7460113  53.8103833  66.0578903
  23.8830113  53.0973833  66.3538903  26.3940113  37.9263833  68.9288903
  26.5430113  37.1013833  68.6858903  26.7730113  37.9813833  69.7128903
  26.4720113  37.8123833  69.0088903  27.9420113  39.9893833  59.0108903
  28.4320113  40.7063833  58.9338903  27.1520113  40.2503833  58.7478903
  27.8980113  40.1333833  58.9608903  17.6530113  45.6623833  72.6628903
  17.6160113  46.1633833  71.9488903  17.9840113  44.9103833  72.3678903
  17.6960113  45.6243833  72.5138903  29.2560113  47.8673833  70.9208903
  29.7400113  48.5853833  71.0188903  29.6500113  47.4403833  70.2698903
  29.3860113  47.9103833  70.8388903  23.5520113  50.7123833  72.0978903
  23.9060113  50.5343833  72.8748903  23.1160113  49.9833833  71.8988903
  23.5400113  50.5783833  72.1838903  24.5240113  41.4593833  64.7358903
  25.0040113  42.1583833  64.9438903  24.8970113  40.8123833  65.1868903
  24.6500113  41.4673833  64.8328903  26.7130113  44.6283833  57.0098903
  26.7050113  45.3503833  56.5198903  26.0740113  44.7633833  57.5868903
  26.6180113  44.7553833  57.0228903  31.6850113  48.4983833  60.9908903
  32.0410113  48.1483833  61.7058903  31.6770113  47.8373833  60.4208903
  31.7370113  48.3483833  61.0118903  27.7300113  51.5643833  64.8348903
  27.1270113  51.2683833  64.2778903  28.2750113  52.0163833  64.3258903
  27.7210113  51.5873833  64.6768903  27.7430113  48.4153833  64.2348903
  26.9460113  48.6393833  64.5088903  28.0010113  47.8213833  64.8198903
  27.6630113  48.3603833  64.3618903  21.6350113  53.2273833  58.6828903
  21.4880113  52.4513833  59.0538903  22.3240113  53.0803833  58.1678903
  21.7150113  53.0903833  58.6618903  21.3060113  36.9703833  56.6708903
  21.4030113  36.8633833  57.5318903  20.5980113  37.4763833  56.6058903
  21.2160113  37.0293833  56.7888903  23.9270113  52.7433833  57.0848903
  24.5490113  52.9063833  57.6748903  23.9630113  53.4343833  56.5528903
  24.0240113  52.8693833  57.0938903  31.0030113  46.4133833  69.0808903
  31.0580113  46.5383833  68.2188903  31.7560113  46.7333833  69.3828903
  31.1220113  46.4783833  68.9978903  27.1940113  51.7623833  73.3578903
  27.3580113  52.0453833  74.1668903  27.4570113  52.4233833  72.8528903
  27.2570113  51.9023833  73.4028903  32.0350113  36.7113833  72.0678903
  31.3980113  36.3113833  71.6258903  32.0610113  36.2803833  72.8258903
  31.9450113  36.5893833  72.1138903  18.4280113  45.2773833  57.9138903
  18.7520113  44.4983833  57.6918903  19.0740113  45.6453833  58.3688903
  18.5710113  45.2163833  57.9478903  26.7340113  46.2193833  68.6808903
  26.5790113  46.8293833  69.2848903  27.2680113  45.6613833  69.0868903
  26.7900113  46.2273833  68.8298903  15.4250113  36.9383833  58.8818903
  15.5540113  36.2303833  58.3898903  15.0580113  36.6203833  59.6068903
  15.3900113  36.7863833  58.9168903  25.1180113  44.6193833  59.3388903
  25.1770113  45.2693833  59.9178903  24.9290113  43.9233833  59.8298903
  25.0990113  44.6123833  59.4968903  30.3440113  48.9483833  65.2078903
  29.8650113  49.2463833  64.5418903  29.9880113  48.1723833  65.3858903
  30.2210113  48.8773833  65.1358903  19.6140113  39.1363833  55.8508903
  19.1030113  39.1893833  55.1448903  20.3980113  39.3763833  55.5548903
  19.6540113  39.1793833  55.7028903  24.3410113  46.6663833  63.7698903
  23.4940113  46.4723833  63.8508903  24.6650113  46.5013833  64.5628903
  24.2630113  46.6133833  63.8988903  21.0930113  53.3963833  54.6558903
  21.5320113  52.6993833  54.9438903  21.3000113  54.0203833  55.2288903
  21.1890113  53.3853833  54.7828903  18.1890113  46.3593833  66.0858903
  18.9110113  46.8473833  66.0488903  17.9190113  46.3293833  65.2568903
  18.2560113  46.4273833  65.9578903  21.4190113  41.5303833  62.8208903
  22.2650113  41.3403833  62.9188903  21.0490113  40.7533833  62.6828903
  21.4890113  41.3873833  62.8148903  34.0360113  53.1143833  57.1478903
  34.7300113  52.6473833  56.8998903  33.4970113  52.5163833  57.4848903
  34.0590113  52.9563833  57.1608903  16.2400113  42.8683833  59.4758903
  16.7290113  42.5763833  60.1368903  16.3690113  42.2753833  58.8488903
  16.3310113  42.7373833  59.4808903  31.2750113  45.8903833  66.3268903
  31.2680113  45.1143833  66.7248903  30.4340113  46.1243833  66.3198903
  31.1500113  45.8103833  66.3848903  20.7650113  44.3023833  54.9618903
  20.1550113  43.8973833  55.4358903  20.3790113  44.4203833  54.1888903
  20.6180113  44.2593833  54.9178903  17.5840113  47.4113833  70.3638903
  17.1630113  46.8933833  69.8028903  17.2320113  48.1973833  70.2208903
  17.4700113  47.4513833  70.2598903  32.5310113  45.9613833  63.7638903
  32.2450113  46.3623833  64.4838903  33.3910113  45.8993833  63.8908903
  32.6160113  46.0113833  63.8888903  22.2200113  42.7633833  57.6718903
  22.4920113  43.5893833  57.7388903  21.3570113  42.8383833  57.5758903
  22.1330113  42.8963833  57.6668903  30.1930113  39.8853833  72.3038903
  29.6680113  40.3443833  72.8278903  29.8320113  39.0903833  72.2978903
  30.0620113  39.8353833  72.3798903  15.7000113  38.7333833  64.2078903
  15.7440113  39.0773833  63.4068903  16.4550113  38.9703833  64.5748903
  15.8180113  38.8193833  64.1438903  33.6620113  51.5943833  64.2928903
  33.9520113  51.8513833  63.5118903  34.3570113  51.6903833  64.8118903
  33.8080113  51.6463833  64.2538903  28.6850113  43.4543833  72.3798903
  28.7580113  43.5583833  73.2428903  28.0510113  44.0123833  72.1588903
  28.6020113  43.5523833  72.4748903  30.9530113  43.7733833  70.7448903
  31.2720113  44.5593833  70.9478903  30.5830113  43.5033833  71.4878903
  30.9460113  43.8493833  70.8848903  30.2670113  50.1973833  56.2748903
  30.6010113  49.3913833  56.3098903  29.5120113  50.1253833  56.7048903
  30.2050113  50.0673833  56.3438903  30.7490113  42.0313833  61.9338903
  30.0040113  41.7083833  62.2518903  30.7510113  42.8573833  62.2138903
  30.6390113  42.1053833  62.0218903  33.6510113  44.3153833  73.4798903
  33.5990113  43.9743833  72.6788903  34.3880113  44.7823833  73.4578903
  33.7520113  44.3343833  73.3578903  33.1890113  47.9913833  69.6858903
  33.8170113  47.4423833  69.4298903  33.1280113  48.5563833  69.0238903
  33.2730113  47.9943833  69.5498903  27.6410113  48.0723833  55.6778903
  28.3250113  47.5583833  55.5088903  27.2240113  48.1183833  54.9128903
  27.6800113  48.0033833  55.5398903  22.3230113  49.2223833  66.9818903
  22.0250113  49.8143833  67.5488903  22.3780113  49.6643833  66.2328903
  22.2870113  49.3753833  66.9548903  20.3020113  48.1723833  70.3798903
  19.4960113  47.8823833  70.5468903  20.2130113  49.0403833  70.3858903
  20.1700113  48.2573833  70.4048903  29.6610113  38.3613833  69.3948903
  30.4050113  38.8133833  69.3318903  29.0950113  38.8313833  68.9258903
  29.6880113  38.4983833  69.3168903  24.8390113  45.6453833  66.4728903
  25.3150113  46.0193833  67.1008903  24.0160113  45.7793833  66.7318903
  24.7880113  45.7203833  66.6038903  21.5490113  41.2483833  69.2138903
  21.7100113  40.5043833  69.6408903  21.5040113  40.9993833  68.3788903
  21.5660113  41.1013833  69.1538903  24.1030113  53.0383833  61.7008903
  24.6490113  53.7173833  61.7548903  23.7530113  53.1203833  60.9058903
  24.1320113  53.1513833  61.5908903  30.9460113  36.3413833  67.0648903
  30.6660113  37.1663833  67.0208903  31.6620113  36.3943833  67.5608903
  31.0110113  36.4713833  67.1318903  23.3010113  37.0563833  69.0938903
  24.0060113  37.3763833  68.6918903  23.5420113  36.2493833  69.3208903
  23.4400113  36.9843833  69.0678903  22.2860113  51.2663833  65.0898903
  21.6620113  51.8483833  64.9078903  22.5340113  50.9803833  64.3038903
  22.2300113  51.3103833  64.9468903  26.5950113  47.9003833  72.0788903
  27.3520113  48.1863833  71.7528903  26.0480113  47.9523833  71.4008903
  26.6260113  47.9503833  71.9298903  30.5040113  50.4503833  70.5828903
  30.8500113  50.7203833  71.3368903  30.7980113  51.0323833  70.0028903
  30.5990113  50.5763833  70.6088903  32.3670113  42.5963833  55.9218903
  32.7450113  43.2733833  55.5218903  31.5250113  42.8203833  55.9528903
  32.2980113  42.7293833  55.8668903  23.8800113  46.0423833  55.0048903
  23.0750113  45.8653833  54.7198903  23.8470113  46.8933833  55.1968903
  23.7560113  46.1413833  54.9918903  19.8100113  42.1093833  65.1548903
  20.2500113  42.0063833  64.4088903  20.3550113  41.7963833  65.7598903
  19.9550113  42.0483833  65.1338903  27.8260113  41.2113833  70.7468903
  27.1780113  41.6813833  71.0948903  28.3910113  41.1223833  71.4058903
  27.8140113  41.2673833  70.8958903  27.5140113  42.7483833  67.0448903
  27.8160113  43.1683833  67.7478903  27.5500113  41.9083833  67.2768903
  27.5640113  42.6863833  67.1828903  24.9390113  52.9153833  70.9698903
  25.4170113  52.3153833  70.5538903  24.5880113  52.4723833  71.6348903
  24.9580113  52.7613833  71.0068903  30.0620113  42.1953833  59.2968903
  30.2690113  41.9943833  60.1208903  30.8180113  42.4633833  58.9548903
  30.2040113  42.2053833  59.3678903  23.3570113  37.0943833  65.2018903
  22.5310113  36.9453833  65.4388903  23.3170113  37.1293833  64.3308903
  23.2290113  37.0773833  65.1078903  31.5270113  46.2223833  59.1508903
  32.0030113  45.4933833  59.1028903  30.7060113  45.9363833  59.0748903
  31.4760113  46.0723833  59.1318903  24.9980113  48.1343833  69.9898903
  24.2030113  48.0703833  70.3408903  25.0690113  48.9813833  69.7948903
  24.8910113  48.2493833  70.0128903  15.9220113  37.4923833  71.2368903
  15.7820113  38.2873833  70.9058903  15.1360113  37.2493833  71.5258903
  15.7850113  37.5743833  71.2308903  20.8280113  54.3413833  65.3068903
  20.8390113  54.4003833  66.1768903  20.4030113  53.5943833  65.1568903
  20.7670113  54.2393833  65.4128903  18.9860113  40.2363833  58.4618903
  19.1120113  39.9073833  57.6638903  18.1740113  39.9873833  58.6608903
  18.8850113  40.1513833  58.3738903  27.7430113  47.3893833  61.5058903
  27.8190113  47.7303833  62.3048903  27.9120113  46.5423833  61.6268903
  27.7790113  47.3143833  61.6418903  25.2650113  46.6633833  61.0708903
  24.9670113  46.3483833  61.8278903  25.9600113  47.1363833  61.3058903
  25.3240113  46.6863833  61.2178903  25.4870113  50.7813833  69.0978903
  26.1740113  50.6673833  69.6228903  25.6210113  51.5723833  68.7538903
  25.6080113  50.8813833  69.1248903  33.6630113  43.3903833  70.9088903
  32.8080113  43.2683833  71.0348903  33.8160113  42.9953833  70.1458903
  33.5590113  43.3133833  70.8148903  28.1760113  44.0553833  69.4848903
  27.9210113  43.3363833  69.9068903  28.9970113  44.1713833  69.7548903
  28.2600113  43.9663833  69.5868903  17.5920113  53.8393833  70.7488903
  16.9380113  53.2703833  70.8468903  17.2170113  54.6123833  70.8998903
  17.4400113  53.8693833  70.7858903  26.1100113  45.2453833  72.6718903
  26.4330113  45.9313833  72.2398903  25.4060113  45.5683833  73.0738903
  26.0530113  45.3943833  72.6668903  29.1940113  53.6193833  63.6008903
  28.7430113  54.2623833  63.9798903  29.9020113  53.5403833  64.1058903
  29.2320113  53.7023833  63.7318903  25.8950113  48.7093833  66.5308903
  25.2010113  49.1113833  66.8738903  26.5720113  49.1423833  66.8698903
  25.8920113  48.8323833  66.6318903  31.2720113  51.3023833  73.1108903
  32.0480113  50.9123833  73.1938903  30.8030113  50.9663833  73.7658903
  31.3170113  51.1953833  73.2198903  18.9630113  42.2473833  68.8778903
  19.3380113  42.8663833  68.3908903  19.6370113  41.7733833  69.1628903
  19.1180113  42.2693833  68.8478903  16.7380113  40.6953833  68.1528903
  16.8150113  40.5263833  67.2998903  17.4840113  41.1013833  68.3498903
  16.8590113  40.7303833  68.0558903  32.2970113  43.3353833  58.5928903
  32.4000113  43.2773833  57.7288903  33.0380113  43.0033833  58.9108903
  32.4220113  43.2783833  58.5118903  19.2920113  38.1053833  70.5638903
  19.2110113  37.2613833  70.7698903  18.9780113  38.1493833  69.7508903
  19.2340113  37.9873833  70.4738903  26.2170113  50.3003833  59.6998903
  26.0120113  51.1333833  59.5408903  25.4420113  49.9183833  59.8218903
  26.0720113  50.3673833  59.6948903  31.3990113  43.4813833  67.9488903
  31.3970113  42.6183833  68.0728903  31.4660113  43.8053833  68.7558903
  31.4090113  43.4013833  68.0858903  16.1350113  45.9213833  68.3768903
  16.4550113  46.1403833  67.5958903  16.0350113  45.0563833  68.3218903
  16.1670113  45.8263833  68.2538903  17.5910113  41.8573833  54.9948903
  16.9190113  41.8713833  55.5508903  17.6860113  41.0093833  54.8108903
  17.5060113  41.7343833  55.0498903  27.2780113  38.2813833  71.7308903
  27.3700113  38.9933833  72.2248903  26.6410113  37.8363833  72.1278903
  27.1970113  38.3203833  71.8628903  26.2720113  38.4713833  62.5848903
  25.5720113  38.9893833  62.5288903  26.3100113  38.0913833  61.8008903
  26.1740113  38.4923833  62.4608903  21.5790113  50.5623833  56.1088903
  22.0200113  50.6423833  56.8568903  20.7740113  50.3463833  56.3668903
  21.5250113  50.5423833  56.2578903  29.8700113  38.9873833  65.3848903
  30.7250113  39.0863833  65.5298903  29.5010113  39.5403833  65.9498903
  29.9420113  39.0843833  65.4898903  20.8980113  45.2133833  69.7618903
  20.5020113  45.9873833  69.8368903  20.4920113  44.8403833  69.0858903
  20.7800113  45.2723833  69.6728903  30.1740113  44.2673833  63.8758903
  30.8400113  44.8083833  64.0358903  29.8290113  44.5783833  63.1368903
  30.2210113  44.3933833  63.7908903  30.4870113  52.3333833  59.6828903
  30.3130113  51.6793833  60.2328903  31.2000113  52.0623833  59.2598903
  30.5670113  52.1963833  59.7018903  18.9080113  49.6323833  56.7098903
  18.6640113  49.3253833  57.4898903  18.8750113  48.9293833  56.1938903
  18.8670113  49.4833833  56.7488903  21.7270113  47.8773833  55.4528903
  20.9090113  47.6093833  55.5928903  21.6990113  48.7293833  55.6378903
  21.6020113  47.9643833  55.5008903  21.3270113  38.1903833  67.2118903
  20.4630113  38.2743833  67.2918903  21.5470113  37.6763833  67.8808903
  21.2320113  38.1273833  67.3228903  33.3450113  36.8253833  68.5408903
  33.2930113  36.7813833  69.4108903  34.0320113  36.3223833  68.3508903
  33.4390113  36.7453833  68.6408903  25.4300113  38.9383833  65.5858903
  24.6930113  38.4843833  65.6988903  26.0010113  38.5363833  66.1088903
  25.4050113  38.8113833  65.6798903  28.1620113  49.7863833  67.3738903
  28.3680113  50.0873833  68.1658903  28.1010113  50.5083833  66.8888903
  28.1830113  49.9373833  67.4188903  27.6960113  54.0003833  71.6198903
  26.9430113  53.9823833  71.1788903  27.8640113  54.8523833  71.7038903
  27.6100113  54.1233833  71.5668903  22.9330113  43.2673833  70.7898903
  22.6110113  42.6913833  70.2198903  22.5740113  44.0223833  70.5438903
  22.8330113  43.2933833  70.6698903  23.7290113  36.5193833  55.4168903
  23.8070113  36.7663833  54.5838903  22.9860113  36.8963833  55.6748903
  23.6310113  36.6113833  55.3318903  32.9740113  48.4253833  66.8318903
  32.9420113  47.5633833  66.6968903  32.2810113  48.7273833  66.3978903
  32.8670113  48.3423833  66.7478903  21.3680113  53.6233833  71.0378903
  21.4090113  53.7493833  71.9008903  22.0190113  53.0633833  70.8818903
  21.4700113  53.5593833  71.1428903  31.0790113  51.6853833  65.6288903
  31.6060113  51.6023833  64.9378903  30.6880113  50.9073833  65.6828903
  31.0990113  51.5583833  65.5348903  18.5470113  38.2733833  67.8598903
  18.2040113  37.5063833  67.6258903  17.8520113  38.7973833  67.9238903
  18.3940113  38.2373833  67.8348903  27.5930113  37.1293833  64.8368903
  28.2630113  37.6733833  64.9638903  27.0900113  37.5533833  64.2638903
  27.6180113  37.2723833  64.7708903  18.9610113  52.0063833  72.3978903
  19.5560113  52.4373833  72.8698903  18.5970113  52.6303833  71.9088903
  18.9950113  52.1623833  72.3948903  26.9520113  42.9373833  62.3298903
  27.5030113  42.3303833  62.6298903  26.5270113  43.2003833  63.0448903
  26.9710113  42.8863833  62.4788903  17.2000113  41.5873833  61.8158903
  16.8320113  41.8893833  62.5468903  17.7340113  40.9583833  62.0998903
  17.2240113  41.5393833  61.9658903  16.8880113  49.9953833  69.3268903
  16.3140113  50.4113833  69.8358903  17.6210113  50.4603833  69.4218903
  16.9120113  50.1253833  69.4158903  28.9220113  44.7683833  58.8918903
  28.9900113  43.9183833  59.0728903  28.0990113  44.8543833  58.6138903
  28.8100113  44.6553833  58.8778903  18.6740113  53.2623833  58.1018903
  18.5290113  53.4183833  57.2558903  19.5400113  53.3413833  58.1798903
  18.7810113  53.2973833  57.9888903  22.8410113  45.6593833  57.8298903
  22.9410113  45.7983833  56.9748903  23.6590113  45.5993833  58.1258903
  22.9760113  45.6703833  57.7468903  32.0010113  53.7233833  55.3098903
  32.6380113  53.5893833  55.8908903  31.6600113  52.9293833  55.1928903
  32.0450113  53.5863833  55.3778903  32.1960113  46.1413833  72.0428903
  32.8300113  45.9713833  72.6168903  32.6130113  46.5443833  71.3908903
  32.3510113  46.1763833  72.0318903  28.0760113  49.9883833  57.6318903
  27.8250113  49.8603833  58.4578903  27.7590113  49.2933833  57.2108903
  27.9920113  49.8673833  57.6918903  32.8210113  40.7053833  72.7808903
  32.6250113  41.3493833  73.3358903  32.0990113  40.2153833  72.7728903
  32.6860113  40.7283833  72.8618903  32.7200113  41.6463833  65.7518903
  31.8870113  41.8963833  65.6798903  32.6640113  40.8063833  65.9808903
  32.5890113  41.5593833  65.7748903  21.9800113  38.6343833  70.9458903
  22.2140113  38.0583833  70.3328903  21.1380113  38.4533833  71.0868903
  21.8900113  38.5223833  70.8758903  29.6070113  46.2523833  73.3978903
  30.4780113  46.2163833  73.3618903  29.3880113  46.6723833  72.6658903
  29.7040113  46.3083833  73.2848903  19.3610113  52.0773833  64.5788903
  19.2820113  51.2673833  64.2628903  18.9170113  52.5643833  64.0068903
  19.2840113  52.0293833  64.4478903  24.9620113  48.1963833  57.0618903
  25.6790113  47.8493833  56.7058903  24.9280113  48.9963833  56.7138903
  25.0630113  48.2633833  56.9578903  16.9330113  54.3213833  68.1598903
  17.4260113  54.2653833  68.8778903  17.1210113  53.5883833  67.7248903
  17.0340113  54.2043833  68.2018903  16.0490113  47.8933833  41.4276493
  15.6080113  48.0113833  42.1706493  15.7660113  47.1183833  41.1426493
  15.9420113  47.7963833  41.4956493  32.3240113  51.1943833  38.9426493
  33.0250113  50.6753833  38.9386493  31.7370113  50.7493833  38.4736493
  32.3410113  51.0513833  38.8726493  15.7920113  41.6853833  37.9346493
  15.0140113  41.8473833  37.5746493  15.8310113  40.8143833  37.9566493
  15.6830113  41.5803833  37.8846493  18.9310113  46.9483833  36.6066493
  18.5390113  46.5773833  35.9206493  18.8510113  46.3503833  37.2356493
  18.8610113  46.8053833  36.5976493  18.5580113  48.5893833  40.5066493
  19.1660113  48.4193833  41.1096493  17.8070113  48.4493833  40.9276493
  18.5370113  48.5433833  40.6576493  22.8400113  37.9243833  40.4556493
  22.7700113  38.6013833  39.9096493  23.5810113  37.5363833  40.2066493
  22.9390113  37.9673833  40.3376493  17.4490113  51.6803833  36.5836493
  17.9160113  51.7643833  35.8516493  17.9040113  51.1023833  37.0526493
  17.5850113  51.6073833  36.5446493  15.9890113  50.6283833  47.6826493
  16.1180113  50.3483833  48.4986493  15.3790113  50.0873833  47.3736493
  15.9180113  50.5073833  47.7576493  22.5630113  48.1533833  52.7496493
  22.3270113  48.1503833  53.5896493  21.8150113  48.0053833  52.3256493
  22.4170113  48.1303833  52.8106493  17.4350113  45.1493833  41.8846493
  16.9730113  44.7573833  41.2576493  18.1350113  44.6363833  41.9766493
  17.4700113  45.0163833  41.8056493  22.5450113  51.3453833  50.0126493
  22.6830113  52.1053833  49.6056493  23.3360113  50.9803833  50.0396493
  22.6820113  51.4043833  49.9566493  19.4360113  43.2493833  41.9076493
  20.2530113  43.0623833  42.1506493  18.9590113  42.6353833  42.3036493
  19.4860113  43.1313833  42.0026493  23.6970113  48.6793833  40.7286493
  24.0280113  48.0353833  41.2146493  23.9370113  48.4683833  39.9176493
  23.7810113  48.5533833  40.6806493  20.0330113  38.3433833  41.1736493
  19.7370113  38.8443833  40.5236493  20.9000113  38.4213833  41.1166493
  20.1170113  38.4293833  41.0696493  23.0120113  37.4853833  43.3966493
  23.0850113  38.3453833  43.5256493  22.9740113  37.4103833  42.5286493
  23.0170113  37.6013833  43.2876493  15.8910113  42.9103833  44.8976493
  15.6350113  43.7413833  44.8226493  15.2270113  42.5273833  45.3146493
  15.7550113  42.9763833  44.9486493  15.8010113  52.6203833  42.7976493
  15.2090113  53.1783833  42.4846493  16.2270113  52.3513833  42.0856493
  15.7770113  52.6623833  42.6466493  27.7840113  52.7523833  37.7996493
  28.5110113  53.2243833  37.9016493  28.0130113  51.9583833  38.0796493
  27.9260113  52.7053833  37.8566493  25.9520113  53.1443833  39.7896493
  26.1660113  53.6713833  40.4516493  26.7190113  52.9703833  39.4106493
  26.0970113  53.1963833  39.8316493  18.9200113  37.7273833  45.3886493
  18.3990113  37.0993833  45.0806493  19.5110113  37.2903833  45.8596493
  18.9310113  37.5693833  45.4126493  22.2260113  39.8603833  54.6866493
  22.3430113  39.4063833  53.9506493  22.5140113  40.6583833  54.4836493
  22.2860113  39.9113833  54.5476493  17.3460113  51.2903833  40.7286493
  18.0020113  50.7153833  40.7436493  17.7350113  52.0393833  40.5076493
  17.5010113  51.3153833  40.6986493  28.3910113  53.1543833  48.0946493
  29.1350113  53.6103833  48.0846493  28.2700113  52.9403833  47.2576493
  28.4830113  53.1903833  47.9696493  17.9590113  39.4573833  53.6706493
  17.1810113  39.0673833  53.5986493  18.4500113  39.0453833  53.0796493
  17.9160113  39.3383833  53.5726493  18.1640113  49.7773833  44.2286493
  18.5870113  49.4213833  43.5546493  18.4880113  49.3553833  44.9206493
  18.2740113  49.6623833  44.2316493  21.3950113  52.6293833  43.5246493
  22.2390113  52.7333833  43.3296493  21.0980113  53.4473833  43.5926493
  21.4760113  52.7653833  43.5056493  25.9240113  42.3653833  36.7326493
  26.2050113  43.1533833  36.9816493  25.1480113  42.5303833  36.3696493
  25.8510113  42.5063833  36.7156493  29.9650113  54.3393833  38.1996493
  30.6300113  54.1913833  37.6546493  30.3250113  54.2563833  38.9896493
  30.1170113  54.3053833  38.2356493  20.3930113  53.8483833  49.2646493
  20.6850113  53.7813833  50.0846493  19.7670113  53.2433833  49.2196493
  20.3440113  53.7493833  49.3796493  15.3070113  40.0053833  51.2566493
  15.3030113  40.5923833  51.9026493  15.9010113  40.3173833  50.6996493
  15.3940113  40.1383833  51.2696493  27.6450113  50.3393833  51.7986493
  27.6110113  50.7213833  52.5826493  28.4990113  50.2973833  51.6276493
  27.7660113  50.3893833  51.8896493  24.7830113  50.5363833  36.5486493
  24.6020113  51.0813833  37.2056493  25.5490113  50.8263833  36.2476493
  24.8690113  50.6603833  36.6016493  16.2440113  39.6003833  40.1716493
  16.1300113  38.7363833  40.2026493  15.7690113  39.8943833  40.8416493
  16.1570113  39.5163833  40.2746493  18.3860113  52.0103833  48.3866493
  17.6880113  51.5023833  48.5126493  18.6460113  51.8053833  47.5786493
  18.3210113  51.9053833  48.2856493  26.0970113  53.5033833  49.2966493
  26.8650113  53.4233833  48.8906493  25.5140113  53.3823833  48.6586493
  26.1240113  53.4733833  49.1426493  32.3740113  54.1063833  42.1976493
  31.9190113  54.8233833  42.3986493  31.7600113  53.5353833  41.9556493
  32.2160113  54.1283833  42.1916493  19.7470113  50.8613833  50.9536493
  20.5880113  50.9243833  50.7316493  19.7100113  51.2583833  51.7296493
  19.8660113  50.9293833  51.0356493  18.7540113  35.9393833  41.6776493
  19.2900113  36.6273833  41.6676493  18.7570113  35.6653833  40.8496493
  18.8330113  36.0003833  41.5536493  15.2810113  50.6813833  54.5036493
  16.0370113  51.0303833  54.7616493  15.4580113  49.8283833  54.4466493
  15.4190113  50.6063833  54.5336493  19.2020113  39.7493833  43.3316493
  19.4740113  39.3193833  42.6236493  19.0260113  39.1133833  43.9026493
  19.2160113  39.5923833  43.3116493  31.8900113  47.4443833  37.5496493
  32.0090113  47.1573833  38.3646493  32.6970113  47.4653833  37.2196493
  32.0260113  47.4053833  37.6216493  19.0260113  47.1763833  42.8806493
  19.8770113  47.0963833  42.7076493  18.6690113  46.4943833  42.4686493
  19.0990113  47.0633833  42.7936493  17.7930113  53.9013833  44.1176493
  17.1200113  53.4033833  43.8726493  18.1960113  54.0863833  43.3666493
  17.7530113  53.8553833  43.9706493  17.3430113  40.8513833  46.4136493
  18.1860113  41.0713833  46.3706493  16.9540113  41.4243833  45.8826493
  17.4100113  40.9683833  46.3286493  34.1240113  51.9533833  51.8036493
  33.4420113  52.2633833  51.3566493  33.7550113  51.4953833  52.4486493
  33.9680113  51.9313833  51.8326493  21.3940113  47.1833833  41.1156493
  22.1070113  47.6783833  41.2056493  21.6160113  46.6163833  40.4896493
  21.5320113  47.1723833  41.0366493  15.5500113  48.8263833  44.4356493
  14.8830113  49.3143833  44.7116493  16.2300113  49.3713833  44.4646493
  15.5520113  48.9783833  44.4806493  23.1970113  42.5363833  54.5316493
  22.7130113  43.1133833  54.9736493  23.1690113  42.8313833  53.7106493
  23.1210113  42.6653833  54.4756493  15.6160113  45.5103833  39.5386493
  15.4310113  44.6713833  39.6906493  16.2750113  45.4743833  38.9686493
  15.6860113  45.3813833  39.4766493  15.7880113  49.6743833  39.1136493
  16.3400113  50.2433833  39.4776493  15.5560113  49.1593833  39.7786493
  15.8350113  49.6823833  39.2656493  19.9920113  48.6743833  46.2026493
  20.4590113  48.9633833  46.8806493  20.5640113  48.1963833  45.7486493
  20.1460113  48.6463833  46.2356493  15.6180113  48.1233833  36.7416493
  16.3740113  47.6913833  36.7996493  15.6330113  48.6553833  37.4326493
  15.7320113  48.1383833  36.8526493  16.5580113  46.3443833  44.7466493
  16.9890113  46.2153833  43.9996493  16.3530113  47.1923833  44.7206493
  16.5910113  46.4503833  44.6326493  22.9040113  39.9083833  38.3966493
  22.9020113  39.7913833  37.5316493  22.7230113  40.7563833  38.4886493
  22.8770113  40.0163833  38.2826493  31.9580113  52.3353833  49.8936493
  31.2870113  52.8493833  50.1116493  32.0210113  52.4353833  49.0296493
  31.8680113  52.4263833  49.7986493  20.6420113  49.8603833  43.0286493
  20.7680113  50.7033833  43.2156493  21.3100113  49.4613833  43.4246493
  20.7600113  49.9263833  43.1146493  18.7720113  43.3433833  52.8906493
  18.2360113  42.8373833  53.3586493  18.7920113  42.9533833  52.1106493
  18.6950113  43.2103833  52.8446493  19.2570113  42.7403833  38.0306493
  19.1290113  42.2923833  38.7686493  18.6750113  42.3983833  37.4786493
  19.1520113  42.6233833  38.0586493  19.4240113  44.5703833  44.6296493
  18.6430113  44.5113833  44.2466493  19.4960113  43.8183833  45.0666493
  19.3190113  44.4513833  44.6376493  19.8540113  44.3073833  48.0976493
  19.8790113  43.6323833  47.5466493  19.2080113  44.8033833  47.7856493
  19.7630113  44.2803833  47.9706493  23.9540113  53.0843833  47.4896493
  23.6770113  52.4433833  46.9666493  23.7460113  53.8103833  47.0516493
  23.8830113  53.0973833  47.3476493  17.6530113  45.6623833  53.6566493
  17.6160113  46.1633833  52.9426493  17.9840113  44.9103833  53.3616493
  17.6960113  45.6243833  53.5076493  29.2560113  47.8673833  51.9146493
  29.7400113  48.5853833  52.0126493  29.6500113  47.4403833  51.2636493
  29.3860113  47.9103833  51.8326493  23.5520113  50.7123833  53.0916493
  23.9060113  50.5343833  53.8686493  23.1160113  49.9833833  52.8926493
  23.5400113  50.5783833  53.1776493  26.7130113  44.6283833  38.0036493
  26.7050113  45.3503833  37.5136493  26.0740113  44.7633833  38.5806493
  26.6180113  44.7553833  38.0166493  21.6350113  53.2273833  39.6766493
  21.4880113  52.4513833  40.0476493  22.3240113  53.0803833  39.1616493
  21.7150113  53.0903833  39.6556493  21.3060113  36.9703833  37.6646493
  21.4030113  36.8633833  38.5256493  20.5980113  37.4763833  37.5996493
  21.2160113  37.0293833  37.7826493  23.9270113  52.7433833  38.0786493
  24.5490113  52.9063833  38.6686493  23.9630113  53.4343833  37.5466493
  24.0240113  52.8693833  38.0876493  27.1940113  51.7623833  54.3516493
  27.3580113  52.0453833  55.1606493  27.4570113  52.4233833  53.8466493
  27.2570113  51.9023833  54.3966493  18.4280113  45.2773833  38.9076493
  18.7520113  44.4983833  38.6856493  19.0740113  45.6453833  39.3626493
  18.5710113  45.2163833  38.9416493  15.4250113  36.9383833  39.8756493
  15.5540113  36.2303833  39.3836493  15.0580113  36.6203833  40.6006493
  15.3900113  36.7863833  39.9106493  19.6140113  39.1363833  36.8446493
  19.1030113  39.1893833  36.1386493  20.3980113  39.3763833  36.5486493
  19.6540113  39.1793833  36.6966493  21.0930113  53.3963833  35.6496493
  21.5320113  52.6993833  35.9376493  21.3000113  54.0203833  36.2226493
  21.1890113  53.3853833  35.7766493  18.1890113  46.3593833  47.0796493
  18.9110113  46.8473833  47.0426493  17.9190113  46.3293833  46.2506493
  18.2560113  46.4273833  46.9516493  21.4190113  41.5303833  43.8146493
  22.2650113  41.3403833  43.9126493  21.0490113  40.7533833  43.6766493
  21.4890113  41.3873833  43.8086493  16.2400113  42.8683833  40.4696493
  16.7290113  42.5763833  41.1306493  16.3690113  42.2753833  39.8426493
  16.3310113  42.7373833  40.4746493  20.7650113  44.3023833  35.9556493
  20.1550113  43.8973833  36.4296493  20.3790113  44.4203833  35.1826493
  20.6180113  44.2593833  35.9116493  17.5840113  47.4113833  51.3576493
  17.1630113  46.8933833  50.7966493  17.2320113  48.1973833  51.2146493
  17.4700113  47.4513833  51.2536493  22.2200113  42.7633833  38.6656493
  22.4920113  43.5893833  38.7326493  21.3570113  42.8383833  38.5696493
  22.1330113  42.8963833  38.6606493  15.7000113  38.7333833  45.2016493
  15.7440113  39.0773833  44.4006493  16.4550113  38.9703833  45.5686493
  15.8180113  38.8193833  45.1376493  33.6620113  51.5943833  45.2866493
  33.9520113  51.8513833  44.5056493  34.3570113  51.6903833  45.8056493
  33.8080113  51.6463833  45.2476493  28.6850113  43.4543833  53.3736493
  28.7580113  43.5583833  54.2366493  28.0510113  44.0123833  53.1526493
  28.6020113  43.5523833  53.4686493  30.2670113  50.1973833  37.2686493
  30.6010113  49.3913833  37.3036493  29.5120113  50.1253833  37.6986493
  30.2050113  50.0673833  37.3376493  33.6510113  44.3153833  54.4736493
  33.5990113  43.9743833  53.6726493  34.3880113  44.7823833  54.4516493
  33.7520113  44.3343833  54.3516493  33.1890113  47.9913833  50.6796493
  33.8170113  47.4423833  50.4236493  33.1280113  48.5563833  50.0176493
  33.2730113  47.9943833  50.5436493  27.6410113  48.0723833  36.6716493
  28.3250113  47.5583833  36.5026493  27.2240113  48.1183833  35.9066493
  27.6800113  48.0033833  36.5336493  22.3230113  49.2223833  47.9756493
  22.0250113  49.8143833  48.5426493  22.3780113  49.6643833  47.2266493
  22.2870113  49.3753833  47.9486493  24.1030113  53.0383833  42.6946493
  24.6490113  53.7173833  42.7486493  23.7530113  53.1203833  41.8996493
  24.1320113  53.1513833  42.5846493  22.2860113  51.2663833  46.0836493
  21.6620113  51.8483833  45.9016493  22.5340113  50.9803833  45.2976493
  22.2300113  51.3103833  45.9406493  26.5950113  47.9003833  53.0726493
  27.3520113  48.1863833  52.7466493  26.0480113  47.9523833  52.3946493
  26.6260113  47.9503833  52.9236493  30.5040113  50.4503833  51.5766493
  30.8500113  50.7203833  52.3306493  30.7980113  51.0323833  50.9966493
  30.5990113  50.5763833  51.6026493  23.8800113  46.0423833  35.9986493
  23.0750113  45.8653833  35.7136493  23.8470113  46.8933833  36.1906493
  23.7560113  46.1413833  35.9856493  19.8100113  42.1093833  46.1486493
  20.2500113  42.0063833  45.4026493  20.3550113  41.7963833  46.7536493
  19.9550113  42.0483833  46.1276493  24.9390113  52.9153833  51.9636493
  25.4170113  52.3153833  51.5476493  24.5880113  52.4723833  52.6286493
  24.9580113  52.7613833  52.0006493  24.9980113  48.1343833  50.9836493
  24.2030113  48.0703833  51.3346493  25.0690113  48.9813833  50.7886493
  24.8910113  48.2493833  51.0066493  15.9220113  37.4923833  52.2306493
  15.7820113  38.2873833  51.8996493  15.1360113  37.2493833  52.5196493
  15.7850113  37.5743833  52.2246493  20.8280113  54.3413833  46.3006493
  20.8390113  54.4003833  47.1706493  20.4030113  53.5943833  46.1506493
  20.7670113  54.2393833  46.4066493  18.9860113  40.2363833  39.4556493
  19.1120113  39.9073833  38.6576493  18.1740113  39.9873833  39.6546493
  18.8850113  40.1513833  39.3676493  25.4870113  50.7813833  50.0916493
  26.1740113  50.6673833  50.6166493  25.6210113  51.5723833  49.7476493
  25.6080113  50.8813833  50.1186493  33.6630113  43.3903833  51.9026493
  32.8080113  43.2683833  52.0286493  33.8160113  42.9953833  51.1396493
  33.5590113  43.3133833  51.8086493  17.5920113  53.8393833  51.7426493
  16.9380113  53.2703833  51.8406493  17.2170113  54.6123833  51.8936493
  17.4400113  53.8693833  51.7796493  26.1100113  45.2453833  53.6656493
  26.4330113  45.9313833  53.2336493  25.4060113  45.5683833  54.0676493
  26.0530113  45.3943833  53.6606493  29.1940113  53.6193833  44.5946493
  28.7430113  54.2623833  44.9736493  29.9020113  53.5403833  45.0996493
  29.2320113  53.7023833  44.7256493  31.2720113  51.3023833  54.1046493
  32.0480113  50.9123833  54.1876493  30.8030113  50.9663833  54.7596493
  31.3170113  51.1953833  54.2136493  18.9630113  42.2473833  49.8716493
  19.3380113  42.8663833  49.3846493  19.6370113  41.7733833  50.1566493
  19.1180113  42.2693833  49.8416493  16.7380113  40.6953833  49.1466493
  16.8150113  40.5263833  48.2936493  17.4840113  41.1013833  49.3436493
  16.8590113  40.7303833  49.0496493  19.2920113  38.1053833  51.5576493
  19.2110113  37.2613833  51.7636493  18.9780113  38.1493833  50.7446493
  19.2340113  37.9873833  51.4676493  16.1350113  45.9213833  49.3706493
  16.4550113  46.1403833  48.5896493  16.0350113  45.0563833  49.3156493
  16.1670113  45.8263833  49.2476493  17.5910113  41.8573833  35.9886493
  16.9190113  41.8713833  36.5446493  17.6860113  41.0093833  35.8046493
  17.5060113  41.7343833  36.0436493  21.5790113  50.5623833  37.1026493
  22.0200113  50.6423833  37.8506493  20.7740113  50.3463833  37.3606493
  21.5250113  50.5423833  37.2516493  20.8980113  45.2133833  50.7556493
  20.5020113  45.9873833  50.8306493  20.4920113  44.8403833  50.0796493
  20.7800113  45.2723833  50.6666493  30.4870113  52.3333833  40.6766493
  30.3130113  51.6793833  41.2266493  31.2000113  52.0623833  40.2536493
  30.5670113  52.1963833  40.6956493  18.9080113  49.6323833  37.7036493
  18.6640113  49.3253833  38.4836493  18.8750113  48.9293833  37.1876493
  18.8670113  49.4833833  37.7426493  21.7270113  47.8773833  36.4466493
  20.9090113  47.6093833  36.5866493  21.6990113  48.7293833  36.6316493
  21.6020113  47.9643833  36.4946493  27.6960113  54.0003833  52.6136493
  26.9430113  53.9823833  52.1726493  27.8640113  54.8523833  52.6976493
  27.6100113  54.1233833  52.5606493  23.7290113  36.5193833  36.4106493
  23.8070113  36.7663833  35.5776493  22.9860113  36.8963833  36.6686493
  23.6310113  36.6113833  36.3256493  32.9740113  48.4253833  47.8256493
  32.9420113  47.5633833  47.6906493  32.2810113  48.7273833  47.3916493
  32.8670113  48.3423833  47.7416493  21.3680113  53.6233833  52.0316493
  21.4090113  53.7493833  52.8946493  22.0190113  53.0633833  51.8756493
  21.4700113  53.5593833  52.1366493  31.0790113  51.6853833  46.6226493
  31.6060113  51.6023833  45.9316493  30.6880113  50.9073833  46.6766493
  31.0990113  51.5583833  46.5286493  18.5470113  38.2733833  48.8536493
  18.2040113  37.5063833  48.6196493  17.8520113  38.7973833  48.9176493
  18.3940113  38.2373833  48.8286493  18.9610113  52.0063833  53.3916493
  19.5560113  52.4373833  53.8636493  18.5970113  52.6303833  52.9026493
  18.9950113  52.1623833  53.3886493  17.2000113  41.5873833  42.8096493
  16.8320113  41.8893833  43.5406493  17.7340113  40.9583833  43.0936493
  17.2240113  41.5393833  42.9596493  16.8880113  49.9953833  50.3206493
  16.3140113  50.4113833  50.8296493  17.6210113  50.4603833  50.4156493
  16.9120113  50.1253833  50.4096493  18.6740113  53.2623833  39.0956493
  18.5290113  53.4183833  38.2496493  19.5400113  53.3413833  39.1736493
  18.7810113  53.2973833  38.9826493  22.8410113  45.6593833  38.8236493
  22.9410113  45.7983833  37.9686493  23.6590113  45.5993833  39.1196493
  22.9760113  45.6703833  38.7406493  32.0010113  53.7233833  36.3036493
  32.6380113  53.5893833  36.8846493  31.6600113  52.9293833  36.1866493
  32.0450113  53.5863833  36.3716493  32.1960113  46.1413833  53.0366493
  32.8300113  45.9713833  53.6106493  32.6130113  46.5443833  52.3846493
  32.3510113  46.1763833  53.0256493  28.0760113  49.9883833  38.6256493
  27.8250113  49.8603833  39.4516493  27.7590113  49.2933833  38.2046493
  27.9920113  49.8673833  38.6856493  29.6070113  46.2523833  54.3916493
  30.4780113  46.2163833  54.3556493  29.3880113  46.6723833  53.6596493
  29.7040113  46.3083833  54.2786493  19.3610113  52.0773833  45.5726493
  19.2820113  51.2673833  45.2566493  18.9170113  52.5643833  45.0006493
  19.2840113  52.0293833  45.4416493  24.9620113  48.1963833  38.0556493
  25.6790113  47.8493833  37.6996493  24.9280113  48.9963833  37.7076493
  25.0630113  48.2633833  37.9516493  16.9330113  54.3213833  49.1536493
  17.4260113  54.2653833  49.8716493  17.1210113  53.5883833  48.7186493
  17.0340113  54.2043833  49.1956493  26.3710113  36.8373833  22.2944083
  26.1260113  37.3253833  21.6144083  27.2340113  36.7643833  22.1944083
  26.4620113  36.8983833  22.1794083  26.1800113  43.7533833  26.9654083
  25.6560113  44.3493833  27.3284083  26.5770113  43.3853833  27.6494083
  26.1610113  43.7873833  27.1204083  16.0490113  47.8933833  22.4214083
  15.6080113  48.0113833  23.1644083  15.7660113  47.1183833  22.1364083
  15.9420113  47.7963833  22.4894083  32.3240113  51.1943833  19.9364083
  33.0250113  50.6753833  19.9324083  31.7370113  50.7493833  19.4674083
  32.3410113  51.0513833  19.8664083  15.7920113  41.6853833  18.9284083
  15.0140113  41.8473833  18.5684083  15.8310113  40.8143833  18.9504083
  15.6830113  41.5803833  18.8784083  18.9310113  46.9483833  17.6004083
  18.5390113  46.5773833  16.9144083  18.8510113  46.3503833  18.2294083
  18.8610113  46.8053833  17.5914083  28.8510113  44.8203833  23.6414083
  28.9310113  44.8243833  22.7724083  28.2670113  44.1883833  23.7904083
  28.7760113  44.7273833  23.5354083  18.5580113  48.5893833  21.5004083
  19.1660113  48.4193833  22.1034083  17.8070113  48.4493833  21.9214083
  18.5370113  48.5433833  21.6514083  22.8400113  37.9243833  21.4494083
  22.7700113  38.6013833  20.9034083  23.5810113  37.5363833  21.2004083
  22.9390113  37.9673833  21.3314083  17.4490113  51.6803833  17.5774083
  17.9160113  51.7643833  16.8454083  17.9040113  51.1023833  18.0464083
  17.5850113  51.6073833  17.5384083  15.9890113  50.6283833  28.6764083
  16.1180113  50.3483833  29.4924083  15.3790113  50.0873833  28.3674083
  15.9180113  50.5073833  28.7514083  22.5630113  48.1533833  33.7434083
  22.3270113  48.1503833  34.5834083  21.8150113  48.0053833  33.3194083
  22.4170113  48.1303833  33.8044083  17.4350113  45.1493833  22.8784083
  16.9730113  44.7573833  22.2514083  18.1350113  44.6363833  22.9704083
  17.4700113  45.0163833  22.7994083  21.9430113  40.7593833  28.2254083
  22.6210113  40.7773833  27.6764083  21.8980113  39.9233833  28.4704083
  22.0360113  40.6383833  28.1804083  22.5450113  51.3453833  31.0064083
  22.6830113  52.1053833  30.5994083  23.3360113  50.9803833  31.0334083
  22.6820113  51.4043833  30.9504083  19.4360113  43.2493833  22.9014083
  20.2530113  43.0623833  23.1444083  18.9590113  42.6353833  23.2974083
  19.4860113  43.1313833  22.9964083  23.6400113  49.2303833  25.5114083
  23.9880113  48.4313833  25.5414083  24.3050113  49.7343833  25.2564083
  23.7900113  49.1863833  25.4784083  23.6970113  48.6793833  21.7224083
  24.0280113  48.0353833  22.2084083  23.9370113  48.4683833  20.9114083
  23.7810113  48.5533833  21.6744083  25.6650113  42.8103833  33.0614083
  24.8170113  42.7113833  32.8834083  25.6940113  43.5553833  33.5154083
  25.5440113  42.9063833  33.1024083  20.0330113  38.3433833  22.1674083
  19.7370113  38.8443833  21.5174083  20.9000113  38.4213833  22.1104083
  20.1170113  38.4293833  22.0634083  23.0120113  37.4853833  24.3904083
  23.0850113  38.3453833  24.5194083  22.9740113  37.4103833  23.5224083
  23.0170113  37.6013833  24.2814083  27.6850113  40.4113833  16.6894083
  27.2350113  41.0923833  16.9964083  27.7990113  39.9073833  17.3924083
  27.6360113  40.4373833  16.8384083  15.8910113  42.9103833  25.8914083
  15.6350113  43.7413833  25.8164083  15.2270113  42.5273833  26.3084083
  15.7550113  42.9763833  25.9424083  15.8010113  52.6203833  23.7914083
  15.2090113  53.1783833  23.4784083  16.2270113  52.3513833  23.0794083
  15.7770113  52.6623833  23.6404083  21.6410113  50.4643833  21.2714083
  21.0620113  50.1893833  21.8634083  22.2650113  49.8553833  21.2964083
  21.6480113  50.3343833  21.3624083  27.7840113  52.7523833  18.7934083
  28.5110113  53.2243833  18.8954083  28.0130113  51.9583833  19.0734083
  27.9260113  52.7053833  18.8504083  25.9520113  53.1443833  20.7834083
  26.1660113  53.6713833  21.4454083  26.7190113  52.9703833  20.4044083
  26.0970113  53.1963833  20.8254083  18.9200113  37.7273833  26.3824083
  18.3990113  37.0993833  26.0744083  19.5110113  37.2903833  26.8534083
  18.9310113  37.5693833  26.4064083  22.2260113  39.8603833  35.6804083
  22.3430113  39.4063833  34.9444083  22.5140113  40.6583833  35.4774083
  22.2860113  39.9113833  35.5414083  17.3460113  51.2903833  21.7224083
  18.0020113  50.7153833  21.7374083  17.7350113  52.0393833  21.5014083
  17.5010113  51.3153833  21.6924083  33.0790113  40.3843833  22.9844083
  32.7330113  41.0623833  23.4104083  32.4430113  39.7863833  23.0004083
  32.9340113  40.3963833  23.0494083  28.3910113  53.1543833  29.0884083
  29.1350113  53.6103833  29.0784083  28.2700113  52.9403833  28.2514083
  28.4830113  53.1903833  28.9634083  17.9590113  39.4573833  34.6644083
  17.1810113  39.0673833  34.5924083  18.4500113  39.0453833  34.0734083
  17.9160113  39.3383833  34.5664083  18.1640113  49.7773833  25.2224083
  18.5870113  49.4213833  24.5484083  18.4880113  49.3553833  25.9144083
  18.2740113  49.6623833  25.2254083  21.3950113  52.6293833  24.5184083
  22.2390113  52.7333833  24.3234083  21.0980113  53.4473833  24.5864083
  21.4760113  52.7653833  24.4994083  24.6080113  37.1003833  33.8324083
  24.7860113  36.2913833  33.5574083  24.4650113  37.5413833  33.0934083
  24.6130113  37.0463833  33.6824083  25.2020113  42.0263833  22.6054083
  25.4890113  41.7943833  21.8154083  25.9340113  42.1053833  23.0744083
  25.3520113  42.0033833  22.5584083  25.9240113  42.3653833  17.7264083
  26.2050113  43.1533833  17.9754083  25.1480113  42.5303833  17.3634083
  25.8510113  42.5063833  17.7094083  29.9650113  54.3393833  19.1934083
  30.6300113  54.1913833  18.6484083  30.3250113  54.2563833  19.9834083
  30.1170113  54.3053833  19.2294083  20.3930113  53.8483833  30.2584083
  20.6850113  53.7813833  31.0784083  19.7670113  53.2433833  30.2134083
  20.3440113  53.7493833  30.3734083  32.7540113  38.7073833  28.3534083
  33.5110113  38.7793833  27.9254083  32.8170113  37.9343833  28.7524083
  32.8750113  38.6043833  28.3484083  15.3070113  40.0053833  32.2504083
  15.3030113  40.5923833  32.8964083  15.9010113  40.3173833  31.6934083
  15.3940113  40.1383833  32.2634083  24.7830113  50.5363833  17.5424083
  24.6020113  51.0813833  18.1994083  25.5490113  50.8263833  17.2414083
  24.8690113  50.6603833  17.5954083  28.2900113  38.4323833  18.5964083
  28.8300113  37.7503833  18.6724083  28.3520113  38.8303833  19.3704083
  28.3790113  38.3903833  18.7224083  16.2440113  39.6003833  21.1654083
  16.1300113  38.7363833  21.1964083  15.7690113  39.8943833  21.8354083
  16.1570113  39.5163833  21.2684083  18.3860113  52.0103833  29.3804083
  17.6880113  51.5023833  29.5064083  18.6460113  51.8053833  28.5724083
  18.3210113  51.9053833  29.2794083  25.5480113  40.8083833  19.9104083
  25.0400113  40.1463833  19.6564083  25.6000113  41.3123833  19.2004083
  25.4810113  40.7853833  19.7684083  26.0970113  53.5033833  30.2904083
  26.8650113  53.4233833  29.8844083  25.5140113  53.3823833  29.6524083
  26.1240113  53.4733833  30.1364083  25.5480113  37.7493833  19.8014083
  25.0930113  37.3473833  19.1754083  26.3210113  37.9043833  19.4264083
  25.5950113  37.7133833  19.6534083  32.3740113  54.1063833  23.1914083
  31.9190113  54.8233833  23.3924083  31.7600113  53.5353833  22.9494083
  32.2160113  54.1283833  23.1854083  24.1460113  40.1163833  24.3234083
  24.2200113  40.6843833  23.6654083  24.2670113  40.6083833  25.0334083
  24.1740113  40.2733833  24.3314083  29.3710113  49.9513833  22.7354083
  30.0720113  49.4693833  22.9244083  28.7110113  49.3823833  22.7804083
  29.3770113  49.7963833  22.7694083  19.7470113  50.8613833  31.9474083
  20.5880113  50.9243833  31.7254083  19.7100113  51.2583833  32.7234083
  19.8660113  50.9293833  32.0294083  18.7540113  35.9393833  22.6714083
  19.2900113  36.6273833  22.6614083  18.7570113  35.6653833  21.8434083
  18.8330113  36.0003833  22.5474083  21.7100113  46.3723833  26.6964083
  21.8820113  46.1623833  27.5254083  21.0550113  45.8383833  26.4804083
  21.6390113  46.2623833  26.7874083  27.9380113  40.2863833  30.2114083
  27.8430113  40.6053833  31.0174083  27.3450113  39.6473833  30.1734083
  27.8360113  40.2383833  30.3254083  22.4600113  46.3103833  29.2864083
  22.5130113  47.1573833  29.4884083  22.1750113  45.9403833  30.0234083
  22.4260113  46.3803833  29.4244083  28.6370113  47.0053833  28.4164083
  28.1230113  46.5933833  28.9874083  28.5110113  47.8493833  28.5974083
  28.5430113  47.0693833  28.5274083  29.1940113  36.2303833  23.0474083
  29.2430113  35.9123833  23.8584083  29.5170113  35.5863833  22.5544083
  29.2490113  36.0883833  23.0944083  15.2810113  50.6813833  35.4974083
  16.0370113  51.0303833  35.7554083  15.4580113  49.8283833  35.4404083
  15.4190113  50.6063833  35.5274083  31.6580113  40.4663833  31.3554083
  32.4300113  40.2413833  31.6924083  31.1830113  40.6833833  32.0554083
  31.7020113  40.4653833  31.5084083  19.2020113  39.7493833  24.3254083
  19.4740113  39.3193833  23.6174083  19.0260113  39.1133833  24.8964083
  19.2160113  39.5923833  24.3054083  31.8900113  47.4443833  18.5434083
  32.0090113  47.1573833  19.3584083  32.6970113  47.4653833  18.2134083
  32.0260113  47.4053833  18.6154083  19.0260113  47.1763833  23.8744083
  19.8770113  47.0963833  23.7014083  18.6690113  46.4943833  23.4624083
  19.0990113  47.0633833  23.7874083  17.7930113  53.9013833  25.1114083
  17.1200113  53.4033833  24.8664083  18.1960113  54.0863833  24.3604083
  17.7530113  53.8553833  24.9644083  17.3430113  40.8513833  27.4074083
  18.1860113  41.0713833  27.3644083  16.9540113  41.4243833  26.8764083
  17.4100113  40.9683833  27.3224083  34.1240113  51.9533833  32.7974083
  33.4420113  52.2633833  32.3504083  33.7550113  51.4953833  33.4424083
  33.9680113  51.9313833  32.8264083  29.7850113  43.9813833  18.1284083
  29.5650113  44.7123833  17.7064083  29.3370113  44.0323833  18.8754083
  29.6860113  44.0963833  18.1764083  21.3940113  47.1833833  22.1094083
  22.1070113  47.6783833  22.1994083  21.6160113  46.6163833  21.4834083
  21.5320113  47.1723833  22.0304083  33.9720113  38.8423833  17.5814083
  33.3100113  38.2743833  17.6044083  33.7790113  39.3543833  16.9014083
  33.8460113  38.8343833  17.4844083  15.5500113  48.8263833  25.4294083
  14.8830113  49.3143833  25.7054083  16.2300113  49.3713833  25.4584083
  15.5520113  48.9783833  25.4744083  23.1970113  42.5363833  35.5254083
  22.7130113  43.1133833  35.9674083  23.1690113  42.8313833  34.7044083
  23.1210113  42.6653833  35.4694083  34.2950113  43.2203833  30.1374083
  34.5100113  42.4203833  29.8614083  33.4450113  43.2803833  29.9484083
  34.2010113  43.1113833  30.0684083  15.6160113  45.5103833  20.5324083
  15.4310113  44.6713833  20.6844083  16.2750113  45.4743833  19.9624083
  15.6860113  45.3813833  20.4704083  31.9740113  38.4003833  19.8604083
  32.7200113  37.9933833  20.0594083  32.2370113  39.1153833  19.4354083
  32.1230113  38.4463833  19.8274083  25.9170113  50.8863833  24.4364083
  25.3940113  51.5203833  24.1434083  26.2270113  50.5223833  23.7074083
  25.8850113  50.9263833  24.2854083  15.7880113  49.6743833  20.1074083
  16.3400113  50.2433833  20.4714083  15.5560113  49.1593833  20.7724083
  15.8350113  49.6823833  20.2594083  19.9920113  48.6743833  27.1964083
  20.4590113  48.9633833  27.8744083  20.5640113  48.1963833  26.7424083
  20.1460113  48.6463833  27.2294083  28.4280113  40.6883833  24.9334083
  28.7720113  40.8403833  25.7204083  27.9750113  39.9503833  25.0464083
  28.4120113  40.6013833  25.0664083  15.6180113  48.1233833  17.7354083
  16.3740113  47.6913833  17.7934083  15.6330113  48.6553833  18.4264083
  15.7320113  48.1383833  17.8464083  16.5580113  46.3443833  25.7404083
  16.9890113  46.2153833  24.9934083  16.3530113  47.1923833  25.7144083
  16.5910113  46.4503833  25.6264083  22.9040113  39.9083833  19.3904083
  22.9020113  39.7913833  18.5254083  22.7230113  40.7563833  19.4824083
  22.8770113  40.0163833  19.2764083  31.9580113  52.3353833  30.8874083
  31.2870113  52.8493833  31.1054083  32.0210113  52.4353833  30.0234083
  31.8680113  52.4263833  30.7924083  20.6420113  49.8603833  24.0224083
  20.7680113  50.7033833  24.2094083  21.3100113  49.4613833  24.4184083
  20.7600113  49.9263833  24.1084083  18.7720113  43.3433833  33.8844083
  18.2360113  42.8373833  34.3524083  18.7920113  42.9533833  33.1044083
  18.6950113  43.2103833  33.8384083  19.2570113  42.7403833  19.0244083
  19.1290113  42.2923833  19.7624083  18.6750113  42.3983833  18.4724083
  19.1520113  42.6233833  19.0524083  19.4240113  44.5703833  25.6234083
  18.6430113  44.5113833  25.2404083  19.4960113  43.8183833  26.0604083
  19.3190113  44.4513833  25.6314083  19.8540113  44.3073833  29.0914083
  19.8790113  43.6323833  28.5404083  19.2080113  44.8033833  28.7794083
  19.7630113  44.2803833  28.9644083  29.7490113  42.0203833  27.4874083
  29.0870113  42.3483833  27.9504083  29.9360113  42.6543833  26.9184083
  29.6790113  42.1623833  27.4714083  23.9540113  53.0843833  28.4834083
  23.6770113  52.4433833  27.9604083  23.7460113  53.8103833  28.0454083
  23.8830113  53.0973833  28.3414083  26.3940113  37.9263833  30.9164083
  26.5430113  37.1013833  30.6734083  26.7730113  37.9813833  31.7004083
  26.4720113  37.8123833  30.9964083  27.9420113  39.9893833  20.9984083
  28.4320113  40.7063833  20.9214083  27.1520113  40.2503833  20.7354083
  27.8980113  40.1333833  20.9484083  17.6530113  45.6623833  34.6504083
  17.6160113  46.1633833  33.9364083  17.9840113  44.9103833  34.3554083
  17.6960113  45.6243833  34.5014083  29.2560113  47.8673833  32.9084083
  29.7400113  48.5853833  33.0064083  29.6500113  47.4403833  32.2574083
  29.3860113  47.9103833  32.8264083  23.5520113  50.7123833  34.0854083
  23.9060113  50.5343833  34.8624083  23.1160113  49.9833833  33.8864083
  23.5400113  50.5783833  34.1714083  24.5240113  41.4593833  26.7234083
  25.0040113  42.1583833  26.9314083  24.8970113  40.8123833  27.1744083
  24.6500113  41.4673833  26.8204083  26.7130113  44.6283833  18.9974083
  26.7050113  45.3503833  18.5074083  26.0740113  44.7633833  19.5744083
  26.6180113  44.7553833  19.0104083  31.6850113  48.4983833  22.9784083
  32.0410113  48.1483833  23.6934083  31.6770113  47.8373833  22.4084083
  31.7370113  48.3483833  22.9994083  27.7300113  51.5643833  26.8224083
  27.1270113  51.2683833  26.2654083  28.2750113  52.0163833  26.3134083
  27.7210113  51.5873833  26.6644083  27.7430113  48.4153833  26.2224083
  26.9460113  48.6393833  26.4964083  28.0010113  47.8213833  26.8074083
  27.6630113  48.3603833  26.3494083  21.6350113  53.2273833  20.6704083
  21.4880113  52.4513833  21.0414083  22.3240113  53.0803833  20.1554083
  21.7150113  53.0903833  20.6494083  21.3060113  36.9703833  18.6584083
  21.4030113  36.8633833  19.5194083  20.5980113  37.4763833  18.5934083
  21.2160113  37.0293833  18.7764083  23.9270113  52.7433833  19.0724083
  24.5490113  52.9063833  19.6624083  23.9630113  53.4343833  18.5404083
  24.0240113  52.8693833  19.0814083  31.0030113  46.4133833  31.0684083
  31.0580113  46.5383833  30.2064083  31.7560113  46.7333833  31.3704083
  31.1220113  46.4783833  30.9854083  27.1940113  51.7623833  35.3454083
  27.3580113  52.0453833  36.1544083  27.4570113  52.4233833  34.8404083
  27.2570113  51.9023833  35.3904083  32.0350113  36.7113833  34.0554083
  31.3980113  36.3113833  33.6134083  32.0610113  36.2803833  34.8134083
  31.9450113  36.5893833  34.1014083  18.4280113  45.2773833  19.9014083
  18.7520113  44.4983833  19.6794083  19.0740113  45.6453833  20.3564083
  18.5710113  45.2163833  19.9354083  26.7340113  46.2193833  30.6684083
  26.5790113  46.8293833  31.2724083  27.2680113  45.6613833  31.0744083
  26.7900113  46.2273833  30.8174083  15.4250113  36.9383833  20.8694083
  15.5540113  36.2303833  20.3774083  15.0580113  36.6203833  21.5944083
  15.3900113  36.7863833  20.9044083  25.1180113  44.6193833  21.3264083
  25.1770113  45.2693833  21.9054083  24.9290113  43.9233833  21.8174083
  25.0990113  44.6123833  21.4844083  30.3440113  48.9483833  27.1954083
  29.8650113  49.2463833  26.5294083  29.9880113  48.1723833  27.3734083
  30.2210113  48.8773833  27.1234083  19.6140113  39.1363833  17.8384083
  19.1030113  39.1893833  17.1324083  20.3980113  39.3763833  17.5424083
  19.6540113  39.1793833  17.6904083  24.3410113  46.6663833  25.7574083
  23.4940113  46.4723833  25.8384083  24.6650113  46.5013833  26.5504083
  24.2630113  46.6133833  25.8864083  21.0930113  53.3963833  16.6434083
  21.5320113  52.6993833  16.9314083  21.3000113  54.0203833  17.2164083
  21.1890113  53.3853833  16.7704083  18.1890113  46.3593833  28.0734083
  18.9110113  46.8473833  28.0364083  17.9190113  46.3293833  27.2444083
  18.2560113  46.4273833  27.9454083  21.4190113  41.5303833  24.8084083
  22.2650113  41.3403833  24.9064083  21.0490113  40.7533833  24.6704083
  21.4890113  41.3873833  24.8024083  34.0360113  53.1143833  19.1354083
  34.7300113  52.6473833  18.8874083  33.4970113  52.5163833  19.4724083
  34.0590113  52.9563833  19.1484083  16.2400113  42.8683833  21.4634083
  16.7290113  42.5763833  22.1244083  16.3690113  42.2753833  20.8364083
  16.3310113  42.7373833  21.4684083  31.2750113  45.8903833  28.3144083
  31.2680113  45.1143833  28.7124083  30.4340113  46.1243833  28.3074083
  31.1500113  45.8103833  28.3724083  20.7650113  44.3023833  16.9494083
  20.1550113  43.8973833  17.4234083  20.3790113  44.4203833  16.1764083
  20.6180113  44.2593833  16.9054083  17.5840113  47.4113833  32.3514083
  17.1630113  46.8933833  31.7904083  17.2320113  48.1973833  32.2084083
  17.4700113  47.4513833  32.2474083  32.5310113  45.9613833  25.7514083
  32.2450113  46.3623833  26.4714083  33.3910113  45.8993833  25.8784083
  32.6160113  46.0113833  25.8764083  22.2200113  42.7633833  19.6594083
  22.4920113  43.5893833  19.7264083  21.3570113  42.8383833  19.5634083
  22.1330113  42.8963833  19.6544083  15.7000113  38.7333833  26.1954083
  15.7440113  39.0773833  25.3944083  16.4550113  38.9703833  26.5624083
  15.8180113  38.8193833  26.1314083  33.6620113  51.5943833  26.2804083
  33.9520113  51.8513833  25.4994083  34.3570113  51.6903833  26.7994083
  33.8080113  51.6463833  26.2414083  28.6850113  43.4543833  34.3674083
  28.7580113  43.5583833  35.2304083  28.0510113  44.0123833  34.1464083
  28.6020113  43.5523833  34.4624083  30.9530113  43.7733833  32.7324083
  31.2720113  44.5593833  32.9354083  30.5830113  43.5033833  33.4754083
  30.9460113  43.8493833  32.8724083  30.2670113  50.1973833  18.2624083
  30.6010113  49.3913833  18.2974083  29.5120113  50.1253833  18.6924083
  30.2050113  50.0673833  18.3314083  30.7490113  42.0313833  23.9214083
  30.0040113  41.7083833  24.2394083  30.7510113  42.8573833  24.2014083
  30.6390113  42.1053833  24.0094083  33.6510113  44.3153833  35.4674083
  33.5990113  43.9743833  34.6664083  34.3880113  44.7823833  35.4454083
  33.7520113  44.3343833  35.3454083  33.1890113  47.9913833  31.6734083
  33.8170113  47.4423833  31.4174083  33.1280113  48.5563833  31.0114083
  33.2730113  47.9943833  31.5374083  27.6410113  48.0723833  17.6654083
  28.3250113  47.5583833  17.4964083  27.2240113  48.1183833  16.9004083
  27.6800113  48.0033833  17.5274083  22.3230113  49.2223833  28.9694083
  22.0250113  49.8143833  29.5364083  22.3780113  49.6643833  28.2204083
  22.2870113  49.3753833  28.9424083  20.3020113  48.1723833  32.3674083
  19.4960113  47.8823833  32.5344083  20.2130113  49.0403833  32.3734083
  20.1700113  48.2573833  32.3924083  29.6610113  38.3613833  31.3824083
  30.4050113  38.8133833  31.3194083  29.0950113  38.8313833  30.9134083
  29.6880113  38.4983833  31.3044083  24.8390113  45.6453833  28.4604083
  25.3150113  46.0193833  29.0884083  24.0160113  45.7793833  28.7194083
  24.7880113  45.7203833  28.5914083  21.5490113  41.2483833  31.2014083
  21.7100113  40.5043833  31.6284083  21.5040113  40.9993833  30.3664083
  21.5660113  41.1013833  31.1414083  24.1030113  53.0383833  23.6884083
  24.6490113  53.7173833  23.7424083  23.7530113  53.1203833  22.8934083
  24.1320113  53.1513833  23.5784083  23.3010113  37.0563833  31.0814083
  24.0060113  37.3763833  30.6794083  23.5420113  36.2493833  31.3084083
  23.4400113  36.9843833  31.0554083  22.2860113  51.2663833  27.0774083
  21.6620113  51.8483833  26.8954083  22.5340113  50.9803833  26.2914083
  22.2300113  51.3103833  26.9344083  26.5950113  47.9003833  34.0664083
  27.3520113  48.1863833  33.7404083  26.0480113  47.9523833  33.3884083
  26.6260113  47.9503833  33.9174083  30.5040113  50.4503833  32.5704083
  30.8500113  50.7203833  33.3244083  30.7980113  51.0323833  31.9904083
  30.5990113  50.5763833  32.5964083  32.3670113  42.5963833  17.9094083
  32.7450113  43.2733833  17.5094083  31.5250113  42.8203833  17.9404083
  32.2980113  42.7293833  17.8544083  23.8800113  46.0423833  16.9924083
  23.0750113  45.8653833  16.7074083  23.8470113  46.8933833  17.1844083
  23.7560113  46.1413833  16.9794083  19.8100113  42.1093833  27.1424083
  20.2500113  42.0063833  26.3964083  20.3550113  41.7963833  27.7474083
  19.9550113  42.0483833  27.1214083  27.8260113  41.2113833  32.7344083
  27.1780113  41.6813833  33.0824083  28.3910113  41.1223833  33.3934083
  27.8140113  41.2673833  32.8834083  27.5140113  42.7483833  29.0324083
  27.8160113  43.1683833  29.7354083  27.5500113  41.9083833  29.2644083
  27.5640113  42.6863833  29.1704083  24.9390113  52.9153833  32.9574083
  25.4170113  52.3153833  32.5414083  24.5880113  52.4723833  33.6224083
  24.9580113  52.7613833  32.9944083  30.0620113  42.1953833  21.2844083
  30.2690113  41.9943833  22.1084083  30.8180113  42.4633833  20.9424083
  30.2040113  42.2053833  21.3554083  23.3570113  37.0943833  27.1894083
  22.5310113  36.9453833  27.4264083  23.3170113  37.1293833  26.3184083
  23.2290113  37.0773833  27.0954083  31.0840113  38.2783833  22.7584083
  30.3700113  37.8073833  22.9294083  30.9220113  38.6193833  21.9724083
  30.9550113  38.2593833  22.6674083  31.5270113  46.2223833  21.1384083
  32.0030113  45.4933833  21.0904083  30.7060113  45.9363833  21.0624083
  31.4760113  46.0723833  21.1194083  24.9980113  48.1343833  31.9774083
  24.2030113  48.0703833  32.3284083  25.0690113  48.9813833  31.7824083
  24.8910113  48.2493833  32.0004083  15.9220113  37.4923833  33.2244083
  15.7820113  38.2873833  32.8934083  15.1360113  37.2493833  33.5134083
  15.7850113  37.5743833  33.2184083  20.8280113  54.3413833  27.2944083
  20.8390113  54.4003833  28.1644083  20.4030113  53.5943833  27.1444083
  20.7670113  54.2393833  27.4004083  18.9860113  40.2363833  20.4494083
  19.1120113  39.9073833  19.6514083  18.1740113  39.9873833  20.6484083
  18.8850113  40.1513833  20.3614083  27.7430113  47.3893833  23.4934083
  27.8190113  47.7303833  24.2924083  27.9120113  46.5423833  23.6144083
  27.7790113  47.3143833  23.6294083  25.2650113  46.6633833  23.0584083
  24.9670113  46.3483833  23.8154083  25.9600113  47.1363833  23.2934083
  25.3240113  46.6863833  23.2054083  25.4870113  50.7813833  31.0854083
  26.1740113  50.6673833  31.6104083  25.6210113  51.5723833  30.7414083
  25.6080113  50.8813833  31.1124083  33.6630113  43.3903833  32.8964083
  32.8080113  43.2683833  33.0224083  33.8160113  42.9953833  32.1334083
  33.5590113  43.3133833  32.8024083  28.1760113  44.0553833  31.4724083
  27.9210113  43.3363833  31.8944083  28.9970113  44.1713833  31.7424083
  28.2600113  43.9663833  31.5744083  17.5920113  53.8393833  32.7364083
  16.9380113  53.2703833  32.8344083  17.2170113  54.6123833  32.8874083
  17.4400113  53.8693833  32.7734083  26.1100113  45.2453833  34.6594083
  26.4330113  45.9313833  34.2274083  25.4060113  45.5683833  35.0614083
  26.0530113  45.3943833  34.6544083  29.1940113  53.6193833  25.5884083
  28.7430113  54.2623833  25.9674083  29.9020113  53.5403833  26.0934083
  29.2320113  53.7023833  25.7194083  25.8950113  48.7093833  28.5184083
  25.2010113  49.1113833  28.8614083  26.5720113  49.1423833  28.8574083
  25.8920113  48.8323833  28.6194083  31.2720113  51.3023833  35.0984083
  32.0480113  50.9123833  35.1814083  30.8030113  50.9663833  35.7534083
  31.3170113  51.1953833  35.2074083  18.9630113  42.2473833  30.8654083
  19.3380113  42.8663833  30.3784083  19.6370113  41.7733833  31.1504083
  19.1180113  42.2693833  30.8354083  16.7380113  40.6953833  30.1404083
  16.8150113  40.5263833  29.2874083  17.4840113  41.1013833  30.3374083
  16.8590113  40.7303833  30.0434083  32.2970113  43.3353833  20.5804083
  32.4000113  43.2773833  19.7164083  33.0380113  43.0033833  20.8984083
  32.4220113  43.2783833  20.4994083  19.2920113  38.1053833  32.5514083
  19.2110113  37.2613833  32.7574083  18.9780113  38.1493833  31.7384083
  19.2340113  37.9873833  32.4614083  26.2170113  50.3003833  21.6874083
  26.0120113  51.1333833  21.5284083  25.4420113  49.9183833  21.8094083
  26.0720113  50.3673833  21.6824083  31.3990113  43.4813833  29.9364083
  31.3970113  42.6183833  30.0604083  31.4660113  43.8053833  30.7434083
  31.4090113  43.4013833  30.0734083  16.1350113  45.9213833  30.3644083
  16.4550113  46.1403833  29.5834083  16.0350113  45.0563833  30.3094083
  16.1670113  45.8263833  30.2414083  17.5910113  41.8573833  16.9824083
  16.9190113  41.8713833  17.5384083  17.6860113  41.0093833  16.7984083
  17.5060113  41.7343833  17.0374083  27.2780113  38.2813833  33.7184083
  27.3700113  38.9933833  34.2124083  26.6410113  37.8363833  34.1154083
  27.1970113  38.3203833  33.8504083  26.2720113  38.4713833  24.5724083
  25.5720113  38.9893833  24.5164083  26.3100113  38.0913833  23.7884083
  26.1740113  38.4923833  24.4484083  21.5790113  50.5623833  18.0964083
  22.0200113  50.6423833  18.8444083  20.7740113  50.3463833  18.3544083
  21.5250113  50.5423833  18.2454083  29.8700113  38.9873833  27.3724083
  30.7250113  39.0863833  27.5174083  29.5010113  39.5403833  27.9374083
  29.9420113  39.0843833  27.4774083  20.8980113  45.2133833  31.7494083
  20.5020113  45.9873833  31.8244083  20.4920113  44.8403833  31.0734083
  20.7800113  45.2723833  31.6604083  30.1740113  44.2673833  25.8634083
  30.8400113  44.8083833  26.0234083  29.8290113  44.5783833  25.1244083
  30.2210113  44.3933833  25.7784083  30.4870113  52.3333833  21.6704083
  30.3130113  51.6793833  22.2204083  31.2000113  52.0623833  21.2474083
  30.5670113  52.1963833  21.6894083  18.9080113  49.6323833  18.6974083
  18.6640113  49.3253833  19.4774083  18.8750113  48.9293833  18.1814083
  18.8670113  49.4833833  18.7364083  21.7270113  47.8773833  17.4404083
  20.9090113  47.6093833  17.5804083  21.6990113  48.7293833  17.6254083
  21.6020113  47.9643833  17.4884083  21.3270113  38.1903833  29.1994083
  20.4630113  38.2743833  29.2794083  21.5470113  37.6763833  29.8684083
  21.2320113  38.1273833  29.3104083  33.3450113  36.8253833  30.5284083
  33.2930113  36.7813833  31.3984083  34.0320113  36.3223833  30.3384083
  33.4390113  36.7453833  30.6284083  25.4300113  38.9383833  27.5734083
  24.6930113  38.4843833  27.6864083  26.0010113  38.5363833  28.0964083
  25.4050113  38.8113833  27.6674083  28.1620113  49.7863833  29.3614083
  28.3680113  50.0873833  30.1534083  28.1010113  50.5083833  28.8764083
  28.1830113  49.9373833  29.4064083  27.6960113  54.0003833  33.6074083
  26.9430113  53.9823833  33.1664083  27.8640113  54.8523833  33.6914083
  27.6100113  54.1233833  33.5544083  22.9330113  43.2673833  32.7774083
  22.6110113  42.6913833  32.2074083  22.5740113  44.0223833  32.5314083
  22.8330113  43.2933833  32.6574083  23.7290113  36.5193833  17.4044083
  23.8070113  36.7663833  16.5714083  22.9860113  36.8963833  17.6624083
  23.6310113  36.6113833  17.3194083  32.9740113  48.4253833  28.8194083
  32.9420113  47.5633833  28.6844083  32.2810113  48.7273833  28.3854083
  32.8670113  48.3423833  28.7354083  21.3680113  53.6233833  33.0254083
  21.4090113  53.7493833  33.8884083  22.0190113  53.0633833  32.8694083
  21.4700113  53.5593833  33.1304083  31.0790113  51.6853833  27.6164083
  31.6060113  51.6023833  26.9254083  30.6880113  50.9073833  27.6704083
  31.0990113  51.5583833  27.5224083  18.5470113  38.2733833  29.8474083
  18.2040113  37.5063833  29.6134083  17.8520113  38.7973833  29.9114083
  18.3940113  38.2373833  29.8224083  27.5930113  37.1293833  26.8244083
  28.2630113  37.6733833  26.9514083  27.0900113  37.5533833  26.2514083
  27.6180113  37.2723833  26.7584083  18.9610113  52.0063833  34.3854083
  19.5560113  52.4373833  34.8574083  18.5970113  52.6303833  33.8964083
  18.9950113  52.1623833  34.3824083  26.9520113  42.9373833  24.3174083
  27.5030113  42.3303833  24.6174083  26.5270113  43.2003833  25.0324083
  26.9710113  42.8863833  24.4664083  17.2000113  41.5873833  23.8034083
  16.8320113  41.8893833  24.5344083  17.7340113  40.9583833  24.0874083
  17.2240113  41.5393833  23.9534083  16.8880113  49.9953833  31.3144083
  16.3140113  50.4113833  31.8234083  17.6210113  50.4603833  31.4094083
  16.9120113  50.1253833  31.4034083  28.9220113  44.7683833  20.8794083
  28.9900113  43.9183833  21.0604083  28.0990113  44.8543833  20.6014083
  28.8100113  44.6553833  20.8654083  18.6740113  53.2623833  20.0894083
  18.5290113  53.4183833  19.2434083  19.5400113  53.3413833  20.1674083
  18.7810113  53.2973833  19.9764083  22.8410113  45.6593833  19.8174083
  22.9410113  45.7983833  18.9624083  23.6590113  45.5993833  20.1134083
  22.9760113  45.6703833  19.7344083  32.0010113  53.7233833  17.2974083
  32.6380113  53.5893833  17.8784083  31.6600113  52.9293833  17.1804083
  32.0450113  53.5863833  17.3654083  32.1960113  46.1413833  34.0304083
  32.8300113  45.9713833  34.6044083  32.6130113  46.5443833  33.3784083
  32.3510113  46.1763833  34.0194083  28.0760113  49.9883833  19.6194083
  27.8250113  49.8603833  20.4454083  27.7590113  49.2933833  19.1984083
  27.9920113  49.8673833  19.6794083  32.7200113  41.6463833  27.7394083
  31.8870113  41.8963833  27.6674083  32.6640113  40.8063833  27.9684083
  32.5890113  41.5593833  27.7624083  21.9800113  38.6343833  32.9334083
  22.2140113  38.0583833  32.3204083  21.1380113  38.4533833  33.0744083
  21.8900113  38.5223833  32.8634083  29.6070113  46.2523833  35.3854083
  30.4780113  46.2163833  35.3494083  29.3880113  46.6723833  34.6534083
  29.7040113  46.3083833  35.2724083  19.3610113  52.0773833  26.5664083
  19.2820113  51.2673833  26.2504083  18.9170113  52.5643833  25.9944083
  19.2840113  52.0293833  26.4354083  24.9620113  48.1963833  19.0494083
  25.6790113  47.8493833  18.6934083  24.9280113  48.9963833  18.7014083
  25.0630113  48.2633833  18.9454083  16.9330113  54.3213833  30.1474083
  17.4260113  54.2653833  30.8654083  17.1210113  53.5883833  29.7124083
  17.0340113  54.2043833  30.1894083  26.3710113  36.8373833   3.2881673
  26.1260113  37.3253833   2.6081673  27.2340113  36.7643833   3.1881673
  26.4620113  36.8983833   3.1731673  26.1800113  43.7533833   7.9591673
  25.6560113  44.3493833   8.3221673  26.5770113  43.3853833   8.6431673
  26.1610113  43.7873833   8.1141673  16.0490113  47.8933833   3.4151673
  15.6080113  48.0113833   4.1581673  15.7660113  47.1183833   3.1301673
  15.9420113  47.7963833   3.4831673  28.8510113  44.8203833   4.6351673
  28.9310113  44.8243833   3.7661673  28.2670113  44.1883833   4.7841673
  28.7760113  44.7273833   4.5291673  18.5580113  48.5893833   2.4941673
  19.1660113  48.4193833   3.0971673  17.8070113  48.4493833   2.9151673
  18.5370113  48.5433833   2.6451673  22.8400113  37.9243833   2.4431673
  22.7700113  38.6013833   1.8971673  23.5810113  37.5363833   2.1941673
  22.9390113  37.9673833   2.3251673  15.9890113  50.6283833   9.6701673
  16.1180113  50.3483833  10.4861673  15.3790113  50.0873833   9.3611673
  15.9180113  50.5073833   9.7451673  22.5630113  48.1533833  14.7371673
  22.3270113  48.1503833  15.5771673  21.8150113  48.0053833  14.3131673
  22.4170113  48.1303833  14.7981673  17.4350113  45.1493833   3.8721673
  16.9730113  44.7573833   3.2451673  18.1350113  44.6363833   3.9641673
  17.4700113  45.0163833   3.7931673  21.9430113  40.7593833   9.2191673
  22.6210113  40.7773833   8.6701673  21.8980113  39.9233833   9.4641673
  22.0360113  40.6383833   9.1741673  22.5450113  51.3453833  12.0001673
  22.6830113  52.1053833  11.5931673  23.3360113  50.9803833  12.0271673
  22.6820113  51.4043833  11.9441673  19.4360113  43.2493833   3.8951673
  20.2530113  43.0623833   4.1381673  18.9590113  42.6353833   4.2911673
  19.4860113  43.1313833   3.9901673  23.6400113  49.2303833   6.5051673
  23.9880113  48.4313833   6.5351673  24.3050113  49.7343833   6.2501673
  23.7900113  49.1863833   6.4721673  23.6970113  48.6793833   2.7161673
  24.0280113  48.0353833   3.2021673  23.9370113  48.4683833   1.9051673
  23.7810113  48.5533833   2.6681673  25.6650113  42.8103833  14.0551673
  24.8170113  42.7113833  13.8771673  25.6940113  43.5553833  14.5091673
  25.5440113  42.9063833  14.0961673  20.0330113  38.3433833   3.1611673
  19.7370113  38.8443833   2.5111673  20.9000113  38.4213833   3.1041673
  20.1170113  38.4293833   3.0571673  30.2230113  35.7703833  13.1691673
  30.0650113  36.5393833  12.7871673  29.4510113  35.5503833  13.5131673
  30.0850113  35.8513833  13.1641673  23.0120113  37.4853833   5.3841673
  23.0850113  38.3453833   5.5131673  22.9740113  37.4103833   4.5161673
  23.0170113  37.6013833   5.2751673  15.8910113  42.9103833   6.8851673
  15.6350113  43.7413833   6.8101673  15.2270113  42.5273833   7.3021673
  15.7550113  42.9763833   6.9361673  15.8010113  52.6203833   4.7851673
  15.2090113  53.1783833   4.4721673  16.2270113  52.3513833   4.0731673
  15.7770113  52.6623833   4.6341673  21.6410113  50.4643833   2.2651673
  21.0620113  50.1893833   2.8571673  22.2650113  49.8553833   2.2901673
  21.6480113  50.3343833   2.3561673  25.9520113  53.1443833   1.7771673
  26.1660113  53.6713833   2.4391673  26.7190113  52.9703833   1.3981673
  26.0970113  53.1963833   1.8191673  18.9200113  37.7273833   7.3761673
  18.3990113  37.0993833   7.0681673  19.5110113  37.2903833   7.8471673
  18.9310113  37.5693833   7.4001673  22.2260113  39.8603833  16.6741673
  22.3430113  39.4063833  15.9381673  22.5140113  40.6583833  16.4711673
  22.2860113  39.9113833  16.5351673  17.3460113  51.2903833   2.7161673
  18.0020113  50.7153833   2.7311673  17.7350113  52.0393833   2.4951673
  17.5010113  51.3153833   2.6861673  33.0790113  40.3843833   3.9781673
  32.7330113  41.0623833   4.4041673  32.4430113  39.7863833   3.9941673
  32.9340113  40.3963833   4.0431673  28.3910113  53.1543833  10.0821673
  29.1350113  53.6103833  10.0721673  28.2700113  52.9403833   9.2451673
  28.4830113  53.1903833   9.9571673  17.9590113  39.4573833  15.6581673
  17.1810113  39.0673833  15.5861673  18.4500113  39.0453833  15.0671673
  17.9160113  39.3383833  15.5601673  18.1640113  49.7773833   6.2161673
  18.5870113  49.4213833   5.5421673  18.4880113  49.3553833   6.9081673
  18.2740113  49.6623833   6.2191673  21.3950113  52.6293833   5.5121673
  22.2390113  52.7333833   5.3171673  21.0980113  53.4473833   5.5801673
  21.4760113  52.7653833   5.4931673  24.6080113  37.1003833  14.8261673
  24.7860113  36.2913833  14.5511673  24.4650113  37.5413833  14.0871673
  24.6130113  37.0463833  14.6761673  25.2020113  42.0263833   3.5991673
  25.4890113  41.7943833   2.8091673  25.9340113  42.1053833   4.0681673
  25.3520113  42.0033833   3.5521673  20.3930113  53.8483833  11.2521673
  20.6850113  53.7813833  12.0721673  19.7670113  53.2433833  11.2071673
  20.3440113  53.7493833  11.3671673  32.7540113  38.7073833   9.3471673
  33.5110113  38.7793833   8.9191673  32.8170113  37.9343833   9.7461673
  32.8750113  38.6043833   9.3421673  15.3070113  40.0053833  13.2441673
  15.3030113  40.5923833  13.8901673  15.9010113  40.3173833  12.6871673
  15.3940113  40.1383833  13.2571673  27.6450113  50.3393833  13.7861673
  27.6110113  50.7213833  14.5701673  28.4990113  50.2973833  13.6151673
  27.7660113  50.3893833  13.8771673  16.2440113  39.6003833   2.1591673
  16.1300113  38.7363833   2.1901673  15.7690113  39.8943833   2.8291673
  16.1570113  39.5163833   2.2621673  18.3860113  52.0103833  10.3741673
  17.6880113  51.5023833  10.5001673  18.6460113  51.8053833   9.5661673
  18.3210113  51.9053833  10.2731673  26.0970113  53.5033833  11.2841673
  26.8650113  53.4233833  10.8781673  25.5140113  53.3823833  10.6461673
  26.1240113  53.4733833  11.1301673  32.3740113  54.1063833   4.1851673
  31.9190113  54.8233833   4.3861673  31.7600113  53.5353833   3.9431673
  32.2160113  54.1283833   4.1791673  24.1460113  40.1163833   5.3171673
  24.2200113  40.6843833   4.6591673  24.2670113  40.6083833   6.0271673
  24.1740113  40.2733833   5.3251673  29.3710113  49.9513833   3.7291673
  30.0720113  49.4693833   3.9181673  28.7110113  49.3823833   3.7741673
  29.3770113  49.7963833   3.7631673  19.7470113  50.8613833  12.9411673
  20.5880113  50.9243833  12.7191673  19.7100113  51.2583833  13.7171673
  19.8660113  50.9293833  13.0231673  18.7540113  35.9393833   3.6651673
  19.2900113  36.6273833   3.6551673  18.7570113  35.6653833   2.8371673
  18.8330113  36.0003833   3.5411673  21.7100113  46.3723833   7.6901673
  21.8820113  46.1623833   8.5191673  21.0550113  45.8383833   7.4741673
  21.6390113  46.2623833   7.7811673  27.9380113  40.2863833  11.2051673
  27.8430113  40.6053833  12.0111673  27.3450113  39.6473833  11.1671673
  27.8360113  40.2383833  11.3191673  22.4600113  46.3103833  10.2801673
  22.5130113  47.1573833  10.4821673  22.1750113  45.9403833  11.0171673
  22.4260113  46.3803833  10.4181673  28.6370113  47.0053833   9.4101673
  28.1230113  46.5933833   9.9811673  28.5110113  47.8493833   9.5911673
  28.5430113  47.0693833   9.5211673  29.1940113  36.2303833   4.0411673
  29.2430113  35.9123833   4.8521673  29.5170113  35.5863833   3.5481673
  29.2490113  36.0883833   4.0881673  15.2810113  50.6813833  16.4911673
  16.0370113  51.0303833  16.7491673  15.4580113  49.8283833  16.4341673
  15.4190113  50.6063833  16.5211673  31.6580113  40.4663833  12.3491673
  32.4300113  40.2413833  12.6861673  31.1830113  40.6833833  13.0491673
  31.7020113  40.4653833  12.5021673  19.2020113  39.7493833   5.3191673
  19.4740113  39.3193833   4.6111673  19.0260113  39.1133833   5.8901673
  19.2160113  39.5923833   5.2991673  19.0260113  47.1763833   4.8681673
  19.8770113  47.0963833   4.6951673  18.6690113  46.4943833   4.4561673
  19.0990113  47.0633833   4.7811673  17.7930113  53.9013833   6.1051673
  17.1200113  53.4033833   5.8601673  18.1960113  54.0863833   5.3541673
  17.7530113  53.8553833   5.9581673  17.3430113  40.8513833   8.4011673
  18.1860113  41.0713833   8.3581673  16.9540113  41.4243833   7.8701673
  17.4100113  40.9683833   8.3161673  34.1240113  51.9533833  13.7911673
  33.4420113  52.2633833  13.3441673  33.7550113  51.4953833  14.4361673
  33.9680113  51.9313833  13.8201673  21.3940113  47.1833833   3.1031673
  22.1070113  47.6783833   3.1931673  21.6160113  46.6163833   2.4771673
  21.5320113  47.1723833   3.0241673  15.5500113  48.8263833   6.4231673
  14.8830113  49.3143833   6.6991673  16.2300113  49.3713833   6.4521673
  15.5520113  48.9783833   6.4681673  23.1970113  42.5363833  16.5191673
  22.7130113  43.1133833  16.9611673  23.1690113  42.8313833  15.6981673
  23.1210113  42.6653833  16.4631673  34.2950113  43.2203833  11.1311673
  34.5100113  42.4203833  10.8551673  33.4450113  43.2803833  10.9421673
  34.2010113  43.1113833  11.0621673  25.9170113  50.8863833   5.4301673
  25.3940113  51.5203833   5.1371673  26.2270113  50.5223833   4.7011673
  25.8850113  50.9263833   5.2791673  19.9920113  48.6743833   8.1901673
  20.4590113  48.9633833   8.8681673  20.5640113  48.1963833   7.7361673
  20.1460113  48.6463833   8.2231673  28.4280113  40.6883833   5.9271673
  28.7720113  40.8403833   6.7141673  27.9750113  39.9503833   6.0401673
  28.4120113  40.6013833   6.0601673  16.5580113  46.3443833   6.7341673
  16.9890113  46.2153833   5.9871673  16.3530113  47.1923833   6.7081673
  16.5910113  46.4503833   6.6201673  31.9580113  52.3353833  11.8811673
  31.2870113  52.8493833  12.0991673  32.0210113  52.4353833  11.0171673
  31.8680113  52.4263833  11.7861673  20.6420113  49.8603833   5.0161673
  20.7680113  50.7033833   5.2031673  21.3100113  49.4613833   5.4121673
  20.7600113  49.9263833   5.1021673  18.7720113  43.3433833  14.8781673
  18.2360113  42.8373833  15.3461673  18.7920113  42.9533833  14.0981673
  18.6950113  43.2103833  14.8321673  19.4240113  44.5703833   6.6171673
  18.6430113  44.5113833   6.2341673  19.4960113  43.8183833   7.0541673
  19.3190113  44.4513833   6.6251673  19.8540113  44.3073833  10.0851673
  19.8790113  43.6323833   9.5341673  19.2080113  44.8033833   9.7731673
  19.7630113  44.2803833   9.9581673  29.7490113  42.0203833   8.4811673
  29.0870113  42.3483833   8.9441673  29.9360113  42.6543833   7.9121673
  29.6790113  42.1623833   8.4651673  23.9540113  53.0843833   9.4771673
  23.6770113  52.4433833   8.9541673  23.7460113  53.8103833   9.0391673
  23.8830113  53.0973833   9.3351673  26.3940113  37.9263833  11.9101673
  26.5430113  37.1013833  11.6671673  26.7730113  37.9813833  12.6941673
  26.4720113  37.8123833  11.9901673  27.9420113  39.9893833   1.9921673
  28.4320113  40.7063833   1.9151673  27.1520113  40.2503833   1.7291673
  27.8980113  40.1333833   1.9421673  17.6530113  45.6623833  15.6441673
  17.6160113  46.1633833  14.9301673  17.9840113  44.9103833  15.3491673
  17.6960113  45.6243833  15.4951673  29.2560113  47.8673833  13.9021673
  29.7400113  48.5853833  14.0001673  29.6500113  47.4403833  13.2511673
  29.3860113  47.9103833  13.8201673  23.5520113  50.7123833  15.0791673
  23.9060113  50.5343833  15.8561673  23.1160113  49.9833833  14.8801673
  23.5400113  50.5783833  15.1651673  24.5240113  41.4593833   7.7171673
  25.0040113  42.1583833   7.9251673  24.8970113  40.8123833   8.1681673
  24.6500113  41.4673833   7.8141673  31.6850113  48.4983833   3.9721673
  32.0410113  48.1483833   4.6871673  31.6770113  47.8373833   3.4021673
  31.7370113  48.3483833   3.9931673  27.7300113  51.5643833   7.8161673
  27.1270113  51.2683833   7.2591673  28.2750113  52.0163833   7.3071673
  27.7210113  51.5873833   7.6581673  27.7430113  48.4153833   7.2161673
  26.9460113  48.6393833   7.4901673  28.0010113  47.8213833   7.8011673
  27.6630113  48.3603833   7.3431673  31.0030113  46.4133833  12.0621673
  31.0580113  46.5383833  11.2001673  31.7560113  46.7333833  12.3641673
  31.1220113  46.4783833  11.9791673  27.1940113  51.7623833  16.3391673
  27.3580113  52.0453833  17.1481673  27.4570113  52.4233833  15.8341673
  27.2570113  51.9023833  16.3841673  32.0350113  36.7113833  15.0491673
  31.3980113  36.3113833  14.6071673  32.0610113  36.2803833  15.8071673
  31.9450113  36.5893833  15.0951673  26.7340113  46.2193833  11.6621673
  26.5790113  46.8293833  12.2661673  27.2680113  45.6613833  12.0681673
  26.7900113  46.2273833  11.8111673  15.4250113  36.9383833   1.8631673
  15.5540113  36.2303833   1.3711673  15.0580113  36.6203833   2.5881673
  15.3900113  36.7863833   1.8981673  25.1180113  44.6193833   2.3201673
  25.1770113  45.2693833   2.8991673  24.9290113  43.9233833   2.8111673
  25.0990113  44.6123833   2.4781673  30.3440113  48.9483833   8.1891673
  29.8650113  49.2463833   7.5231673  29.9880113  48.1723833   8.3671673
  30.2210113  48.8773833   8.1171673  24.3410113  46.6663833   6.7511673
  23.4940113  46.4723833   6.8321673  24.6650113  46.5013833   7.5441673
  24.2630113  46.6133833   6.8801673  18.1890113  46.3593833   9.0671673
  18.9110113  46.8473833   9.0301673  17.9190113  46.3293833   8.2381673
  18.2560113  46.4273833   8.9391673  21.4190113  41.5303833   5.8021673
  22.2650113  41.3403833   5.9001673  21.0490113  40.7533833   5.6641673
  21.4890113  41.3873833   5.7961673  16.2400113  42.8683833   2.4571673
  16.7290113  42.5763833   3.1181673  16.3690113  42.2753833   1.8301673
  16.3310113  42.7373833   2.4621673  31.2750113  45.8903833   9.3081673
  31.2680113  45.1143833   9.7061673  30.4340113  46.1243833   9.3011673
  31.1500113  45.8103833   9.3661673  17.5840113  47.4113833  13.3451673
  17.1630113  46.8933833  12.7841673  17.2320113  48.1973833  13.2021673
  17.4700113  47.4513833  13.2411673  32.5310113  45.9613833   6.7451673
  32.2450113  46.3623833   7.4651673  33.3910113  45.8993833   6.8721673
  32.6160113  46.0113833   6.8701673  30.1930113  39.8853833  15.2851673
  29.6680113  40.3443833  15.8091673  29.8320113  39.0903833  15.2791673
  30.0620113  39.8353833  15.3611673  15.7000113  38.7333833   7.1891673
  15.7440113  39.0773833   6.3881673  16.4550113  38.9703833   7.5561673
  15.8180113  38.8193833   7.1251673  33.6620113  51.5943833   7.2741673
  33.9520113  51.8513833   6.4931673  34.3570113  51.6903833   7.7931673
  33.8080113  51.6463833   7.2351673  28.6850113  43.4543833  15.3611673
  28.7580113  43.5583833  16.2241673  28.0510113  44.0123833  15.1401673
  28.6020113  43.5523833  15.4561673  30.9530113  43.7733833  13.7261673
  31.2720113  44.5593833  13.9291673  30.5830113  43.5033833  14.4691673
  30.9460113  43.8493833  13.8661673  30.7490113  42.0313833   4.9151673
  30.0040113  41.7083833   5.2331673  30.7510113  42.8573833   5.1951673
  30.6390113  42.1053833   5.0031673  33.6510113  44.3153833  16.4611673
  33.5990113  43.9743833  15.6601673  34.3880113  44.7823833  16.4391673
  33.7520113  44.3343833  16.3391673  33.1890113  47.9913833  12.6671673
  33.8170113  47.4423833  12.4111673  33.1280113  48.5563833  12.0051673
  33.2730113  47.9943833  12.5311673  22.3230113  49.2223833   9.9631673
  22.0250113  49.8143833  10.5301673  22.3780113  49.6643833   9.2141673
  22.2870113  49.3753833   9.9361673  20.3020113  48.1723833  13.3611673
  19.4960113  47.8823833  13.5281673  20.2130113  49.0403833  13.3671673
  20.1700113  48.2573833  13.3861673  29.6610113  38.3613833  12.3761673
  30.4050113  38.8133833  12.3131673  29.0950113  38.8313833  11.9071673
  29.6880113  38.4983833  12.2981673  24.8390113  45.6453833   9.4541673
  25.3150113  46.0193833  10.0821673  24.0160113  45.7793833   9.7131673
  24.7880113  45.7203833   9.5851673  21.5490113  41.2483833  12.1951673
  21.7100113  40.5043833  12.6221673  21.5040113  40.9993833  11.3601673
  21.5660113  41.1013833  12.1351673  24.1030113  53.0383833   4.6821673
  24.6490113  53.7173833   4.7361673  23.7530113  53.1203833   3.8871673
  24.1320113  53.1513833   4.5721673  30.9460113  36.3413833  10.0461673
  30.6660113  37.1663833  10.0021673  31.6620113  36.3943833  10.5421673
  31.0110113  36.4713833  10.1131673  23.3010113  37.0563833  12.0751673
  24.0060113  37.3763833  11.6731673  23.5420113  36.2493833  12.3021673
  23.4400113  36.9843833  12.0491673  22.2860113  51.2663833   8.0711673
  21.6620113  51.8483833   7.8891673  22.5340113  50.9803833   7.2851673
  22.2300113  51.3103833   7.9281673  26.5950113  47.9003833  15.0601673
  27.3520113  48.1863833  14.7341673  26.0480113  47.9523833  14.3821673
  26.6260113  47.9503833  14.9111673  30.5040113  50.4503833  13.5641673
  30.8500113  50.7203833  14.3181673  30.7980113  51.0323833  12.9841673
  30.5990113  50.5763833  13.5901673  19.8100113  42.1093833   8.1361673
  20.2500113  42.0063833   7.3901673  20.3550113  41.7963833   8.7411673
  19.9550113  42.0483833   8.1151673  27.8260113  41.2113833  13.7281673
  27.1780113  41.6813833  14.0761673  28.3910113  41.1223833  14.3871673
  27.8140113  41.2673833  13.8771673  27.5140113  42.7483833  10.0261673
  27.8160113  43.1683833  10.7291673  27.5500113  41.9083833  10.2581673
  27.5640113  42.6863833  10.1641673  24.9390113  52.9153833  13.9511673
  25.4170113  52.3153833  13.5351673  24.5880113  52.4723833  14.6161673
  24.9580113  52.7613833  13.9881673  30.0620113  42.1953833   2.2781673
  30.2690113  41.9943833   3.1021673  30.8180113  42.4633833   1.9361673
  30.2040113  42.2053833   2.3491673  23.3570113  37.0943833   8.1831673
  22.5310113  36.9453833   8.4201673  23.3170113  37.1293833   7.3121673
  23.2290113  37.0773833   8.0891673  31.0840113  38.2783833   3.7521673
  30.3700113  37.8073833   3.9231673  30.9220113  38.6193833   2.9661673
  30.9550113  38.2593833   3.6611673  31.5270113  46.2223833   2.1321673
  32.0030113  45.4933833   2.0841673  30.7060113  45.9363833   2.0561673
  31.4760113  46.0723833   2.1131673  24.9980113  48.1343833  12.9711673
  24.2030113  48.0703833  13.3221673  25.0690113  48.9813833  12.7761673
  24.8910113  48.2493833  12.9941673  15.9220113  37.4923833  14.2181673
  15.7820113  38.2873833  13.8871673  15.1360113  37.2493833  14.5071673
  15.7850113  37.5743833  14.2121673  20.8280113  54.3413833   8.2881673
  20.8390113  54.4003833   9.1581673  20.4030113  53.5943833   8.1381673
  20.7670113  54.2393833   8.3941673  27.7430113  47.3893833   4.4871673
  27.8190113  47.7303833   5.2861673  27.9120113  46.5423833   4.6081673
  27.7790113  47.3143833   4.6231673  25.2650113  46.6633833   4.0521673
  24.9670113  46.3483833   4.8091673  25.9600113  47.1363833   4.2871673
  25.3240113  46.6863833   4.1991673  25.4870113  50.7813833  12.0791673
  26.1740113  50.6673833  12.6041673  25.6210113  51.5723833  11.7351673
  25.6080113  50.8813833  12.1061673  33.6630113  43.3903833  13.8901673
  32.8080113  43.2683833  14.0161673  33.8160113  42.9953833  13.1271673
  33.5590113  43.3133833  13.7961673  28.1760113  44.0553833  12.4661673
  27.9210113  43.3363833  12.8881673  28.9970113  44.1713833  12.7361673
  28.2600113  43.9663833  12.5681673  17.5920113  53.8393833  13.7301673
  16.9380113  53.2703833  13.8281673  17.2170113  54.6123833  13.8811673
  17.4400113  53.8693833  13.7671673  26.1100113  45.2453833  15.6531673
  26.4330113  45.9313833  15.2211673  25.4060113  45.5683833  16.0551673
  26.0530113  45.3943833  15.6481673  29.1940113  53.6193833   6.5821673
  28.7430113  54.2623833   6.9611673  29.9020113  53.5403833   7.0871673
  29.2320113  53.7023833   6.7131673  25.8950113  48.7093833   9.5121673
  25.2010113  49.1113833   9.8551673  26.5720113  49.1423833   9.8511673
  25.8920113  48.8323833   9.6131673  31.2720113  51.3023833  16.0921673
  32.0480113  50.9123833  16.1751673  30.8030113  50.9663833  16.7471673
  31.3170113  51.1953833  16.2011673  18.9630113  42.2473833  11.8591673
  19.3380113  42.8663833  11.3721673  19.6370113  41.7733833  12.1441673
  19.1180113  42.2693833  11.8291673  16.7380113  40.6953833  11.1341673
  16.8150113  40.5263833  10.2811673  17.4840113  41.1013833  11.3311673
  16.8590113  40.7303833  11.0371673  19.2920113  38.1053833  13.5451673
  19.2110113  37.2613833  13.7511673  18.9780113  38.1493833  12.7321673
  19.2340113  37.9873833  13.4551673  26.2170113  50.3003833   2.6811673
  26.0120113  51.1333833   2.5221673  25.4420113  49.9183833   2.8031673
  26.0720113  50.3673833   2.6761673  31.3990113  43.4813833  10.9301673
  31.3970113  42.6183833  11.0541673  31.4660113  43.8053833  11.7371673
  31.4090113  43.4013833  11.0671673  16.1350113  45.9213833  11.3581673
  16.4550113  46.1403833  10.5771673  16.0350113  45.0563833  11.3031673
  16.1670113  45.8263833  11.2351673  27.2780113  38.2813833  14.7121673
  27.3700113  38.9933833  15.2061673  26.6410113  37.8363833  15.1091673
  27.1970113  38.3203833  14.8441673  26.2720113  38.4713833   5.5661673
  25.5720113  38.9893833   5.5101673  26.3100113  38.0913833   4.7821673
  26.1740113  38.4923833   5.4421673  29.8700113  38.9873833   8.3661673
  30.7250113  39.0863833   8.5111673  29.5010113  39.5403833   8.9311673
  29.9420113  39.0843833   8.4711673  20.8980113  45.2133833  12.7431673
  20.5020113  45.9873833  12.8181673  20.4920113  44.8403833  12.0671673
  20.7800113  45.2723833  12.6541673  30.1740113  44.2673833   6.8571673
  30.8400113  44.8083833   7.0171673  29.8290113  44.5783833   6.1181673
  30.2210113  44.3933833   6.7721673  30.4870113  52.3333833   2.6641673
  30.3130113  51.6793833   3.2141673  31.2000113  52.0623833   2.2411673
  30.5670113  52.1963833   2.6831673  21.3270113  38.1903833  10.1931673
  20.4630113  38.2743833  10.2731673  21.5470113  37.6763833  10.8621673
  21.2320113  38.1273833  10.3041673  33.3450113  36.8253833  11.5221673
  33.2930113  36.7813833  12.3921673  34.0320113  36.3223833  11.3321673
  33.4390113  36.7453833  11.6221673  25.4300113  38.9383833   8.5671673
  24.6930113  38.4843833   8.6801673  26.0010113  38.5363833   9.0901673
  25.4050113  38.8113833   8.6611673  28.1620113  49.7863833  10.3551673
  28.3680113  50.0873833  11.1471673  28.1010113  50.5083833   9.8701673
  28.1830113  49.9373833  10.4001673  27.6960113  54.0003833  14.6011673
  26.9430113  53.9823833  14.1601673  27.8640113  54.8523833  14.6851673
  27.6100113  54.1233833  14.5481673  22.9330113  43.2673833  13.7711673
  22.6110113  42.6913833  13.2011673  22.5740113  44.0223833  13.5251673
  22.8330113  43.2933833  13.6511673  32.9740113  48.4253833   9.8131673
  32.9420113  47.5633833   9.6781673  32.2810113  48.7273833   9.3791673
  32.8670113  48.3423833   9.7291673  21.3680113  53.6233833  14.0191673
  21.4090113  53.7493833  14.8821673  22.0190113  53.0633833  13.8631673
  21.4700113  53.5593833  14.1241673  31.0790113  51.6853833   8.6101673
  31.6060113  51.6023833   7.9191673  30.6880113  50.9073833   8.6641673
  31.0990113  51.5583833   8.5161673  18.5470113  38.2733833  10.8411673
  18.2040113  37.5063833  10.6071673  17.8520113  38.7973833  10.9051673
  18.3940113  38.2373833  10.8161673  27.5930113  37.1293833   7.8181673
  28.2630113  37.6733833   7.9451673  27.0900113  37.5533833   7.2451673
  27.6180113  37.2723833   7.7521673  18.9610113  52.0063833  15.3791673
  19.5560113  52.4373833  15.8511673  18.5970113  52.6303833  14.8901673
  18.9950113  52.1623833  15.3761673  26.9520113  42.9373833   5.3111673
  27.5030113  42.3303833   5.6111673  26.5270113  43.2003833   6.0261673
  26.9710113  42.8863833   5.4601673  17.2000113  41.5873833   4.7971673
  16.8320113  41.8893833   5.5281673  17.7340113  40.9583833   5.0811673
  17.2240113  41.5393833   4.9471673  16.8880113  49.9953833  12.3081673
  16.3140113  50.4113833  12.8171673  17.6210113  50.4603833  12.4031673
  16.9120113  50.1253833  12.3971673  28.9220113  44.7683833   1.8731673
  28.9900113  43.9183833   2.0541673  28.0990113  44.8543833   1.5951673
  28.8100113  44.6553833   1.8591673  32.1960113  46.1413833  15.0241673
  32.8300113  45.9713833  15.5981673  32.6130113  46.5443833  14.3721673
  32.3510113  46.1763833  15.0131673  32.8210113  40.7053833  15.7621673
  32.6250113  41.3493833  16.3171673  32.0990113  40.2153833  15.7541673
  32.6860113  40.7283833  15.8431673  32.7200113  41.6463833   8.7331673
  31.8870113  41.8963833   8.6611673  32.6640113  40.8063833   8.9621673
  32.5890113  41.5593833   8.7561673  21.9800113  38.6343833  13.9271673
  22.2140113  38.0583833  13.3141673  21.1380113  38.4533833  14.0681673
  21.8900113  38.5223833  13.8571673  29.6070113  46.2523833  16.3791673
  30.4780113  46.2163833  16.3431673  29.3880113  46.6723833  15.6471673
  29.7040113  46.3083833  16.2661673  19.3610113  52.0773833   7.5601673
  19.2820113  51.2673833   7.2441673  18.9170113  52.5643833   6.9881673
  19.2840113  52.0293833   7.4291673  16.9330113  54.3213833  11.1411673
  17.4260113  54.2653833  11.8591673  17.1210113  53.5883833  10.7061673
  17.0340113  54.2043833  11.1831673  26.3710113  18.3592753  79.3131313
  26.1260113  18.8472753  78.6331313  27.2340113  18.2862753  79.2131313
  26.4620113  18.4202753  79.1981313  26.1800113  25.2752753  83.9841313
  25.6560113  25.8712753  84.3471313  26.5770113  24.9072753  84.6681313
  26.1610113  25.3092753  84.1391313  16.0490113  29.4152753  79.4401313
  15.6080113  29.5332753  80.1831313  15.7660113  28.6402753  79.1551313
  15.9420113  29.3182753  79.5081313  32.3240113  32.7162753  76.9551313
  33.0250113  32.1972753  76.9511313  31.7370113  32.2712753  76.4861313
  32.3410113  32.5732753  76.8851313  15.7920113  23.2072753  75.9471313
  15.0140113  23.3692753  75.5871313  15.8310113  22.3362753  75.9691313
  15.6830113  23.1022753  75.8971313  18.9310113  28.4702753  74.6191313
  18.5390113  28.0992753  73.9331313  18.8510113  27.8722753  75.2481313
  18.8610113  28.3272753  74.6101313  28.8510113  26.3422753  80.6601313
  28.9310113  26.3462753  79.7911313  28.2670113  25.7102753  80.8091313
  28.7760113  26.2492753  80.5541313  18.5580113  30.1112753  78.5191313
  19.1660113  29.9412753  79.1221313  17.8070113  29.9712753  78.9401313
  18.5370113  30.0652753  78.6701313  22.8400113  19.4462753  78.4681313
  22.7700113  20.1232753  77.9221313  23.5810113  19.0582753  78.2191313
  22.9390113  19.4892753  78.3501313  17.4490113  33.2022753  74.5961313
  17.9160113  33.2862753  73.8641313  17.9040113  32.6242753  75.0651313
  17.5850113  33.1292753  74.5571313  15.9890113  32.1502753  85.6951313
  16.1180113  31.8702753  86.5111313  15.3790113  31.6092753  85.3861313
  15.9180113  32.0292753  85.7701313  17.4350113  26.6712753  79.8971313
  16.9730113  26.2792753  79.2701313  18.1350113  26.1582753  79.9891313
  17.4700113  26.5382753  79.8181313  21.9430113  22.2812753  85.2441313
  22.6210113  22.2992753  84.6951313  21.8980113  21.4452753  85.4891313
  22.0360113  22.1602753  85.1991313  22.5450113  32.8672753  88.0251313
  22.6830113  33.6272753  87.6181313  23.3360113  32.5022753  88.0521313
  22.6820113  32.9262753  87.9691313  19.4360113  24.7712753  79.9201313
  20.2530113  24.5842753  80.1631313  18.9590113  24.1572753  80.3161313
  19.4860113  24.6532753  80.0151313  23.6400113  30.7522753  82.5301313
  23.9880113  29.9532753  82.5601313  24.3050113  31.2562753  82.2751313
  23.7900113  30.7082753  82.4971313  23.6970113  30.2012753  78.7411313
  24.0280113  29.5572753  79.2271313  23.9370113  29.9902753  77.9301313
  23.7810113  30.0752753  78.6931313  20.0330113  19.8652753  79.1861313
  19.7370113  20.3662753  78.5361313  20.9000113  19.9432753  79.1291313
  20.1170113  19.9512753  79.0821313  23.0120113  19.0072753  81.4091313
  23.0850113  19.8672753  81.5381313  22.9740113  18.9322753  80.5411313
  23.0170113  19.1232753  81.3001313  27.6850113  21.9332753  73.7081313
  27.2350113  22.6142753  74.0151313  27.7990113  21.4292753  74.4111313
  27.6360113  21.9592753  73.8571313  15.8910113  24.4322753  82.9101313
  15.6350113  25.2632753  82.8351313  15.2270113  24.0492753  83.3271313
  15.7550113  24.4982753  82.9611313  15.8010113  34.1422753  80.8101313
  15.2090113  34.7002753  80.4971313  16.2270113  33.8732753  80.0981313
  15.7770113  34.1842753  80.6591313  21.6410113  31.9862753  78.2901313
  21.0620113  31.7112753  78.8821313  22.2650113  31.3772753  78.3151313
  21.6480113  31.8562753  78.3811313  27.7840113  34.2742753  75.8121313
  28.5110113  34.7462753  75.9141313  28.0130113  33.4802753  76.0921313
  27.9260113  34.2272753  75.8691313  25.9520113  34.6662753  77.8021313
  26.1660113  35.1932753  78.4641313  26.7190113  34.4922753  77.4231313
  26.0970113  34.7182753  77.8441313  18.9200113  19.2492753  83.4011313
  18.3990113  18.6212753  83.0931313  19.5110113  18.8122753  83.8721313
  18.9310113  19.0912753  83.4251313  17.3460113  32.8122753  78.7411313
  18.0020113  32.2372753  78.7561313  17.7350113  33.5612753  78.5201313
  17.5010113  32.8372753  78.7111313  33.0790113  21.9062753  80.0031313
  32.7330113  22.5842753  80.4291313  32.4430113  21.3082753  80.0191313
  32.9340113  21.9182753  80.0681313  28.3910113  34.6762753  86.1071313
  29.1350113  35.1322753  86.0971313  28.2700113  34.4622753  85.2701313
  28.4830113  34.7122753  85.9821313  18.1640113  31.2992753  82.2411313
  18.5870113  30.9432753  81.5671313  18.4880113  30.8772753  82.9331313
  18.2740113  31.1842753  82.2441313  21.3950113  34.1512753  81.5371313
  22.2390113  34.2552753  81.3421313  21.0980113  34.9692753  81.6051313
  21.4760113  34.2872753  81.5181313  25.2020113  23.5482753  79.6241313
  25.4890113  23.3162753  78.8341313  25.9340113  23.6272753  80.0931313
  25.3520113  23.5252753  79.5771313  25.9240113  23.8872753  74.7451313
  26.2050113  24.6752753  74.9941313  25.1480113  24.0522753  74.3821313
  25.8510113  24.0282753  74.7281313  29.9650113  35.8612753  76.2121313
  30.6300113  35.7132753  75.6671313  30.3250113  35.7782753  77.0021313
  30.1170113  35.8272753  76.2481313  20.3930113  35.3702753  87.2771313
  20.6850113  35.3032753  88.0971313  19.7670113  34.7652753  87.2321313
  20.3440113  35.2712753  87.3921313  32.7540113  20.2292753  85.3721313
  33.5110113  20.3012753  84.9441313  32.8170113  19.4562753  85.7711313
  32.8750113  20.1262753  85.3671313  24.7830113  32.0582753  74.5611313
  24.6020113  32.6032753  75.2181313  25.5490113  32.3482753  74.2601313
  24.8690113  32.1822753  74.6141313  28.2900113  19.9542753  75.6151313
  28.8300113  19.2722753  75.6911313  28.3520113  20.3522753  76.3891313
  28.3790113  19.9122753  75.7411313  16.2440113  21.1222753  78.1841313
  16.1300113  20.2582753  78.2151313  15.7690113  21.4162753  78.8541313
  16.1570113  21.0382753  78.2871313  18.3860113  33.5322753  86.3991313
  17.6880113  33.0242753  86.5251313  18.6460113  33.3272753  85.5911313
  18.3210113  33.4272753  86.2981313  25.5480113  22.3302753  76.9291313
  25.0400113  21.6682753  76.6751313  25.6000113  22.8342753  76.2191313
  25.4810113  22.3072753  76.7871313  26.0970113  35.0252753  87.3091313
  26.8650113  34.9452753  86.9031313  25.5140113  34.9042753  86.6711313
  26.1240113  34.9952753  87.1551313  25.5480113  19.2712753  76.8201313
  25.0930113  18.8692753  76.1941313  26.3210113  19.4262753  76.4451313
  25.5950113  19.2352753  76.6721313  32.3740113  35.6282753  80.2101313
  31.9190113  36.3452753  80.4111313  31.7600113  35.0572753  79.9681313
  32.2160113  35.6502753  80.2041313  24.1460113  21.6382753  81.3421313
  24.2200113  22.2062753  80.6841313  24.2670113  22.1302753  82.0521313
  24.1740113  21.7952753  81.3501313  29.3710113  31.4732753  79.7541313
  30.0720113  30.9912753  79.9431313  28.7110113  30.9042753  79.7991313
  29.3770113  31.3182753  79.7881313  18.7540113  17.4612753  79.6901313
  19.2900113  18.1492753  79.6801313  18.7570113  17.1872753  78.8621313
  18.8330113  17.5222753  79.5661313  21.7100113  27.8942753  83.7151313
  21.8820113  27.6842753  84.5441313  21.0550113  27.3602753  83.4991313
  21.6390113  27.7842753  83.8061313  27.9380113  21.8082753  87.2301313
  27.8430113  22.1272753  88.0361313  27.3450113  21.1692753  87.1921313
  27.8360113  21.7602753  87.3441313  22.4600113  27.8322753  86.3051313
  22.5130113  28.6792753  86.5071313  22.1750113  27.4622753  87.0421313
  22.4260113  27.9022753  86.4431313  28.6370113  28.5272753  85.4351313
  28.1230113  28.1152753  86.0061313  28.5110113  29.3712753  85.6161313
  28.5430113  28.5912753  85.5461313  29.1940113  17.7522753  80.0661313
  29.2430113  17.4342753  80.8771313  29.5170113  17.1082753  79.5731313
  29.2490113  17.6102753  80.1131313  19.2020113  21.2712753  81.3441313
  19.4740113  20.8412753  80.6361313  19.0260113  20.6352753  81.9151313
  19.2160113  21.1142753  81.3241313  31.8900113  28.9662753  75.5621313
  32.0090113  28.6792753  76.3771313  32.6970113  28.9872753  75.2321313
  32.0260113  28.9272753  75.6341313  19.0260113  28.6982753  80.8931313
  19.8770113  28.6182753  80.7201313  18.6690113  28.0162753  80.4811313
  19.0990113  28.5852753  80.8061313  17.7930113  35.4232753  82.1301313
  17.1200113  34.9252753  81.8851313  18.1960113  35.6082753  81.3791313
  17.7530113  35.3772753  81.9831313  17.3430113  22.3732753  84.4261313
  18.1860113  22.5932753  84.3831313  16.9540113  22.9462753  83.8951313
  17.4100113  22.4902753  84.3411313  29.7850113  25.5032753  75.1471313
  29.5650113  26.2342753  74.7251313  29.3370113  25.5542753  75.8941313
  29.6860113  25.6182753  75.1951313  21.3940113  28.7052753  79.1281313
  22.1070113  29.2002753  79.2181313  21.6160113  28.1382753  78.5021313
  21.5320113  28.6942753  79.0491313  33.9720113  20.3642753  74.6001313
  33.3100113  19.7962753  74.6231313  33.7790113  20.8762753  73.9201313
  33.8460113  20.3562753  74.5031313  15.5500113  30.3482753  82.4481313
  14.8830113  30.8362753  82.7241313  16.2300113  30.8932753  82.4771313
  15.5520113  30.5002753  82.4931313  34.2950113  24.7422753  87.1561313
  34.5100113  23.9422753  86.8801313  33.4450113  24.8022753  86.9671313
  34.2010113  24.6332753  87.0871313  15.6160113  27.0322753  77.5511313
  15.4310113  26.1932753  77.7031313  16.2750113  26.9962753  76.9811313
  15.6860113  26.9032753  77.4891313  31.9740113  19.9222753  76.8791313
  32.7200113  19.5152753  77.0781313  32.2370113  20.6372753  76.4541313
  32.1230113  19.9682753  76.8461313  25.9170113  32.4082753  81.4551313
  25.3940113  33.0422753  81.1621313  26.2270113  32.0442753  80.7261313
  25.8850113  32.4482753  81.3041313  15.7880113  31.1962753  77.1261313
  16.3400113  31.7652753  77.4901313  15.5560113  30.6812753  77.7911313
  15.8350113  31.2042753  77.2781313  19.9920113  30.1962753  84.2151313
  20.4590113  30.4852753  84.8931313  20.5640113  29.7182753  83.7611313
  20.1460113  30.1682753  84.2481313  28.4280113  22.2102753  81.9521313
  28.7720113  22.3622753  82.7391313  27.9750113  21.4722753  82.0651313
  28.4120113  22.1232753  82.0851313  15.6180113  29.6452753  74.7541313
  16.3740113  29.2132753  74.8121313  15.6330113  30.1772753  75.4451313
  15.7320113  29.6602753  74.8651313  16.5580113  27.8662753  82.7591313
  16.9890113  27.7372753  82.0121313  16.3530113  28.7142753  82.7331313
  16.5910113  27.9722753  82.6451313  22.9040113  21.4302753  76.4091313
  22.9020113  21.3132753  75.5441313  22.7230113  22.2782753  76.5011313
  22.8770113  21.5382753  76.2951313  31.9580113  33.8572753  87.9061313
  31.2870113  34.3712753  88.1241313  32.0210113  33.9572753  87.0421313
  31.8680113  33.9482753  87.8111313  20.6420113  31.3822753  81.0411313
  20.7680113  32.2252753  81.2281313  21.3100113  30.9832753  81.4371313
  20.7600113  31.4482753  81.1271313  19.2570113  24.2622753  76.0431313
  19.1290113  23.8142753  76.7811313  18.6750113  23.9202753  75.4911313
  19.1520113  24.1452753  76.0711313  19.4240113  26.0922753  82.6421313
  18.6430113  26.0332753  82.2591313  19.4960113  25.3402753  83.0791313
  19.3190113  25.9732753  82.6501313  19.8540113  25.8292753  86.1101313
  19.8790113  25.1542753  85.5591313  19.2080113  26.3252753  85.7981313
  19.7630113  25.8022753  85.9831313  29.7490113  23.5422753  84.5061313
  29.0870113  23.8702753  84.9691313  29.9360113  24.1762753  83.9371313
  29.6790113  23.6842753  84.4901313  23.9540113  34.6062753  85.5021313
  23.6770113  33.9652753  84.9791313  23.7460113  35.3322753  85.0641313
  23.8830113  34.6192753  85.3601313  26.3940113  19.4482753  87.9351313
  26.5430113  18.6232753  87.6921313  26.7730113  19.5032753  88.7191313
  26.4720113  19.3342753  88.0151313  27.9420113  21.5112753  78.0171313
  28.4320113  22.2282753  77.9401313  27.1520113  21.7722753  77.7541313
  27.8980113  21.6552753  77.9671313  24.5240113  22.9812753  83.7421313
  25.0040113  23.6802753  83.9501313  24.8970113  22.3342753  84.1931313
  24.6500113  22.9892753  83.8391313  26.7130113  26.1502753  76.0161313
  26.7050113  26.8722753  75.5261313  26.0740113  26.2852753  76.5931313
  26.6180113  26.2772753  76.0291313  31.6850113  30.0202753  79.9971313
  32.0410113  29.6702753  80.7121313  31.6770113  29.3592753  79.4271313
  31.7370113  29.8702753  80.0181313  27.7300113  33.0862753  83.8411313
  27.1270113  32.7902753  83.2841313  28.2750113  33.5382753  83.3321313
  27.7210113  33.1092753  83.6831313  27.7430113  29.9372753  83.2411313
  26.9460113  30.1612753  83.5151313  28.0010113  29.3432753  83.8261313
  27.6630113  29.8822753  83.3681313  21.6350113  34.7492753  77.6891313
  21.4880113  33.9732753  78.0601313  22.3240113  34.6022753  77.1741313
  21.7150113  34.6122753  77.6681313  21.3060113  18.4922753  75.6771313
  21.4030113  18.3852753  76.5381313  20.5980113  18.9982753  75.6121313
  21.2160113  18.5512753  75.7951313  23.9270113  34.2652753  76.0911313
  24.5490113  34.4282753  76.6811313  23.9630113  34.9562753  75.5591313
  24.0240113  34.3912753  76.1001313  31.0030113  27.9352753  88.0871313
  31.0580113  28.0602753  87.2251313  31.7560113  28.2552753  88.3891313
  31.1220113  28.0002753  88.0041313  18.4280113  26.7992753  76.9201313
  18.7520113  26.0202753  76.6981313  19.0740113  27.1672753  77.3751313
  18.5710113  26.7382753  76.9541313  26.7340113  27.7412753  87.6871313
  26.5790113  28.3512753  88.2911313  27.2680113  27.1832753  88.0931313
  26.7900113  27.7492753  87.8361313  15.4250113  18.4602753  77.8881313
  15.5540113  17.7522753  77.3961313  15.0580113  18.1422753  78.6131313
  15.3900113  18.3082753  77.9231313  25.1180113  26.1412753  78.3451313
  25.1770113  26.7912753  78.9241313  24.9290113  25.4452753  78.8361313
  25.0990113  26.1342753  78.5031313  30.3440113  30.4702753  84.2141313
  29.8650113  30.7682753  83.5481313  29.9880113  29.6942753  84.3921313
  30.2210113  30.3992753  84.1421313  19.6140113  20.6582753  74.8571313
  19.1030113  20.7112753  74.1511313  20.3980113  20.8982753  74.5611313
  19.6540113  20.7012753  74.7091313  24.3410113  28.1882753  82.7761313
  23.4940113  27.9942753  82.8571313  24.6650113  28.0232753  83.5691313
  24.2630113  28.1352753  82.9051313  21.0930113  34.9182753  73.6621313
  21.5320113  34.2212753  73.9501313  21.3000113  35.5422753  74.2351313
  21.1890113  34.9072753  73.7891313  18.1890113  27.8812753  85.0921313
  18.9110113  28.3692753  85.0551313  17.9190113  27.8512753  84.2631313
  18.2560113  27.9492753  84.9641313  21.4190113  23.0522753  81.8271313
  22.2650113  22.8622753  81.9251313  21.0490113  22.2752753  81.6891313
  21.4890113  22.9092753  81.8211313  34.0360113  34.6362753  76.1541313
  34.7300113  34.1692753  75.9061313  33.4970113  34.0382753  76.4911313
  34.0590113  34.4782753  76.1671313  16.2400113  24.3902753  78.4821313
  16.7290113  24.0982753  79.1431313  16.3690113  23.7972753  77.8551313
  16.3310113  24.2592753  78.4871313  31.2750113  27.4122753  85.3331313
  31.2680113  26.6362753  85.7311313  30.4340113  27.6462753  85.3261313
  31.1500113  27.3322753  85.3911313  20.7650113  25.8242753  73.9681313
  20.1550113  25.4192753  74.4421313  20.3790113  25.9422753  73.1951313
  20.6180113  25.7812753  73.9241313  32.5310113  27.4832753  82.7701313
  32.2450113  27.8842753  83.4901313  33.3910113  27.4212753  82.8971313
  32.6160113  27.5332753  82.8951313  22.2200113  24.2852753  76.6781313
  22.4920113  25.1112753  76.7451313  21.3570113  24.3602753  76.5821313
  22.1330113  24.4182753  76.6731313  15.7000113  20.2552753  83.2141313
  15.7440113  20.5992753  82.4131313  16.4550113  20.4922753  83.5811313
  15.8180113  20.3412753  83.1501313  33.6620113  33.1162753  83.2991313
  33.9520113  33.3732753  82.5181313  34.3570113  33.2122753  83.8181313
  33.8080113  33.1682753  83.2601313  30.2670113  31.7192753  75.2811313
  30.6010113  30.9132753  75.3161313  29.5120113  31.6472753  75.7111313
  30.2050113  31.5892753  75.3501313  30.7490113  23.5532753  80.9401313
  30.0040113  23.2302753  81.2581313  30.7510113  24.3792753  81.2201313
  30.6390113  23.6272753  81.0281313  33.1890113  29.5132753  88.6921313
  33.8170113  28.9642753  88.4361313  33.1280113  30.0782753  88.0301313
  33.2730113  29.5162753  88.5561313  27.6410113  29.5942753  74.6841313
  28.3250113  29.0802753  74.5151313  27.2240113  29.6402753  73.9191313
  27.6800113  29.5252753  74.5461313  22.3230113  30.7442753  85.9881313
  22.0250113  31.3362753  86.5551313  22.3780113  31.1862753  85.2391313
  22.2870113  30.8972753  85.9611313  29.6610113  19.8832753  88.4011313
  30.4050113  20.3352753  88.3381313  29.0950113  20.3532753  87.9321313
  29.6880113  20.0202753  88.3231313  24.8390113  27.1672753  85.4791313
  25.3150113  27.5412753  86.1071313  24.0160113  27.3012753  85.7381313
  24.7880113  27.2422753  85.6101313  21.5490113  22.7702753  88.2201313
  21.7100113  22.0262753  88.6471313  21.5040113  22.5212753  87.3851313
  21.5660113  22.6232753  88.1601313  24.1030113  34.5602753  80.7071313
  24.6490113  35.2392753  80.7611313  23.7530113  34.6422753  79.9121313
  24.1320113  34.6732753  80.5971313  30.9460113  17.8632753  86.0711313
  30.6660113  18.6882753  86.0271313  31.6620113  17.9162753  86.5671313
  31.0110113  17.9932753  86.1381313  23.3010113  18.5782753  88.1001313
  24.0060113  18.8982753  87.6981313  23.5420113  17.7712753  88.3271313
  23.4400113  18.5062753  88.0741313  22.2860113  32.7882753  84.0961313
  21.6620113  33.3702753  83.9141313  22.5340113  32.5022753  83.3101313
  22.2300113  32.8322753  83.9531313  32.3670113  24.1182753  74.9281313
  32.7450113  24.7952753  74.5281313  31.5250113  24.3422753  74.9591313
  32.2980113  24.2512753  74.8731313  23.8800113  27.5642753  74.0111313
  23.0750113  27.3872753  73.7261313  23.8470113  28.4152753  74.2031313
  23.7560113  27.6632753  73.9981313  19.8100113  23.6312753  84.1611313
  20.2500113  23.5282753  83.4151313  20.3550113  23.3182753  84.7661313
  19.9550113  23.5702753  84.1401313  27.5140113  24.2702753  86.0511313
  27.8160113  24.6902753  86.7541313  27.5500113  23.4302753  86.2831313
  27.5640113  24.2082753  86.1891313  30.0620113  23.7172753  78.3031313
  30.2690113  23.5162753  79.1271313  30.8180113  23.9852753  77.9611313
  30.2040113  23.7272753  78.3741313  23.3570113  18.6162753  84.2081313
  22.5310113  18.4672753  84.4451313  23.3170113  18.6512753  83.3371313
  23.2290113  18.5992753  84.1141313  31.0840113  19.8002753  79.7771313
  30.3700113  19.3292753  79.9481313  30.9220113  20.1412753  78.9911313
  30.9550113  19.7812753  79.6861313  31.5270113  27.7442753  78.1571313
  32.0030113  27.0152753  78.1091313  30.7060113  27.4582753  78.0811313
  31.4760113  27.5942753  78.1381313  20.8280113  35.8632753  84.3131313
  20.8390113  35.9222753  85.1831313  20.4030113  35.1162753  84.1631313
  20.7670113  35.7612753  84.4191313  18.9860113  21.7582753  77.4681313
  19.1120113  21.4292753  76.6701313  18.1740113  21.5092753  77.6671313
  18.8850113  21.6732753  77.3801313  27.7430113  28.9112753  80.5121313
  27.8190113  29.2522753  81.3111313  27.9120113  28.0642753  80.6331313
  27.7790113  28.8362753  80.6481313  25.2650113  28.1852753  80.0771313
  24.9670113  27.8702753  80.8341313  25.9600113  28.6582753  80.3121313
  25.3240113  28.2082753  80.2241313  25.4870113  32.3032753  88.1041313
  26.1740113  32.1892753  88.6291313  25.6210113  33.0942753  87.7601313
  25.6080113  32.4032753  88.1311313  28.1760113  25.5772753  88.4911313
  27.9210113  24.8582753  88.9131313  28.9970113  25.6932753  88.7611313
  28.2600113  25.4882753  88.5931313  29.1940113  35.1412753  82.6071313
  28.7430113  35.7842753  82.9861313  29.9020113  35.0622753  83.1121313
  29.2320113  35.2242753  82.7381313  25.8950113  30.2312753  85.5371313
  25.2010113  30.6332753  85.8801313  26.5720113  30.6642753  85.8761313
  25.8920113  30.3542753  85.6381313  18.9630113  23.7692753  87.8841313
  19.3380113  24.3882753  87.3971313  19.6370113  23.2952753  88.1691313
  19.1180113  23.7912753  87.8541313  16.7380113  22.2172753  87.1591313
  16.8150113  22.0482753  86.3061313  17.4840113  22.6232753  87.3561313
  16.8590113  22.2522753  87.0621313  32.2970113  24.8572753  77.5991313
  32.4000113  24.7992753  76.7351313  33.0380113  24.5252753  77.9171313
  32.4220113  24.8002753  77.5181313  26.2170113  31.8222753  78.7061313
  26.0120113  32.6552753  78.5471313  25.4420113  31.4402753  78.8281313
  26.0720113  31.8892753  78.7011313  31.3990113  25.0032753  86.9551313
  31.3970113  24.1402753  87.0791313  31.4660113  25.3272753  87.7621313
  31.4090113  24.9232753  87.0921313  16.1350113  27.4432753  87.3831313
  16.4550113  27.6622753  86.6021313  16.0350113  26.5782753  87.3281313
  16.1670113  27.3482753  87.2601313  17.5910113  23.3792753  74.0011313
  16.9190113  23.3932753  74.5571313  17.6860113  22.5312753  73.8171313
  17.5060113  23.2562753  74.0561313  26.2720113  19.9932753  81.5911313
  25.5720113  20.5112753  81.5351313  26.3100113  19.6132753  80.8071313
  26.1740113  20.0142753  81.4671313  21.5790113  32.0842753  75.1151313
  22.0200113  32.1642753  75.8631313  20.7740113  31.8682753  75.3731313
  21.5250113  32.0642753  75.2641313  29.8700113  20.5092753  84.3911313
  30.7250113  20.6082753  84.5361313  29.5010113  21.0622753  84.9561313
  29.9420113  20.6062753  84.4961313  20.8980113  26.7352753  88.7681313
  20.5020113  27.5092753  88.8431313  20.4920113  26.3622753  88.0921313
  20.7800113  26.7942753  88.6791313  30.1740113  25.7892753  82.8821313
  30.8400113  26.3302753  83.0421313  29.8290113  26.1002753  82.1431313
  30.2210113  25.9152753  82.7971313  30.4870113  33.8552753  78.6891313
  30.3130113  33.2012753  79.2391313  31.2000113  33.5842753  78.2661313
  30.5670113  33.7182753  78.7081313  18.9080113  31.1542753  75.7161313
  18.6640113  30.8472753  76.4961313  18.8750113  30.4512753  75.2001313
  18.8670113  31.0052753  75.7551313  21.7270113  29.3992753  74.4591313
  20.9090113  29.1312753  74.5991313  21.6990113  30.2512753  74.6441313
  21.6020113  29.4862753  74.5071313  21.3270113  19.7122753  86.2181313
  20.4630113  19.7962753  86.2981313  21.5470113  19.1982753  86.8871313
  21.2320113  19.6492753  86.3291313  33.3450113  18.3472753  87.5471313
  33.2930113  18.3032753  88.4171313  34.0320113  17.8442753  87.3571313
  33.4390113  18.2672753  87.6471313  25.4300113  20.4602753  84.5921313
  24.6930113  20.0062753  84.7051313  26.0010113  20.0582753  85.1151313
  25.4050113  20.3332753  84.6861313  28.1620113  31.3082753  86.3801313
  28.3680113  31.6092753  87.1721313  28.1010113  32.0302753  85.8951313
  28.1830113  31.4592753  86.4251313  23.7290113  18.0412753  74.4231313
  23.8070113  18.2882753  73.5901313  22.9860113  18.4182753  74.6811313
  23.6310113  18.1332753  74.3381313  32.9740113  29.9472753  85.8381313
  32.9420113  29.0852753  85.7031313  32.2810113  30.2492753  85.4041313
  32.8670113  29.8642753  85.7541313  31.0790113  33.2072753  84.6351313
  31.6060113  33.1242753  83.9441313  30.6880113  32.4292753  84.6891313
  31.0990113  33.0802753  84.5411313  18.5470113  19.7952753  86.8661313
  18.2040113  19.0282753  86.6321313  17.8520113  20.3192753  86.9301313
  18.3940113  19.7592753  86.8411313  27.5930113  18.6512753  83.8431313
  28.2630113  19.1952753  83.9701313  27.0900113  19.0752753  83.2701313
  27.6180113  18.7942753  83.7771313  26.9520113  24.4592753  81.3361313
  27.5030113  23.8522753  81.6361313  26.5270113  24.7222753  82.0511313
  26.9710113  24.4082753  81.4851313  17.2000113  23.1092753  80.8221313
  16.8320113  23.4112753  81.5531313  17.7340113  22.4802753  81.1061313
  17.2240113  23.0612753  80.9721313  16.8880113  31.5172753  88.3331313
  16.3140113  31.9332753  88.8421313  17.6210113  31.9822753  88.4281313
  16.9120113  31.6472753  88.4221313  28.9220113  26.2902753  77.8981313
  28.9900113  25.4402753  78.0791313  28.0990113  26.3762753  77.6201313
  28.8100113  26.1772753  77.8841313  18.6740113  34.7842753  77.1081313
  18.5290113  34.9402753  76.2621313  19.5400113  34.8632753  77.1861313
  18.7810113  34.8192753  76.9951313  22.8410113  27.1812753  76.8361313
  22.9410113  27.3202753  75.9811313  23.6590113  27.1212753  77.1321313
  22.9760113  27.1922753  76.7531313  28.0760113  31.5102753  76.6381313
  27.8250113  31.3822753  77.4641313  27.7590113  30.8152753  76.2171313
  27.9920113  31.3892753  76.6981313  32.7200113  23.1682753  84.7581313
  31.8870113  23.4182753  84.6861313  32.6640113  22.3282753  84.9871313
  32.5890113  23.0812753  84.7811313  19.3610113  33.5992753  83.5851313
  19.2820113  32.7892753  83.2691313  18.9170113  34.0862753  83.0131313
  19.2840113  33.5512753  83.4541313  24.9620113  29.7182753  76.0681313
  25.6790113  29.3712753  75.7121313  24.9280113  30.5182753  75.7201313
  25.0630113  29.7852753  75.9641313  16.9330113  35.8432753  87.1661313
  17.4260113  35.7872753  87.8841313  17.1210113  35.1102753  86.7311313
  17.0340113  35.7262753  87.2081313  26.3710113  18.3592753  60.3068903
  26.1260113  18.8472753  59.6268903  27.2340113  18.2862753  60.2068903
  26.4620113  18.4202753  60.1918903  26.1800113  25.2752753  64.9778903
  25.6560113  25.8712753  65.3408903  26.5770113  24.9072753  65.6618903
  26.1610113  25.3092753  65.1328903  16.0490113  29.4152753  60.4338903
  15.6080113  29.5332753  61.1768903  15.7660113  28.6402753  60.1488903
  15.9420113  29.3182753  60.5018903  15.7920113  23.2072753  56.9408903
  15.0140113  23.3692753  56.5808903  15.8310113  22.3362753  56.9628903
  15.6830113  23.1022753  56.8908903  18.9310113  28.4702753  55.6128903
  18.5390113  28.0992753  54.9268903  18.8510113  27.8722753  56.2418903
  18.8610113  28.3272753  55.6038903  28.8510113  26.3422753  61.6538903
  28.9310113  26.3462753  60.7848903  28.2670113  25.7102753  61.8028903
  28.7760113  26.2492753  61.5478903  18.5580113  30.1112753  59.5128903
  19.1660113  29.9412753  60.1158903  17.8070113  29.9712753  59.9338903
  18.5370113  30.0652753  59.6638903  22.8400113  19.4462753  59.4618903
  22.7700113  20.1232753  58.9158903  23.5810113  19.0582753  59.2128903
  22.9390113  19.4892753  59.3438903  17.4490113  33.2022753  55.5898903
  17.9160113  33.2862753  54.8578903  17.9040113  32.6242753  56.0588903
  17.5850113  33.1292753  55.5508903  15.9890113  32.1502753  66.6888903
  16.1180113  31.8702753  67.5048903  15.3790113  31.6092753  66.3798903
  15.9180113  32.0292753  66.7638903  22.5630113  29.6752753  71.7558903
  22.3270113  29.6722753  72.5958903  21.8150113  29.5272753  71.3318903
  22.4170113  29.6522753  71.8168903  17.4350113  26.6712753  60.8908903
  16.9730113  26.2792753  60.2638903  18.1350113  26.1582753  60.9828903
  17.4700113  26.5382753  60.8118903  21.9430113  22.2812753  66.2378903
  22.6210113  22.2992753  65.6888903  21.8980113  21.4452753  66.4828903
  22.0360113  22.1602753  66.1928903  22.5450113  32.8672753  69.0188903
  22.6830113  33.6272753  68.6118903  23.3360113  32.5022753  69.0458903
  22.6820113  32.9262753  68.9628903  19.4360113  24.7712753  60.9138903
  20.2530113  24.5842753  61.1568903  18.9590113  24.1572753  61.3098903
  19.4860113  24.6532753  61.0088903  23.6400113  30.7522753  63.5238903
  23.9880113  29.9532753  63.5538903  24.3050113  31.2562753  63.2688903
  23.7900113  30.7082753  63.4908903  23.6970113  30.2012753  59.7348903
  24.0280113  29.5572753  60.2208903  23.9370113  29.9902753  58.9238903
  23.7810113  30.0752753  59.6868903  25.6650113  24.3322753  71.0738903
  24.8170113  24.2332753  70.8958903  25.6940113  25.0772753  71.5278903
  25.5440113  24.4282753  71.1148903  20.0330113  19.8652753  60.1798903
  19.7370113  20.3662753  59.5298903  20.9000113  19.9432753  60.1228903
  20.1170113  19.9512753  60.0758903  30.2230113  17.2922753  70.1878903
  30.0650113  18.0612753  69.8058903  29.4510113  17.0722753  70.5318903
  30.0850113  17.3732753  70.1828903  23.0120113  19.0072753  62.4028903
  23.0850113  19.8672753  62.5318903  22.9740113  18.9322753  61.5348903
  23.0170113  19.1232753  62.2938903  27.6850113  21.9332753  54.7018903
  27.2350113  22.6142753  55.0088903  27.7990113  21.4292753  55.4048903
  27.6360113  21.9592753  54.8508903  15.8910113  24.4322753  63.9038903
  15.6350113  25.2632753  63.8288903  15.2270113  24.0492753  64.3208903
  15.7550113  24.4982753  63.9548903  15.8010113  34.1422753  61.8038903
  15.2090113  34.7002753  61.4908903  16.2270113  33.8732753  61.0918903
  15.7770113  34.1842753  61.6528903  21.6410113  31.9862753  59.2838903
  21.0620113  31.7112753  59.8758903  22.2650113  31.3772753  59.3088903
  21.6480113  31.8562753  59.3748903  25.9520113  34.6662753  58.7958903
  26.1660113  35.1932753  59.4578903  26.7190113  34.4922753  58.4168903
  26.0970113  34.7182753  58.8378903  18.9200113  19.2492753  64.3948903
  18.3990113  18.6212753  64.0868903  19.5110113  18.8122753  64.8658903
  18.9310113  19.0912753  64.4188903  22.2260113  21.3822753  73.6928903
  22.3430113  20.9282753  72.9568903  22.5140113  22.1802753  73.4898903
  22.2860113  21.4332753  73.5538903  17.3460113  32.8122753  59.7348903
  18.0020113  32.2372753  59.7498903  17.7350113  33.5612753  59.5138903
  17.5010113  32.8372753  59.7048903  28.3910113  34.6762753  67.1008903
  29.1350113  35.1322753  67.0908903  28.2700113  34.4622753  66.2638903
  28.4830113  34.7122753  66.9758903  17.9590113  20.9792753  72.6768903
  17.1810113  20.5892753  72.6048903  18.4500113  20.5672753  72.0858903
  17.9160113  20.8602753  72.5788903  18.1640113  31.2992753  63.2348903
  18.5870113  30.9432753  62.5608903  18.4880113  30.8772753  63.9268903
  18.2740113  31.1842753  63.2378903  21.3950113  34.1512753  62.5308903
  22.2390113  34.2552753  62.3358903  21.0980113  34.9692753  62.5988903
  21.4760113  34.2872753  62.5118903  24.6080113  18.6222753  71.8448903
  24.7860113  17.8132753  71.5698903  24.4650113  19.0632753  71.1058903
  24.6130113  18.5682753  71.6948903  25.2020113  23.5482753  60.6178903
  25.4890113  23.3162753  59.8278903  25.9340113  23.6272753  61.0868903
  25.3520113  23.5252753  60.5708903  25.9240113  23.8872753  55.7388903
  26.2050113  24.6752753  55.9878903  25.1480113  24.0522753  55.3758903
  25.8510113  24.0282753  55.7218903  20.3930113  35.3702753  68.2708903
  20.6850113  35.3032753  69.0908903  19.7670113  34.7652753  68.2258903
  20.3440113  35.2712753  68.3858903  32.7540113  20.2292753  66.3658903
  33.5110113  20.3012753  65.9378903  32.8170113  19.4562753  66.7648903
  32.8750113  20.1262753  66.3608903  15.3070113  21.5272753  70.2628903
  15.3030113  22.1142753  70.9088903  15.9010113  21.8392753  69.7058903
  15.3940113  21.6602753  70.2758903  24.7830113  32.0582753  55.5548903
  24.6020113  32.6032753  56.2118903  25.5490113  32.3482753  55.2538903
  24.8690113  32.1822753  55.6078903  28.2900113  19.9542753  56.6088903
  28.8300113  19.2722753  56.6848903  28.3520113  20.3522753  57.3828903
  28.3790113  19.9122753  56.7348903  16.2440113  21.1222753  59.1778903
  16.1300113  20.2582753  59.2088903  15.7690113  21.4162753  59.8478903
  16.1570113  21.0382753  59.2808903  18.3860113  33.5322753  67.3928903
  17.6880113  33.0242753  67.5188903  18.6460113  33.3272753  66.5848903
  18.3210113  33.4272753  67.2918903  25.5480113  22.3302753  57.9228903
  25.0400113  21.6682753  57.6688903  25.6000113  22.8342753  57.2128903
  25.4810113  22.3072753  57.7808903  26.0970113  35.0252753  68.3028903
  26.8650113  34.9452753  67.8968903  25.5140113  34.9042753  67.6648903
  26.1240113  34.9952753  68.1488903  25.5480113  19.2712753  57.8138903
  25.0930113  18.8692753  57.1878903  26.3210113  19.4262753  57.4388903
  25.5950113  19.2352753  57.6658903  24.1460113  21.6382753  62.3358903
  24.2200113  22.2062753  61.6778903  24.2670113  22.1302753  63.0458903
  24.1740113  21.7952753  62.3438903  19.7470113  32.3832753  69.9598903
  20.5880113  32.4462753  69.7378903  19.7100113  32.7802753  70.7358903
  19.8660113  32.4512753  70.0418903  18.7540113  17.4612753  60.6838903
  19.2900113  18.1492753  60.6738903  18.7570113  17.1872753  59.8558903
  18.8330113  17.5222753  60.5598903  21.7100113  27.8942753  64.7088903
  21.8820113  27.6842753  65.5378903  21.0550113  27.3602753  64.4928903
  21.6390113  27.7842753  64.7998903  27.9380113  21.8082753  68.2238903
  27.8430113  22.1272753  69.0298903  27.3450113  21.1692753  68.1858903
  27.8360113  21.7602753  68.3378903  22.4600113  27.8322753  67.2988903
  22.5130113  28.6792753  67.5008903  22.1750113  27.4622753  68.0358903
  22.4260113  27.9022753  67.4368903  28.6370113  28.5272753  66.4288903
  28.1230113  28.1152753  66.9998903  28.5110113  29.3712753  66.6098903
  28.5430113  28.5912753  66.5398903  29.1940113  17.7522753  61.0598903
  29.2430113  17.4342753  61.8708903  29.5170113  17.1082753  60.5668903
  29.2490113  17.6102753  61.1068903  15.2810113  32.2032753  73.5098903
  16.0370113  32.5522753  73.7678903  15.4580113  31.3502753  73.4528903
  15.4190113  32.1282753  73.5398903  31.6580113  21.9882753  69.3678903
  32.4300113  21.7632753  69.7048903  31.1830113  22.2052753  70.0678903
  31.7020113  21.9872753  69.5208903  19.2020113  21.2712753  62.3378903
  19.4740113  20.8412753  61.6298903  19.0260113  20.6352753  62.9088903
  19.2160113  21.1142753  62.3178903  19.0260113  28.6982753  61.8868903
  19.8770113  28.6182753  61.7138903  18.6690113  28.0162753  61.4748903
  19.0990113  28.5852753  61.7998903  17.7930113  35.4232753  63.1238903
  17.1200113  34.9252753  62.8788903  18.1960113  35.6082753  62.3728903
  17.7530113  35.3772753  62.9768903  17.3430113  22.3732753  65.4198903
  18.1860113  22.5932753  65.3768903  16.9540113  22.9462753  64.8888903
  17.4100113  22.4902753  65.3348903  34.1240113  33.4752753  70.8098903
  33.4420113  33.7852753  70.3628903  33.7550113  33.0172753  71.4548903
  33.9680113  33.4532753  70.8388903  29.7850113  25.5032753  56.1408903
  29.5650113  26.2342753  55.7188903  29.3370113  25.5542753  56.8878903
  29.6860113  25.6182753  56.1888903  21.3940113  28.7052753  60.1218903
  22.1070113  29.2002753  60.2118903  21.6160113  28.1382753  59.4958903
  21.5320113  28.6942753  60.0428903  33.9720113  20.3642753  55.5938903
  33.3100113  19.7962753  55.6168903  33.7790113  20.8762753  54.9138903
  33.8460113  20.3562753  55.4968903  15.5500113  30.3482753  63.4418903
  14.8830113  30.8362753  63.7178903  16.2300113  30.8932753  63.4708903
  15.5520113  30.5002753  63.4868903  23.1970113  24.0582753  73.5378903
  22.7130113  24.6352753  73.9798903  23.1690113  24.3532753  72.7168903
  23.1210113  24.1872753  73.4818903  34.2950113  24.7422753  68.1498903
  34.5100113  23.9422753  67.8738903  33.4450113  24.8022753  67.9608903
  34.2010113  24.6332753  68.0808903  15.6160113  27.0322753  58.5448903
  15.4310113  26.1932753  58.6968903  16.2750113  26.9962753  57.9748903
  15.6860113  26.9032753  58.4828903  31.9740113  19.9222753  57.8728903
  32.7200113  19.5152753  58.0718903  32.2370113  20.6372753  57.4478903
  32.1230113  19.9682753  57.8398903  25.9170113  32.4082753  62.4488903
  25.3940113  33.0422753  62.1558903  26.2270113  32.0442753  61.7198903
  25.8850113  32.4482753  62.2978903  15.7880113  31.1962753  58.1198903
  16.3400113  31.7652753  58.4838903  15.5560113  30.6812753  58.7848903
  15.8350113  31.2042753  58.2718903  19.9920113  30.1962753  65.2088903
  20.4590113  30.4852753  65.8868903  20.5640113  29.7182753  64.7548903
  20.1460113  30.1682753  65.2418903  28.4280113  22.2102753  62.9458903
  28.7720113  22.3622753  63.7328903  27.9750113  21.4722753  63.0588903
  28.4120113  22.1232753  63.0788903  15.6180113  29.6452753  55.7478903
  16.3740113  29.2132753  55.8058903  15.6330113  30.1772753  56.4388903
  15.7320113  29.6602753  55.8588903  16.5580113  27.8662753  63.7528903
  16.9890113  27.7372753  63.0058903  16.3530113  28.7142753  63.7268903
  16.5910113  27.9722753  63.6388903  22.9040113  21.4302753  57.4028903
  22.9020113  21.3132753  56.5378903  22.7230113  22.2782753  57.4948903
  22.8770113  21.5382753  57.2888903  31.9580113  33.8572753  68.8998903
  31.2870113  34.3712753  69.1178903  32.0210113  33.9572753  68.0358903
  31.8680113  33.9482753  68.8048903  20.6420113  31.3822753  62.0348903
  20.7680113  32.2252753  62.2218903  21.3100113  30.9832753  62.4308903
  20.7600113  31.4482753  62.1208903  18.7720113  24.8652753  71.8968903
  18.2360113  24.3592753  72.3648903  18.7920113  24.4752753  71.1168903
  18.6950113  24.7322753  71.8508903  19.2570113  24.2622753  57.0368903
  19.1290113  23.8142753  57.7748903  18.6750113  23.9202753  56.4848903
  19.1520113  24.1452753  57.0648903  19.4240113  26.0922753  63.6358903
  18.6430113  26.0332753  63.2528903  19.4960113  25.3402753  64.0728903
  19.3190113  25.9732753  63.6438903  19.8540113  25.8292753  67.1038903
  19.8790113  25.1542753  66.5528903  19.2080113  26.3252753  66.7918903
  19.7630113  25.8022753  66.9768903  29.7490113  23.5422753  65.4998903
  29.0870113  23.8702753  65.9628903  29.9360113  24.1762753  64.9308903
  29.6790113  23.6842753  65.4838903  23.9540113  34.6062753  66.4958903
  23.6770113  33.9652753  65.9728903  23.7460113  35.3322753  66.0578903
  23.8830113  34.6192753  66.3538903  26.3940113  19.4482753  68.9288903
  26.5430113  18.6232753  68.6858903  26.7730113  19.5032753  69.7128903
  26.4720113  19.3342753  69.0088903  27.9420113  21.5112753  59.0108903
  28.4320113  22.2282753  58.9338903  27.1520113  21.7722753  58.7478903
  27.8980113  21.6552753  58.9608903  17.6530113  27.1842753  72.6628903
  17.6160113  27.6852753  71.9488903  17.9840113  26.4322753  72.3678903
  17.6960113  27.1462753  72.5138903  29.2560113  29.3892753  70.9208903
  29.7400113  30.1072753  71.0188903  29.6500113  28.9622753  70.2698903
  29.3860113  29.4322753  70.8388903  23.5520113  32.2342753  72.0978903
  23.9060113  32.0562753  72.8748903  23.1160113  31.5052753  71.8988903
  23.5400113  32.1002753  72.1838903  27.7300113  33.0862753  64.8348903
  27.1270113  32.7902753  64.2778903  28.2750113  33.5382753  64.3258903
  27.7210113  33.1092753  64.6768903  27.7430113  29.9372753  64.2348903
  26.9460113  30.1612753  64.5088903  28.0010113  29.3432753  64.8198903
  27.6630113  29.8822753  64.3618903  21.6350113  34.7492753  58.6828903
  21.4880113  33.9732753  59.0538903  22.3240113  34.6022753  58.1678903
  21.7150113  34.6122753  58.6618903  21.3060113  18.4922753  56.6708903
  21.4030113  18.3852753  57.5318903  20.5980113  18.9982753  56.6058903
  21.2160113  18.5512753  56.7888903  23.9270113  34.2652753  57.0848903
  24.5490113  34.4282753  57.6748903  23.9630113  34.9562753  56.5528903
  24.0240113  34.3912753  57.0938903  31.0030113  27.9352753  69.0808903
  31.0580113  28.0602753  68.2188903  31.7560113  28.2552753  69.3828903
  31.1220113  28.0002753  68.9978903  27.1940113  33.2842753  73.3578903
  27.3580113  33.5672753  74.1668903  27.4570113  33.9452753  72.8528903
  27.2570113  33.4242753  73.4028903  32.0350113  18.2332753  72.0678903
  31.3980113  17.8332753  71.6258903  32.0610113  17.8022753  72.8258903
  31.9450113  18.1112753  72.1138903  18.4280113  26.7992753  57.9138903
  18.7520113  26.0202753  57.6918903  19.0740113  27.1672753  58.3688903
  18.5710113  26.7382753  57.9478903  26.7340113  27.7412753  68.6808903
  26.5790113  28.3512753  69.2848903  27.2680113  27.1832753  69.0868903
  26.7900113  27.7492753  68.8298903  15.4250113  18.4602753  58.8818903
  15.5540113  17.7522753  58.3898903  15.0580113  18.1422753  59.6068903
  15.3900113  18.3082753  58.9168903  25.1180113  26.1412753  59.3388903
  25.1770113  26.7912753  59.9178903  24.9290113  25.4452753  59.8298903
  25.0990113  26.1342753  59.4968903  30.3440113  30.4702753  65.2078903
  29.8650113  30.7682753  64.5418903  29.9880113  29.6942753  65.3858903
  30.2210113  30.3992753  65.1358903  19.6140113  20.6582753  55.8508903
  19.1030113  20.7112753  55.1448903  20.3980113  20.8982753  55.5548903
  19.6540113  20.7012753  55.7028903  24.3410113  28.1882753  63.7698903
  23.4940113  27.9942753  63.8508903  24.6650113  28.0232753  64.5628903
  24.2630113  28.1352753  63.8988903  21.0930113  34.9182753  54.6558903
  21.5320113  34.2212753  54.9438903  21.3000113  35.5422753  55.2288903
  21.1890113  34.9072753  54.7828903  18.1890113  27.8812753  66.0858903
  18.9110113  28.3692753  66.0488903  17.9190113  27.8512753  65.2568903
  18.2560113  27.9492753  65.9578903  21.4190113  23.0522753  62.8208903
  22.2650113  22.8622753  62.9188903  21.0490113  22.2752753  62.6828903
  21.4890113  22.9092753  62.8148903  16.2400113  24.3902753  59.4758903
  16.7290113  24.0982753  60.1368903  16.3690113  23.7972753  58.8488903
  16.3310113  24.2592753  59.4808903  20.7650113  25.8242753  54.9618903
  20.1550113  25.4192753  55.4358903  20.3790113  25.9422753  54.1888903
  20.6180113  25.7812753  54.9178903  17.5840113  28.9332753  70.3638903
  17.1630113  28.4152753  69.8028903  17.2320113  29.7192753  70.2208903
  17.4700113  28.9732753  70.2598903  22.2200113  24.2852753  57.6718903
  22.4920113  25.1112753  57.7388903  21.3570113  24.3602753  57.5758903
  22.1330113  24.4182753  57.6668903  30.1930113  21.4072753  72.3038903
  29.6680113  21.8662753  72.8278903  29.8320113  20.6122753  72.2978903
  30.0620113  21.3572753  72.3798903  15.7000113  20.2552753  64.2078903
  15.7440113  20.5992753  63.4068903  16.4550113  20.4922753  64.5748903
  15.8180113  20.3412753  64.1438903  28.6850113  24.9762753  72.3798903
  28.7580113  25.0802753  73.2428903  28.0510113  25.5342753  72.1588903
  28.6020113  25.0742753  72.4748903  30.9530113  25.2952753  70.7448903
  31.2720113  26.0812753  70.9478903  30.5830113  25.0252753  71.4878903
  30.9460113  25.3712753  70.8848903  30.7490113  23.5532753  61.9338903
  30.0040113  23.2302753  62.2518903  30.7510113  24.3792753  62.2138903
  30.6390113  23.6272753  62.0218903  33.6510113  25.8372753  73.4798903
  33.5990113  25.4962753  72.6788903  34.3880113  26.3042753  73.4578903
  33.7520113  25.8562753  73.3578903  33.1890113  29.5132753  69.6858903
  33.8170113  28.9642753  69.4298903  33.1280113  30.0782753  69.0238903
  33.2730113  29.5162753  69.5498903  27.6410113  29.5942753  55.6778903
  28.3250113  29.0802753  55.5088903  27.2240113  29.6402753  54.9128903
  27.6800113  29.5252753  55.5398903  22.3230113  30.7442753  66.9818903
  22.0250113  31.3362753  67.5488903  22.3780113  31.1862753  66.2328903
  22.2870113  30.8972753  66.9548903  20.3020113  29.6942753  70.3798903
  19.4960113  29.4042753  70.5468903  20.2130113  30.5622753  70.3858903
  20.1700113  29.7792753  70.4048903  29.6610113  19.8832753  69.3948903
  30.4050113  20.3352753  69.3318903  29.0950113  20.3532753  68.9258903
  29.6880113  20.0202753  69.3168903  24.8390113  27.1672753  66.4728903
  25.3150113  27.5412753  67.1008903  24.0160113  27.3012753  66.7318903
  24.7880113  27.2422753  66.6038903  21.5490113  22.7702753  69.2138903
  21.7100113  22.0262753  69.6408903  21.5040113  22.5212753  68.3788903
  21.5660113  22.6232753  69.1538903  24.1030113  34.5602753  61.7008903
  24.6490113  35.2392753  61.7548903  23.7530113  34.6422753  60.9058903
  24.1320113  34.6732753  61.5908903  23.3010113  18.5782753  69.0938903
  24.0060113  18.8982753  68.6918903  23.5420113  17.7712753  69.3208903
  23.4400113  18.5062753  69.0678903  22.2860113  32.7882753  65.0898903
  21.6620113  33.3702753  64.9078903  22.5340113  32.5022753  64.3038903
  22.2300113  32.8322753  64.9468903  26.5950113  29.4222753  72.0788903
  27.3520113  29.7082753  71.7528903  26.0480113  29.4742753  71.4008903
  26.6260113  29.4722753  71.9298903  30.5040113  31.9722753  70.5828903
  30.8500113  32.2422753  71.3368903  30.7980113  32.5542753  70.0028903
  30.5990113  32.0982753  70.6088903  32.3670113  24.1182753  55.9218903
  32.7450113  24.7952753  55.5218903  31.5250113  24.3422753  55.9528903
  32.2980113  24.2512753  55.8668903  23.8800113  27.5642753  55.0048903
  23.0750113  27.3872753  54.7198903  23.8470113  28.4152753  55.1968903
  23.7560113  27.6632753  54.9918903  19.8100113  23.6312753  65.1548903
  20.2500113  23.5282753  64.4088903  20.3550113  23.3182753  65.7598903
  19.9550113  23.5702753  65.1338903  27.8260113  22.7332753  70.7468903
  27.1780113  23.2032753  71.0948903  28.3910113  22.6442753  71.4058903
  27.8140113  22.7892753  70.8958903  27.5140113  24.2702753  67.0448903
  27.8160113  24.6902753  67.7478903  27.5500113  23.4302753  67.2768903
  27.5640113  24.2082753  67.1828903  24.9390113  34.4372753  70.9698903
  25.4170113  33.8372753  70.5538903  24.5880113  33.9942753  71.6348903
  24.9580113  34.2832753  71.0068903  30.0620113  23.7172753  59.2968903
  30.2690113  23.5162753  60.1208903  30.8180113  23.9852753  58.9548903
  30.2040113  23.7272753  59.3678903  23.3570113  18.6162753  65.2018903
  22.5310113  18.4672753  65.4388903  23.3170113  18.6512753  64.3308903
  23.2290113  18.5992753  65.1078903  31.0840113  19.8002753  60.7708903
  30.3700113  19.3292753  60.9418903  30.9220113  20.1412753  59.9848903
  30.9550113  19.7812753  60.6798903  24.9980113  29.6562753  69.9898903
  24.2030113  29.5922753  70.3408903  25.0690113  30.5032753  69.7948903
  24.8910113  29.7712753  70.0128903  15.9220113  19.0142753  71.2368903
  15.7820113  19.8092753  70.9058903  15.1360113  18.7712753  71.5258903
  15.7850113  19.0962753  71.2308903  20.8280113  35.8632753  65.3068903
  20.8390113  35.9222753  66.1768903  20.4030113  35.1162753  65.1568903
  20.7670113  35.7612753  65.4128903  18.9860113  21.7582753  58.4618903
  19.1120113  21.4292753  57.6638903  18.1740113  21.5092753  58.6608903
  18.8850113  21.6732753  58.3738903  27.7430113  28.9112753  61.5058903
  27.8190113  29.2522753  62.3048903  27.9120113  28.0642753  61.6268903
  27.7790113  28.8362753  61.6418903  25.2650113  28.1852753  61.0708903
  24.9670113  27.8702753  61.8278903  25.9600113  28.6582753  61.3058903
  25.3240113  28.2082753  61.2178903  25.4870113  32.3032753  69.0978903
  26.1740113  32.1892753  69.6228903  25.6210113  33.0942753  68.7538903
  25.6080113  32.4032753  69.1248903  33.6630113  24.9122753  70.9088903
  32.8080113  24.7902753  71.0348903  33.8160113  24.5172753  70.1458903
  33.5590113  24.8352753  70.8148903  28.1760113  25.5772753  69.4848903
  27.9210113  24.8582753  69.9068903  28.9970113  25.6932753  69.7548903
  28.2600113  25.4882753  69.5868903  17.5920113  35.3612753  70.7488903
  16.9380113  34.7922753  70.8468903  17.2170113  36.1342753  70.8998903
  17.4400113  35.3912753  70.7858903  26.1100113  26.7672753  72.6718903
  26.4330113  27.4532753  72.2398903  25.4060113  27.0902753  73.0738903
  26.0530113  26.9162753  72.6668903  29.1940113  35.1412753  63.6008903
  28.7430113  35.7842753  63.9798903  29.9020113  35.0622753  64.1058903
  29.2320113  35.2242753  63.7318903  25.8950113  30.2312753  66.5308903
  25.2010113  30.6332753  66.8738903  26.5720113  30.6642753  66.8698903
  25.8920113  30.3542753  66.6318903  31.2720113  32.8242753  73.1108903
  32.0480113  32.4342753  73.1938903  30.8030113  32.4882753  73.7658903
  31.3170113  32.7172753  73.2198903  18.9630113  23.7692753  68.8778903
  19.3380113  24.3882753  68.3908903  19.6370113  23.2952753  69.1628903
  19.1180113  23.7912753  68.8478903  16.7380113  22.2172753  68.1528903
  16.8150113  22.0482753  67.2998903  17.4840113  22.6232753  68.3498903
  16.8590113  22.2522753  68.0558903  32.2970113  24.8572753  58.5928903
  32.4000113  24.7992753  57.7288903  33.0380113  24.5252753  58.9108903
  32.4220113  24.8002753  58.5118903  19.2920113  19.6272753  70.5638903
  19.2110113  18.7832753  70.7698903  18.9780113  19.6712753  69.7508903
  19.2340113  19.5092753  70.4738903  26.2170113  31.8222753  59.6998903
  26.0120113  32.6552753  59.5408903  25.4420113  31.4402753  59.8218903
  26.0720113  31.8892753  59.6948903  31.3990113  25.0032753  67.9488903
  31.3970113  24.1402753  68.0728903  31.4660113  25.3272753  68.7558903
  31.4090113  24.9232753  68.0858903  16.1350113  27.4432753  68.3768903
  16.4550113  27.6622753  67.5958903  16.0350113  26.5782753  68.3218903
  16.1670113  27.3482753  68.2538903  17.5910113  23.3792753  54.9948903
  16.9190113  23.3932753  55.5508903  17.6860113  22.5312753  54.8108903
  17.5060113  23.2562753  55.0498903  27.2780113  19.8032753  71.7308903
  27.3700113  20.5152753  72.2248903  26.6410113  19.3582753  72.1278903
  27.1970113  19.8422753  71.8628903  26.2720113  19.9932753  62.5848903
  25.5720113  20.5112753  62.5288903  26.3100113  19.6132753  61.8008903
  26.1740113  20.0142753  62.4608903  21.5790113  32.0842753  56.1088903
  22.0200113  32.1642753  56.8568903  20.7740113  31.8682753  56.3668903
  21.5250113  32.0642753  56.2578903  29.8700113  20.5092753  65.3848903
  30.7250113  20.6082753  65.5298903  29.5010113  21.0622753  65.9498903
  29.9420113  20.6062753  65.4898903  20.8980113  26.7352753  69.7618903
  20.5020113  27.5092753  69.8368903  20.4920113  26.3622753  69.0858903
  20.7800113  26.7942753  69.6728903  30.1740113  25.7892753  63.8758903
  30.8400113  26.3302753  64.0358903  29.8290113  26.1002753  63.1368903
  30.2210113  25.9152753  63.7908903  18.9080113  31.1542753  56.7098903
  18.6640113  30.8472753  57.4898903  18.8750113  30.4512753  56.1938903
  18.8670113  31.0052753  56.7488903  21.7270113  29.3992753  55.4528903
  20.9090113  29.1312753  55.5928903  21.6990113  30.2512753  55.6378903
  21.6020113  29.4862753  55.5008903  21.3270113  19.7122753  67.2118903
  20.4630113  19.7962753  67.2918903  21.5470113  19.1982753  67.8808903
  21.2320113  19.6492753  67.3228903  33.3450113  18.3472753  68.5408903
  33.2930113  18.3032753  69.4108903  34.0320113  17.8442753  68.3508903
  33.4390113  18.2672753  68.6408903  25.4300113  20.4602753  65.5858903
  24.6930113  20.0062753  65.6988903  26.0010113  20.0582753  66.1088903
  25.4050113  20.3332753  65.6798903  28.1620113  31.3082753  67.3738903
  28.3680113  31.6092753  68.1658903  28.1010113  32.0302753  66.8888903
  28.1830113  31.4592753  67.4188903  27.6960113  35.5222753  71.6198903
  26.9430113  35.5042753  71.1788903  27.8640113  36.3742753  71.7038903
  27.6100113  35.6452753  71.5668903  22.9330113  24.7892753  70.7898903
  22.6110113  24.2132753  70.2198903  22.5740113  25.5442753  70.5438903
  22.8330113  24.8152753  70.6698903  23.7290113  18.0412753  55.4168903
  23.8070113  18.2882753  54.5838903  22.9860113  18.4182753  55.6748903
  23.6310113  18.1332753  55.3318903  21.3680113  35.1452753  71.0378903
  21.4090113  35.2712753  71.9008903  22.0190113  34.5852753  70.8818903
  21.4700113  35.0812753  71.1428903  31.0790113  33.2072753  65.6288903
  31.6060113  33.1242753  64.9378903  30.6880113  32.4292753  65.6828903
  31.0990113  33.0802753  65.5348903  18.5470113  19.7952753  67.8598903
  18.2040113  19.0282753  67.6258903  17.8520113  20.3192753  67.9238903
  18.3940113  19.7592753  67.8348903  27.5930113  18.6512753  64.8368903
  28.2630113  19.1952753  64.9638903  27.0900113  19.0752753  64.2638903
  27.6180113  18.7942753  64.7708903  18.9610113  33.5282753  72.3978903
  19.5560113  33.9592753  72.8698903  18.5970113  34.1522753  71.9088903
  18.9950113  33.6842753  72.3948903  26.9520113  24.4592753  62.3298903
  27.5030113  23.8522753  62.6298903  26.5270113  24.7222753  63.0448903
  26.9710113  24.4082753  62.4788903  17.2000113  23.1092753  61.8158903
  16.8320113  23.4112753  62.5468903  17.7340113  22.4802753  62.0998903
  17.2240113  23.0612753  61.9658903  16.8880113  31.5172753  69.3268903
  16.3140113  31.9332753  69.8358903  17.6210113  31.9822753  69.4218903
  16.9120113  31.6472753  69.4158903  28.9220113  26.2902753  58.8918903
  28.9900113  25.4402753  59.0728903  28.0990113  26.3762753  58.6138903
  28.8100113  26.1772753  58.8778903  18.6740113  34.7842753  58.1018903
  18.5290113  34.9402753  57.2558903  19.5400113  34.8632753  58.1798903
  18.7810113  34.8192753  57.9888903  22.8410113  27.1812753  57.8298903
  22.9410113  27.3202753  56.9748903  23.6590113  27.1212753  58.1258903
  22.9760113  27.1922753  57.7468903  32.1960113  27.6632753  72.0428903
  32.8300113  27.4932753  72.6168903  32.6130113  28.0662753  71.3908903
  32.3510113  27.6982753  72.0318903  28.0760113  31.5102753  57.6318903
  27.8250113  31.3822753  58.4578903  27.7590113  30.8152753  57.2108903
  27.9920113  31.3892753  57.6918903  32.8210113  22.2272753  72.7808903
  32.6250113  22.8712753  73.3358903  32.0990113  21.7372753  72.7728903
  32.6860113  22.2502753  72.8618903  32.7200113  23.1682753  65.7518903
  31.8870113  23.4182753  65.6798903  32.6640113  22.3282753  65.9808903
  32.5890113  23.0812753  65.7748903  21.9800113  20.1562753  70.9458903
  22.2140113  19.5802753  70.3328903  21.1380113  19.9752753  71.0868903
  21.8900113  20.0442753  70.8758903  29.6070113  27.7742753  73.3978903
  30.4780113  27.7382753  73.3618903  29.3880113  28.1942753  72.6658903
  29.7040113  27.8302753  73.2848903  19.3610113  33.5992753  64.5788903
  19.2820113  32.7892753  64.2628903  18.9170113  34.0862753  64.0068903
  19.2840113  33.5512753  64.4478903  24.9620113  29.7182753  57.0618903
  25.6790113  29.3712753  56.7058903  24.9280113  30.5182753  56.7138903
  25.0630113  29.7852753  56.9578903  16.9330113  35.8432753  68.1598903
  17.4260113  35.7872753  68.8778903  17.1210113  35.1102753  67.7248903
  17.0340113  35.7262753  68.2018903  26.3710113  18.3592753  41.3006493
  26.1260113  18.8472753  40.6206493  27.2340113  18.2862753  41.2006493
  26.4620113  18.4202753  41.1856493  26.1800113  25.2752753  45.9716493
  25.6560113  25.8712753  46.3346493  26.5770113  24.9072753  46.6556493
  26.1610113  25.3092753  46.1266493  16.0490113  29.4152753  41.4276493
  15.6080113  29.5332753  42.1706493  15.7660113  28.6402753  41.1426493
  15.9420113  29.3182753  41.4956493  15.7920113  23.2072753  37.9346493
  15.0140113  23.3692753  37.5746493  15.8310113  22.3362753  37.9566493
  15.6830113  23.1022753  37.8846493  18.9310113  28.4702753  36.6066493
  18.5390113  28.0992753  35.9206493  18.8510113  27.8722753  37.2356493
  18.8610113  28.3272753  36.5976493  28.8510113  26.3422753  42.6476493
  28.9310113  26.3462753  41.7786493  28.2670113  25.7102753  42.7966493
  28.7760113  26.2492753  42.5416493  18.5580113  30.1112753  40.5066493
  19.1660113  29.9412753  41.1096493  17.8070113  29.9712753  40.9276493
  18.5370113  30.0652753  40.6576493  22.8400113  19.4462753  40.4556493
  22.7700113  20.1232753  39.9096493  23.5810113  19.0582753  40.2066493
  22.9390113  19.4892753  40.3376493  17.4490113  33.2022753  36.5836493
  17.9160113  33.2862753  35.8516493  17.9040113  32.6242753  37.0526493
  17.5850113  33.1292753  36.5446493  15.9890113  32.1502753  47.6826493
  16.1180113  31.8702753  48.4986493  15.3790113  31.6092753  47.3736493
  15.9180113  32.0292753  47.7576493  22.5630113  29.6752753  52.7496493
  22.3270113  29.6722753  53.5896493  21.8150113  29.5272753  52.3256493
  22.4170113  29.6522753  52.8106493  17.4350113  26.6712753  41.8846493
  16.9730113  26.2792753  41.2576493  18.1350113  26.1582753  41.9766493
  17.4700113  26.5382753  41.8056493  21.9430113  22.2812753  47.2316493
  22.6210113  22.2992753  46.6826493  21.8980113  21.4452753  47.4766493
  22.0360113  22.1602753  47.1866493  22.5450113  32.8672753  50.0126493
  22.6830113  33.6272753  49.6056493  23.3360113  32.5022753  50.0396493
  22.6820113  32.9262753  49.9566493  19.4360113  24.7712753  41.9076493
  20.2530113  24.5842753  42.1506493  18.9590113  24.1572753  42.3036493
  19.4860113  24.6532753  42.0026493  23.6400113  30.7522753  44.5176493
  23.9880113  29.9532753  44.5476493  24.3050113  31.2562753  44.2626493
  23.7900113  30.7082753  44.4846493  23.6970113  30.2012753  40.7286493
  24.0280113  29.5572753  41.2146493  23.9370113  29.9902753  39.9176493
  23.7810113  30.0752753  40.6806493  25.6650113  24.3322753  52.0676493
  24.8170113  24.2332753  51.8896493  25.6940113  25.0772753  52.5216493
  25.5440113  24.4282753  52.1086493  20.0330113  19.8652753  41.1736493
  19.7370113  20.3662753  40.5236493  20.9000113  19.9432753  41.1166493
  20.1170113  19.9512753  41.0696493  30.2230113  17.2922753  51.1816493
  30.0650113  18.0612753  50.7996493  29.4510113  17.0722753  51.5256493
  30.0850113  17.3732753  51.1766493  23.0120113  19.0072753  43.3966493
  23.0850113  19.8672753  43.5256493  22.9740113  18.9322753  42.5286493
  23.0170113  19.1232753  43.2876493  27.6850113  21.9332753  35.6956493
  27.2350113  22.6142753  36.0026493  27.7990113  21.4292753  36.3986493
  27.6360113  21.9592753  35.8446493  15.8910113  24.4322753  44.8976493
  15.6350113  25.2632753  44.8226493  15.2270113  24.0492753  45.3146493
  15.7550113  24.4982753  44.9486493  15.8010113  34.1422753  42.7976493
  15.2090113  34.7002753  42.4846493  16.2270113  33.8732753  42.0856493
  15.7770113  34.1842753  42.6466493  21.6410113  31.9862753  40.2776493
  21.0620113  31.7112753  40.8696493  22.2650113  31.3772753  40.3026493
  21.6480113  31.8562753  40.3686493  18.9200113  19.2492753  45.3886493
  18.3990113  18.6212753  45.0806493  19.5110113  18.8122753  45.8596493
  18.9310113  19.0912753  45.4126493  22.2260113  21.3822753  54.6866493
  22.3430113  20.9282753  53.9506493  22.5140113  22.1802753  54.4836493
  22.2860113  21.4332753  54.5476493  17.3460113  32.8122753  40.7286493
  18.0020113  32.2372753  40.7436493  17.7350113  33.5612753  40.5076493
  17.5010113  32.8372753  40.6986493  33.0790113  21.9062753  41.9906493
  32.7330113  22.5842753  42.4166493  32.4430113  21.3082753  42.0066493
  32.9340113  21.9182753  42.0556493  17.9590113  20.9792753  53.6706493
  17.1810113  20.5892753  53.5986493  18.4500113  20.5672753  53.0796493
  17.9160113  20.8602753  53.5726493  18.1640113  31.2992753  44.2286493
  18.5870113  30.9432753  43.5546493  18.4880113  30.8772753  44.9206493
  18.2740113  31.1842753  44.2316493  21.3950113  34.1512753  43.5246493
  22.2390113  34.2552753  43.3296493  21.0980113  34.9692753  43.5926493
  21.4760113  34.2872753  43.5056493  24.6080113  18.6222753  52.8386493
  24.7860113  17.8132753  52.5636493  24.4650113  19.0632753  52.0996493
  24.6130113  18.5682753  52.6886493  25.2020113  23.5482753  41.6116493
  25.4890113  23.3162753  40.8216493  25.9340113  23.6272753  42.0806493
  25.3520113  23.5252753  41.5646493  25.9240113  23.8872753  36.7326493
  26.2050113  24.6752753  36.9816493  25.1480113  24.0522753  36.3696493
  25.8510113  24.0282753  36.7156493  20.3930113  35.3702753  49.2646493
  20.6850113  35.3032753  50.0846493  19.7670113  34.7652753  49.2196493
  20.3440113  35.2712753  49.3796493  32.7540113  20.2292753  47.3596493
  33.5110113  20.3012753  46.9316493  32.8170113  19.4562753  47.7586493
  32.8750113  20.1262753  47.3546493  15.3070113  21.5272753  51.2566493
  15.3030113  22.1142753  51.9026493  15.9010113  21.8392753  50.6996493
  15.3940113  21.6602753  51.2696493  27.6450113  31.8612753  51.7986493
  27.6110113  32.2432753  52.5826493  28.4990113  31.8192753  51.6276493
  27.7660113  31.9112753  51.8896493  24.7830113  32.0582753  36.5486493
  24.6020113  32.6032753  37.2056493  25.5490113  32.3482753  36.2476493
  24.8690113  32.1822753  36.6016493  28.2900113  19.9542753  37.6026493
  28.8300113  19.2722753  37.6786493  28.3520113  20.3522753  38.3766493
  28.3790113  19.9122753  37.7286493  16.2440113  21.1222753  40.1716493
  16.1300113  20.2582753  40.2026493  15.7690113  21.4162753  40.8416493
  16.1570113  21.0382753  40.2746493  18.3860113  33.5322753  48.3866493
  17.6880113  33.0242753  48.5126493  18.6460113  33.3272753  47.5786493
  18.3210113  33.4272753  48.2856493  25.5480113  22.3302753  38.9166493
  25.0400113  21.6682753  38.6626493  25.6000113  22.8342753  38.2066493
  25.4810113  22.3072753  38.7746493  25.5480113  19.2712753  38.8076493
  25.0930113  18.8692753  38.1816493  26.3210113  19.4262753  38.4326493
  25.5950113  19.2352753  38.6596493  24.1460113  21.6382753  43.3296493
  24.2200113  22.2062753  42.6716493  24.2670113  22.1302753  44.0396493
  24.1740113  21.7952753  43.3376493  29.3710113  31.4732753  41.7416493
  30.0720113  30.9912753  41.9306493  28.7110113  30.9042753  41.7866493
  29.3770113  31.3182753  41.7756493  19.7470113  32.3832753  50.9536493
  20.5880113  32.4462753  50.7316493  19.7100113  32.7802753  51.7296493
  19.8660113  32.4512753  51.0356493  18.7540113  17.4612753  41.6776493
  19.2900113  18.1492753  41.6676493  18.7570113  17.1872753  40.8496493
  18.8330113  17.5222753  41.5536493  21.7100113  27.8942753  45.7026493
  21.8820113  27.6842753  46.5316493  21.0550113  27.3602753  45.4866493
  21.6390113  27.7842753  45.7936493  27.9380113  21.8082753  49.2176493
  27.8430113  22.1272753  50.0236493  27.3450113  21.1692753  49.1796493
  27.8360113  21.7602753  49.3316493  22.4600113  27.8322753  48.2926493
  22.5130113  28.6792753  48.4946493  22.1750113  27.4622753  49.0296493
  22.4260113  27.9022753  48.4306493  28.6370113  28.5272753  47.4226493
  28.1230113  28.1152753  47.9936493  28.5110113  29.3712753  47.6036493
  28.5430113  28.5912753  47.5336493  29.1940113  17.7522753  42.0536493
  29.2430113  17.4342753  42.8646493  29.5170113  17.1082753  41.5606493
  29.2490113  17.6102753  42.1006493  15.2810113  32.2032753  54.5036493
  16.0370113  32.5522753  54.7616493  15.4580113  31.3502753  54.4466493
  15.4190113  32.1282753  54.5336493  31.6580113  21.9882753  50.3616493
  32.4300113  21.7632753  50.6986493  31.1830113  22.2052753  51.0616493
  31.7020113  21.9872753  50.5146493  19.2020113  21.2712753  43.3316493
  19.4740113  20.8412753  42.6236493  19.0260113  20.6352753  43.9026493
  19.2160113  21.1142753  43.3116493  19.0260113  28.6982753  42.8806493
  19.8770113  28.6182753  42.7076493  18.6690113  28.0162753  42.4686493
  19.0990113  28.5852753  42.7936493  17.7930113  35.4232753  44.1176493
  17.1200113  34.9252753  43.8726493  18.1960113  35.6082753  43.3666493
  17.7530113  35.3772753  43.9706493  17.3430113  22.3732753  46.4136493
  18.1860113  22.5932753  46.3706493  16.9540113  22.9462753  45.8826493
  17.4100113  22.4902753  46.3286493  21.3940113  28.7052753  41.1156493
  22.1070113  29.2002753  41.2056493  21.6160113  28.1382753  40.4896493
  21.5320113  28.6942753  41.0366493  33.9720113  20.3642753  36.5876493
  33.3100113  19.7962753  36.6106493  33.7790113  20.8762753  35.9076493
  33.8460113  20.3562753  36.4906493  15.5500113  30.3482753  44.4356493
  14.8830113  30.8362753  44.7116493  16.2300113  30.8932753  44.4646493
  15.5520113  30.5002753  44.4806493  23.1970113  24.0582753  54.5316493
  22.7130113  24.6352753  54.9736493  23.1690113  24.3532753  53.7106493
  23.1210113  24.1872753  54.4756493  34.2950113  24.7422753  49.1436493
  34.5100113  23.9422753  48.8676493  33.4450113  24.8022753  48.9546493
  34.2010113  24.6332753  49.0746493  15.6160113  27.0322753  39.5386493
  15.4310113  26.1932753  39.6906493  16.2750113  26.9962753  38.9686493
  15.6860113  26.9032753  39.4766493  31.9740113  19.9222753  38.8666493
  32.7200113  19.5152753  39.0656493  32.2370113  20.6372753  38.4416493
  32.1230113  19.9682753  38.8336493  25.9170113  32.4082753  43.4426493
  25.3940113  33.0422753  43.1496493  26.2270113  32.0442753  42.7136493
  25.8850113  32.4482753  43.2916493  15.7880113  31.1962753  39.1136493
  16.3400113  31.7652753  39.4776493  15.5560113  30.6812753  39.7786493
  15.8350113  31.2042753  39.2656493  19.9920113  30.1962753  46.2026493
  20.4590113  30.4852753  46.8806493  20.5640113  29.7182753  45.7486493
  20.1460113  30.1682753  46.2356493  28.4280113  22.2102753  43.9396493
  28.7720113  22.3622753  44.7266493  27.9750113  21.4722753  44.0526493
  28.4120113  22.1232753  44.0726493  15.6180113  29.6452753  36.7416493
  16.3740113  29.2132753  36.7996493  15.6330113  30.1772753  37.4326493
  15.7320113  29.6602753  36.8526493  16.5580113  27.8662753  44.7466493
  16.9890113  27.7372753  43.9996493  16.3530113  28.7142753  44.7206493
  16.5910113  27.9722753  44.6326493  22.9040113  21.4302753  38.3966493
  22.9020113  21.3132753  37.5316493  22.7230113  22.2782753  38.4886493
  22.8770113  21.5382753  38.2826493  20.6420113  31.3822753  43.0286493
  20.7680113  32.2252753  43.2156493  21.3100113  30.9832753  43.4246493
  20.7600113  31.4482753  43.1146493  18.7720113  24.8652753  52.8906493
  18.2360113  24.3592753  53.3586493  18.7920113  24.4752753  52.1106493
  18.6950113  24.7322753  52.8446493  19.2570113  24.2622753  38.0306493
  19.1290113  23.8142753  38.7686493  18.6750113  23.9202753  37.4786493
  19.1520113  24.1452753  38.0586493  19.4240113  26.0922753  44.6296493
  18.6430113  26.0332753  44.2466493  19.4960113  25.3402753  45.0666493
  19.3190113  25.9732753  44.6376493  19.8540113  25.8292753  48.0976493
  19.8790113  25.1542753  47.5466493  19.2080113  26.3252753  47.7856493
  19.7630113  25.8022753  47.9706493  29.7490113  23.5422753  46.4936493
  29.0870113  23.8702753  46.9566493  29.9360113  24.1762753  45.9246493
  29.6790113  23.6842753  46.4776493  26.3940113  19.4482753  49.9226493
  26.5430113  18.6232753  49.6796493  26.7730113  19.5032753  50.7066493
  26.4720113  19.3342753  50.0026493  27.9420113  21.5112753  40.0046493
  28.4320113  22.2282753  39.9276493  27.1520113  21.7722753  39.7416493
  27.8980113  21.6552753  39.9546493  17.6530113  27.1842753  53.6566493
  17.6160113  27.6852753  52.9426493  17.9840113  26.4322753  53.3616493
  17.6960113  27.1462753  53.5076493  29.2560113  29.3892753  51.9146493
  29.7400113  30.1072753  52.0126493  29.6500113  28.9622753  51.2636493
  29.3860113  29.4322753  51.8326493  23.5520113  32.2342753  53.0916493
  23.9060113  32.0562753  53.8686493  23.1160113  31.5052753  52.8926493
  23.5400113  32.1002753  53.1776493  24.5240113  22.9812753  45.7296493
  25.0040113  23.6802753  45.9376493  24.8970113  22.3342753  46.1806493
  24.6500113  22.9892753  45.8266493  31.6850113  30.0202753  41.9846493
  32.0410113  29.6702753  42.6996493  31.6770113  29.3592753  41.4146493
  31.7370113  29.8702753  42.0056493  27.7430113  29.9372753  45.2286493
  26.9460113  30.1612753  45.5026493  28.0010113  29.3432753  45.8136493
  27.6630113  29.8822753  45.3556493  21.6350113  34.7492753  39.6766493
  21.4880113  33.9732753  40.0476493  22.3240113  34.6022753  39.1616493
  21.7150113  34.6122753  39.6556493  21.3060113  18.4922753  37.6646493
  21.4030113  18.3852753  38.5256493  20.5980113  18.9982753  37.5996493
  21.2160113  18.5512753  37.7826493  23.9270113  34.2652753  38.0786493
  24.5490113  34.4282753  38.6686493  23.9630113  34.9562753  37.5466493
  24.0240113  34.3912753  38.0876493  31.0030113  27.9352753  50.0746493
  31.0580113  28.0602753  49.2126493  31.7560113  28.2552753  50.3766493
  31.1220113  28.0002753  49.9916493  27.1940113  33.2842753  54.3516493
  27.3580113  33.5672753  55.1606493  27.4570113  33.9452753  53.8466493
  27.2570113  33.4242753  54.3966493  32.0350113  18.2332753  53.0616493
  31.3980113  17.8332753  52.6196493  32.0610113  17.8022753  53.8196493
  31.9450113  18.1112753  53.1076493  18.4280113  26.7992753  38.9076493
  18.7520113  26.0202753  38.6856493  19.0740113  27.1672753  39.3626493
  18.5710113  26.7382753  38.9416493  26.7340113  27.7412753  49.6746493
  26.5790113  28.3512753  50.2786493  27.2680113  27.1832753  50.0806493
  26.7900113  27.7492753  49.8236493  15.4250113  18.4602753  39.8756493
  15.5540113  17.7522753  39.3836493  15.0580113  18.1422753  40.6006493
  15.3900113  18.3082753  39.9106493  25.1180113  26.1412753  40.3326493
  25.1770113  26.7912753  40.9116493  24.9290113  25.4452753  40.8236493
  25.0990113  26.1342753  40.4906493  30.3440113  30.4702753  46.2016493
  29.8650113  30.7682753  45.5356493  29.9880113  29.6942753  46.3796493
  30.2210113  30.3992753  46.1296493  19.6140113  20.6582753  36.8446493
  19.1030113  20.7112753  36.1386493  20.3980113  20.8982753  36.5486493
  19.6540113  20.7012753  36.6966493  24.3410113  28.1882753  44.7636493
  23.4940113  27.9942753  44.8446493  24.6650113  28.0232753  45.5566493
  24.2630113  28.1352753  44.8926493  21.0930113  34.9182753  35.6496493
  21.5320113  34.2212753  35.9376493  21.3000113  35.5422753  36.2226493
  21.1890113  34.9072753  35.7766493  18.1890113  27.8812753  47.0796493
  18.9110113  28.3692753  47.0426493  17.9190113  27.8512753  46.2506493
  18.2560113  27.9492753  46.9516493  21.4190113  23.0522753  43.8146493
  22.2650113  22.8622753  43.9126493  21.0490113  22.2752753  43.6766493
  21.4890113  22.9092753  43.8086493  16.2400113  24.3902753  40.4696493
  16.7290113  24.0982753  41.1306493  16.3690113  23.7972753  39.8426493
  16.3310113  24.2592753  40.4746493  31.2750113  27.4122753  47.3206493
  31.2680113  26.6362753  47.7186493  30.4340113  27.6462753  47.3136493
  31.1500113  27.3322753  47.3786493  20.7650113  25.8242753  35.9556493
  20.1550113  25.4192753  36.4296493  20.3790113  25.9422753  35.1826493
  20.6180113  25.7812753  35.9116493  17.5840113  28.9332753  51.3576493
  17.1630113  28.4152753  50.7966493  17.2320113  29.7192753  51.2146493
  17.4700113  28.9732753  51.2536493  32.5310113  27.4832753  44.7576493
  32.2450113  27.8842753  45.4776493  33.3910113  27.4212753  44.8846493
  32.6160113  27.5332753  44.8826493  22.2200113  24.2852753  38.6656493
  22.4920113  25.1112753  38.7326493  21.3570113  24.3602753  38.5696493
  22.1330113  24.4182753  38.6606493  30.1930113  21.4072753  53.2976493
  29.6680113  21.8662753  53.8216493  29.8320113  20.6122753  53.2916493
  30.0620113  21.3572753  53.3736493  15.7000113  20.2552753  45.2016493
  15.7440113  20.5992753  44.4006493  16.4550113  20.4922753  45.5686493
  15.8180113  20.3412753  45.1376493  33.6620113  33.1162753  45.2866493
  33.9520113  33.3732753  44.5056493  34.3570113  33.2122753  45.8056493
  33.8080113  33.1682753  45.2476493  28.6850113  24.9762753  53.3736493
  28.7580113  25.0802753  54.2366493  28.0510113  25.5342753  53.1526493
  28.6020113  25.0742753  53.4686493  30.9530113  25.2952753  51.7386493
  31.2720113  26.0812753  51.9416493  30.5830113  25.0252753  52.4816493
  30.9460113  25.3712753  51.8786493  30.7490113  23.5532753  42.9276493
  30.0040113  23.2302753  43.2456493  30.7510113  24.3792753  43.2076493
  30.6390113  23.6272753  43.0156493  33.6510113  25.8372753  54.4736493
  33.5990113  25.4962753  53.6726493  34.3880113  26.3042753  54.4516493
  33.7520113  25.8562753  54.3516493  22.3230113  30.7442753  47.9756493
  22.0250113  31.3362753  48.5426493  22.3780113  31.1862753  47.2266493
  22.2870113  30.8972753  47.9486493  20.3020113  29.6942753  51.3736493
  19.4960113  29.4042753  51.5406493  20.2130113  30.5622753  51.3796493
  20.1700113  29.7792753  51.3986493  29.6610113  19.8832753  50.3886493
  30.4050113  20.3352753  50.3256493  29.0950113  20.3532753  49.9196493
  29.6880113  20.0202753  50.3106493  24.8390113  27.1672753  47.4666493
  25.3150113  27.5412753  48.0946493  24.0160113  27.3012753  47.7256493
  24.7880113  27.2422753  47.5976493  21.5490113  22.7702753  50.2076493
  21.7100113  22.0262753  50.6346493  21.5040113  22.5212753  49.3726493
  21.5660113  22.6232753  50.1476493  24.1030113  34.5602753  42.6946493
  24.6490113  35.2392753  42.7486493  23.7530113  34.6422753  41.8996493
  24.1320113  34.6732753  42.5846493  30.9460113  17.8632753  48.0586493
  30.6660113  18.6882753  48.0146493  31.6620113  17.9162753  48.5546493
  31.0110113  17.9932753  48.1256493  23.3010113  18.5782753  50.0876493
  24.0060113  18.8982753  49.6856493  23.5420113  17.7712753  50.3146493
  23.4400113  18.5062753  50.0616493  22.2860113  32.7882753  46.0836493
  21.6620113  33.3702753  45.9016493  22.5340113  32.5022753  45.2976493
  22.2300113  32.8322753  45.9406493  26.5950113  29.4222753  53.0726493
  27.3520113  29.7082753  52.7466493  26.0480113  29.4742753  52.3946493
  26.6260113  29.4722753  52.9236493  23.8800113  27.5642753  35.9986493
  23.0750113  27.3872753  35.7136493  23.8470113  28.4152753  36.1906493
  23.7560113  27.6632753  35.9856493  19.8100113  23.6312753  46.1486493
  20.2500113  23.5282753  45.4026493  20.3550113  23.3182753  46.7536493
  19.9550113  23.5702753  46.1276493  27.8260113  22.7332753  51.7406493
  27.1780113  23.2032753  52.0886493  28.3910113  22.6442753  52.3996493
  27.8140113  22.7892753  51.8896493  27.5140113  24.2702753  48.0386493
  27.8160113  24.6902753  48.7416493  27.5500113  23.4302753  48.2706493
  27.5640113  24.2082753  48.1766493  24.9390113  34.4372753  51.9636493
  25.4170113  33.8372753  51.5476493  24.5880113  33.9942753  52.6286493
  24.9580113  34.2832753  52.0006493  30.0620113  23.7172753  40.2906493
  30.2690113  23.5162753  41.1146493  30.8180113  23.9852753  39.9486493
  30.2040113  23.7272753  40.3616493  23.3570113  18.6162753  46.1956493
  22.5310113  18.4672753  46.4326493  23.3170113  18.6512753  45.3246493
  23.2290113  18.5992753  46.1016493  31.0840113  19.8002753  41.7646493
  30.3700113  19.3292753  41.9356493  30.9220113  20.1412753  40.9786493
  30.9550113  19.7812753  41.6736493  24.9980113  29.6562753  50.9836493
  24.2030113  29.5922753  51.3346493  25.0690113  30.5032753  50.7886493
  24.8910113  29.7712753  51.0066493  15.9220113  19.0142753  52.2306493
  15.7820113  19.8092753  51.8996493  15.1360113  18.7712753  52.5196493
  15.7850113  19.0962753  52.2246493  20.8280113  35.8632753  46.3006493
  20.8390113  35.9222753  47.1706493  20.4030113  35.1162753  46.1506493
  20.7670113  35.7612753  46.4066493  18.9860113  21.7582753  39.4556493
  19.1120113  21.4292753  38.6576493  18.1740113  21.5092753  39.6546493
  18.8850113  21.6732753  39.3676493  27.7430113  28.9112753  42.4996493
  27.8190113  29.2522753  43.2986493  27.9120113  28.0642753  42.6206493
  27.7790113  28.8362753  42.6356493  25.2650113  28.1852753  42.0646493
  24.9670113  27.8702753  42.8216493  25.9600113  28.6582753  42.2996493
  25.3240113  28.2082753  42.2116493  25.4870113  32.3032753  50.0916493
  26.1740113  32.1892753  50.6166493  25.6210113  33.0942753  49.7476493
  25.6080113  32.4032753  50.1186493  33.6630113  24.9122753  51.9026493
  32.8080113  24.7902753  52.0286493  33.8160113  24.5172753  51.1396493
  33.5590113  24.8352753  51.8086493  28.1760113  25.5772753  50.4786493
  27.9210113  24.8582753  50.9006493  28.9970113  25.6932753  50.7486493
  28.2600113  25.4882753  50.5806493  17.5920113  35.3612753  51.7426493
  16.9380113  34.7922753  51.8406493  17.2170113  36.1342753  51.8936493
  17.4400113  35.3912753  51.7796493  26.1100113  26.7672753  53.6656493
  26.4330113  27.4532753  53.2336493  25.4060113  27.0902753  54.0676493
  26.0530113  26.9162753  53.6606493  25.8950113  30.2312753  47.5246493
  25.2010113  30.6332753  47.8676493  26.5720113  30.6642753  47.8636493
  25.8920113  30.3542753  47.6256493  18.9630113  23.7692753  49.8716493
  19.3380113  24.3882753  49.3846493  19.6370113  23.2952753  50.1566493
  19.1180113  23.7912753  49.8416493  16.7380113  22.2172753  49.1466493
  16.8150113  22.0482753  48.2936493  17.4840113  22.6232753  49.3436493
  16.8590113  22.2522753  49.0496493  32.2970113  24.8572753  39.5866493
  32.4000113  24.7992753  38.7226493  33.0380113  24.5252753  39.9046493
  32.4220113  24.8002753  39.5056493  19.2920113  19.6272753  51.5576493
  19.2110113  18.7832753  51.7636493  18.9780113  19.6712753  50.7446493
  19.2340113  19.5092753  51.4676493  31.3990113  25.0032753  48.9426493
  31.3970113  24.1402753  49.0666493  31.4660113  25.3272753  49.7496493
  31.4090113  24.9232753  49.0796493  16.1350113  27.4432753  49.3706493
  16.4550113  27.6622753  48.5896493  16.0350113  26.5782753  49.3156493
  16.1670113  27.3482753  49.2476493  17.5910113  23.3792753  35.9886493
  16.9190113  23.3932753  36.5446493  17.6860113  22.5312753  35.8046493
  17.5060113  23.2562753  36.0436493  27.2780113  19.8032753  52.7246493
  27.3700113  20.5152753  53.2186493  26.6410113  19.3582753  53.1216493
  27.1970113  19.8422753  52.8566493  26.2720113  19.9932753  43.5786493
  25.5720113  20.5112753  43.5226493  26.3100113  19.6132753  42.7946493
  26.1740113  20.0142753  43.4546493  21.5790113  32.0842753  37.1026493
  22.0200113  32.1642753  37.8506493  20.7740113  31.8682753  37.3606493
  21.5250113  32.0642753  37.2516493  29.8700113  20.5092753  46.3786493
  30.7250113  20.6082753  46.5236493  29.5010113  21.0622753  46.9436493
  29.9420113  20.6062753  46.4836493  20.8980113  26.7352753  50.7556493
  20.5020113  27.5092753  50.8306493  20.4920113  26.3622753  50.0796493
  20.7800113  26.7942753  50.6666493  30.1740113  25.7892753  44.8696493
  30.8400113  26.3302753  45.0296493  29.8290113  26.1002753  44.1306493
  30.2210113  25.9152753  44.7846493  18.9080113  31.1542753  37.7036493
  18.6640113  30.8472753  38.4836493  18.8750113  30.4512753  37.1876493
  18.8670113  31.0052753  37.7426493  21.7270113  29.3992753  36.4466493
  20.9090113  29.1312753  36.5866493  21.6990113  30.2512753  36.6316493
  21.6020113  29.4862753  36.4946493  21.3270113  19.7122753  48.2056493
  20.4630113  19.7962753  48.2856493  21.5470113  19.1982753  48.8746493
  21.2320113  19.6492753  48.3166493  33.3450113  18.3472753  49.5346493
  33.2930113  18.3032753  50.4046493  34.0320113  17.8442753  49.3446493
  33.4390113  18.2672753  49.6346493  25.4300113  20.4602753  46.5796493
  24.6930113  20.0062753  46.6926493  26.0010113  20.0582753  47.1026493
  25.4050113  20.3332753  46.6736493  28.1620113  31.3082753  48.3676493
  28.3680113  31.6092753  49.1596493  28.1010113  32.0302753  47.8826493
  28.1830113  31.4592753  48.4126493  27.6960113  35.5222753  52.6136493
  26.9430113  35.5042753  52.1726493  27.8640113  36.3742753  52.6976493
  27.6100113  35.6452753  52.5606493  22.9330113  24.7892753  51.7836493
  22.6110113  24.2132753  51.2136493  22.5740113  25.5442753  51.5376493
  22.8330113  24.8152753  51.6636493  23.7290113  18.0412753  36.4106493
  23.8070113  18.2882753  35.5776493  22.9860113  18.4182753  36.6686493
  23.6310113  18.1332753  36.3256493  32.9740113  29.9472753  47.8256493
  32.9420113  29.0852753  47.6906493  32.2810113  30.2492753  47.3916493
  32.8670113  29.8642753  47.7416493  21.3680113  35.1452753  52.0316493
  21.4090113  35.2712753  52.8946493  22.0190113  34.5852753  51.8756493
  21.4700113  35.0812753  52.1366493  18.5470113  19.7952753  48.8536493
  18.2040113  19.0282753  48.6196493  17.8520113  20.3192753  48.9176493
  18.3940113  19.7592753  48.8286493  27.5930113  18.6512753  45.8306493
  28.2630113  19.1952753  45.9576493  27.0900113  19.0752753  45.2576493
  27.6180113  18.7942753  45.7646493  18.9610113  33.5282753  53.3916493
  19.5560113  33.9592753  53.8636493  18.5970113  34.1522753  52.9026493
  18.9950113  33.6842753  53.3886493  26.9520113  24.4592753  43.3236493
  27.5030113  23.8522753  43.6236493  26.5270113  24.7222753  44.0386493
  26.9710113  24.4082753  43.4726493  17.2000113  23.1092753  42.8096493
  16.8320113  23.4112753  43.5406493  17.7340113  22.4802753  43.0936493
  17.2240113  23.0612753  42.9596493  16.8880113  31.5172753  50.3206493
  16.3140113  31.9332753  50.8296493  17.6210113  31.9822753  50.4156493
  16.9120113  31.6472753  50.4096493  18.6740113  34.7842753  39.0956493
  18.5290113  34.9402753  38.2496493  19.5400113  34.8632753  39.1736493
  18.7810113  34.8192753  38.9826493  22.8410113  27.1812753  38.8236493
  22.9410113  27.3202753  37.9686493  23.6590113  27.1212753  39.1196493
  22.9760113  27.1922753  38.7406493  32.1960113  27.6632753  53.0366493
  32.8300113  27.4932753  53.6106493  32.6130113  28.0662753  52.3846493
  32.3510113  27.6982753  53.0256493  32.8210113  22.2272753  53.7746493
  32.6250113  22.8712753  54.3296493  32.0990113  21.7372753  53.7666493
  32.6860113  22.2502753  53.8556493  32.7200113  23.1682753  46.7456493
  31.8870113  23.4182753  46.6736493  32.6640113  22.3282753  46.9746493
  32.5890113  23.0812753  46.7686493  21.9800113  20.1562753  51.9396493
  22.2140113  19.5802753  51.3266493  21.1380113  19.9752753  52.0806493
  21.8900113  20.0442753  51.8696493  29.6070113  27.7742753  54.3916493
  30.4780113  27.7382753  54.3556493  29.3880113  28.1942753  53.6596493
  29.7040113  27.8302753  54.2786493  19.3610113  33.5992753  45.5726493
  19.2820113  32.7892753  45.2566493  18.9170113  34.0862753  45.0006493
  19.2840113  33.5512753  45.4416493  24.9620113  29.7182753  38.0556493
  25.6790113  29.3712753  37.6996493  24.9280113  30.5182753  37.7076493
  25.0630113  29.7852753  37.9516493  16.9330113  35.8432753  49.1536493
  17.4260113  35.7872753  49.8716493  17.1210113  35.1102753  48.7186493
  17.0340113  35.7262753  49.1956493  26.3710113  18.3592753  22.2944083
  26.1260113  18.8472753  21.6144083  27.2340113  18.2862753  22.1944083
  26.4620113  18.4202753  22.1794083  32.3240113  32.7162753  19.9364083
  33.0250113  32.1972753  19.9324083  31.7370113  32.2712753  19.4674083
  32.3410113  32.5732753  19.8664083  15.7920113  23.2072753  18.9284083
  15.0140113  23.3692753  18.5684083  15.8310113  22.3362753  18.9504083
  15.6830113  23.1022753  18.8784083  18.9310113  28.4702753  17.6004083
  18.5390113  28.0992753  16.9144083  18.8510113  27.8722753  18.2294083
  18.8610113  28.3272753  17.5914083  18.5580113  30.1112753  21.5004083
  19.1660113  29.9412753  22.1034083  17.8070113  29.9712753  21.9214083
  18.5370113  30.0652753  21.6514083  22.8400113  19.4462753  21.4494083
  22.7700113  20.1232753  20.9034083  23.5810113  19.0582753  21.2004083
  22.9390113  19.4892753  21.3314083  17.4490113  33.2022753  17.5774083
  17.9160113  33.2862753  16.8454083  17.9040113  32.6242753  18.0464083
  17.5850113  33.1292753  17.5384083  15.9890113  32.1502753  28.6764083
  16.1180113  31.8702753  29.4924083  15.3790113  31.6092753  28.3674083
  15.9180113  32.0292753  28.7514083  22.5630113  29.6752753  33.7434083
  22.3270113  29.6722753  34.5834083  21.8150113  29.5272753  33.3194083
  22.4170113  29.6522753  33.8044083  17.4350113  26.6712753  22.8784083
  16.9730113  26.2792753  22.2514083  18.1350113  26.1582753  22.9704083
  17.4700113  26.5382753  22.7994083  21.9430113  22.2812753  28.2254083
  22.6210113  22.2992753  27.6764083  21.8980113  21.4452753  28.4704083
  22.0360113  22.1602753  28.1804083  22.5450113  32.8672753  31.0064083
  22.6830113  33.6272753  30.5994083  23.3360113  32.5022753  31.0334083
  22.6820113  32.9262753  30.9504083  19.4360113  24.7712753  22.9014083
  20.2530113  24.5842753  23.1444083  18.9590113  24.1572753  23.2974083
  19.4860113  24.6532753  22.9964083  23.6400113  30.7522753  25.5114083
  23.9880113  29.9532753  25.5414083  24.3050113  31.2562753  25.2564083
  23.7900113  30.7082753  25.4784083  23.6970113  30.2012753  21.7224083
  24.0280113  29.5572753  22.2084083  23.9370113  29.9902753  20.9114083
  23.7810113  30.0752753  21.6744083  20.0330113  19.8652753  22.1674083
  19.7370113  20.3662753  21.5174083  20.9000113  19.9432753  22.1104083
  20.1170113  19.9512753  22.0634083  23.0120113  19.0072753  24.3904083
  23.0850113  19.8672753  24.5194083  22.9740113  18.9322753  23.5224083
  23.0170113  19.1232753  24.2814083  27.6850113  21.9332753  16.6894083
  27.2350113  22.6142753  16.9964083  27.7990113  21.4292753  17.3924083
  27.6360113  21.9592753  16.8384083  15.8910113  24.4322753  25.8914083
  15.6350113  25.2632753  25.8164083  15.2270113  24.0492753  26.3084083
  15.7550113  24.4982753  25.9424083  15.8010113  34.1422753  23.7914083
  15.2090113  34.7002753  23.4784083  16.2270113  33.8732753  23.0794083
  15.7770113  34.1842753  23.6404083  21.6410113  31.9862753  21.2714083
  21.0620113  31.7112753  21.8634083  22.2650113  31.3772753  21.2964083
  21.6480113  31.8562753  21.3624083  27.7840113  34.2742753  18.7934083
  28.5110113  34.7462753  18.8954083  28.0130113  33.4802753  19.0734083
  27.9260113  34.2272753  18.8504083  25.9520113  34.6662753  20.7834083
  26.1660113  35.1932753  21.4454083  26.7190113  34.4922753  20.4044083
  26.0970113  34.7182753  20.8254083  18.9200113  19.2492753  26.3824083
  18.3990113  18.6212753  26.0744083  19.5110113  18.8122753  26.8534083
  18.9310113  19.0912753  26.4064083  22.2260113  21.3822753  35.6804083
  22.3430113  20.9282753  34.9444083  22.5140113  22.1802753  35.4774083
  22.2860113  21.4332753  35.5414083  17.3460113  32.8122753  21.7224083
  18.0020113  32.2372753  21.7374083  17.7350113  33.5612753  21.5014083
  17.5010113  32.8372753  21.6924083  33.0790113  21.9062753  22.9844083
  32.7330113  22.5842753  23.4104083  32.4430113  21.3082753  23.0004083
  32.9340113  21.9182753  23.0494083  28.3910113  34.6762753  29.0884083
  29.1350113  35.1322753  29.0784083  28.2700113  34.4622753  28.2514083
  28.4830113  34.7122753  28.9634083  17.9590113  20.9792753  34.6644083
  17.1810113  20.5892753  34.5924083  18.4500113  20.5672753  34.0734083
  17.9160113  20.8602753  34.5664083  18.1640113  31.2992753  25.2224083
  18.5870113  30.9432753  24.5484083  18.4880113  30.8772753  25.9144083
  18.2740113  31.1842753  25.2254083  21.3950113  34.1512753  24.5184083
  22.2390113  34.2552753  24.3234083  21.0980113  34.9692753  24.5864083
  21.4760113  34.2872753  24.4994083  24.6080113  18.6222753  33.8324083
  24.7860113  17.8132753  33.5574083  24.4650113  19.0632753  33.0934083
  24.6130113  18.5682753  33.6824083  25.2020113  23.5482753  22.6054083
  25.4890113  23.3162753  21.8154083  25.9340113  23.6272753  23.0744083
  25.3520113  23.5252753  22.5584083  25.9240113  23.8872753  17.7264083
  26.2050113  24.6752753  17.9754083  25.1480113  24.0522753  17.3634083
  25.8510113  24.0282753  17.7094083  29.9650113  35.8612753  19.1934083
  30.6300113  35.7132753  18.6484083  30.3250113  35.7782753  19.9834083
  30.1170113  35.8272753  19.2294083  20.3930113  35.3702753  30.2584083
  20.6850113  35.3032753  31.0784083  19.7670113  34.7652753  30.2134083
  20.3440113  35.2712753  30.3734083  32.7540113  20.2292753  28.3534083
  33.5110113  20.3012753  27.9254083  32.8170113  19.4562753  28.7524083
  32.8750113  20.1262753  28.3484083  15.3070113  21.5272753  32.2504083
  15.3030113  22.1142753  32.8964083  15.9010113  21.8392753  31.6934083
  15.3940113  21.6602753  32.2634083  24.7830113  32.0582753  17.5424083
  24.6020113  32.6032753  18.1994083  25.5490113  32.3482753  17.2414083
  24.8690113  32.1822753  17.5954083  28.2900113  19.9542753  18.5964083
  28.8300113  19.2722753  18.6724083  28.3520113  20.3522753  19.3704083
  28.3790113  19.9122753  18.7224083  16.2440113  21.1222753  21.1654083
  16.1300113  20.2582753  21.1964083  15.7690113  21.4162753  21.8354083
  16.1570113  21.0382753  21.2684083  18.3860113  33.5322753  29.3804083
  17.6880113  33.0242753  29.5064083  18.6460113  33.3272753  28.5724083
  18.3210113  33.4272753  29.2794083  25.5480113  22.3302753  19.9104083
  25.0400113  21.6682753  19.6564083  25.6000113  22.8342753  19.2004083
  25.4810113  22.3072753  19.7684083  26.0970113  35.0252753  30.2904083
  26.8650113  34.9452753  29.8844083  25.5140113  34.9042753  29.6524083
  26.1240113  34.9952753  30.1364083  25.5480113  19.2712753  19.8014083
  25.0930113  18.8692753  19.1754083  26.3210113  19.4262753  19.4264083
  25.5950113  19.2352753  19.6534083  32.3740113  35.6282753  23.1914083
  31.9190113  36.3452753  23.3924083  31.7600113  35.0572753  22.9494083
  32.2160113  35.6502753  23.1854083  24.1460113  21.6382753  24.3234083
  24.2200113  22.2062753  23.6654083  24.2670113  22.1302753  25.0334083
  24.1740113  21.7952753  24.3314083  29.3710113  31.4732753  22.7354083
  30.0720113  30.9912753  22.9244083  28.7110113  30.9042753  22.7804083
  29.3770113  31.3182753  22.7694083  19.7470113  32.3832753  31.9474083
  20.5880113  32.4462753  31.7254083  19.7100113  32.7802753  32.7234083
  19.8660113  32.4512753  32.0294083  18.7540113  17.4612753  22.6714083
  19.2900113  18.1492753  22.6614083  18.7570113  17.1872753  21.8434083
  18.8330113  17.5222753  22.5474083  21.7100113  27.8942753  26.6964083
  21.8820113  27.6842753  27.5254083  21.0550113  27.3602753  26.4804083
  21.6390113  27.7842753  26.7874083  22.4600113  27.8322753  29.2864083
  22.5130113  28.6792753  29.4884083  22.1750113  27.4622753  30.0234083
  22.4260113  27.9022753  29.4244083  29.1940113  17.7522753  23.0474083
  29.2430113  17.4342753  23.8584083  29.5170113  17.1082753  22.5544083
  29.2490113  17.6102753  23.0944083  15.2810113  32.2032753  35.4974083
  16.0370113  32.5522753  35.7554083  15.4580113  31.3502753  35.4404083
  15.4190113  32.1282753  35.5274083  31.6580113  21.9882753  31.3554083
  32.4300113  21.7632753  31.6924083  31.1830113  22.2052753  32.0554083
  31.7020113  21.9872753  31.5084083  19.2020113  21.2712753  24.3254083
  19.4740113  20.8412753  23.6174083  19.0260113  20.6352753  24.8964083
  19.2160113  21.1142753  24.3054083  31.8900113  28.9662753  18.5434083
  32.0090113  28.6792753  19.3584083  32.6970113  28.9872753  18.2134083
  32.0260113  28.9272753  18.6154083  19.0260113  28.6982753  23.8744083
  19.8770113  28.6182753  23.7014083  18.6690113  28.0162753  23.4624083
  19.0990113  28.5852753  23.7874083  17.7930113  35.4232753  25.1114083
  17.1200113  34.9252753  24.8664083  18.1960113  35.6082753  24.3604083
  17.7530113  35.3772753  24.9644083  17.3430113  22.3732753  27.4074083
  18.1860113  22.5932753  27.3644083  16.9540113  22.9462753  26.8764083
  17.4100113  22.4902753  27.3224083  29.7850113  25.5032753  18.1284083
  29.5650113  26.2342753  17.7064083  29.3370113  25.5542753  18.8754083
  29.6860113  25.6182753  18.1764083  21.3940113  28.7052753  22.1094083
  22.1070113  29.2002753  22.1994083  21.6160113  28.1382753  21.4834083
  21.5320113  28.6942753  22.0304083  33.9720113  20.3642753  17.5814083
  33.3100113  19.7962753  17.6044083  33.7790113  20.8762753  16.9014083
  33.8460113  20.3562753  17.4844083  15.5500113  30.3482753  25.4294083
  14.8830113  30.8362753  25.7054083  16.2300113  30.8932753  25.4584083
  15.5520113  30.5002753  25.4744083  23.1970113  24.0582753  35.5254083
  22.7130113  24.6352753  35.9674083  23.1690113  24.3532753  34.7044083
  23.1210113  24.1872753  35.4694083  15.6160113  27.0322753  20.5324083
  15.4310113  26.1932753  20.6844083  16.2750113  26.9962753  19.9624083
  15.6860113  26.9032753  20.4704083  31.9740113  19.9222753  19.8604083
  32.7200113  19.5152753  20.0594083  32.2370113  20.6372753  19.4354083
  32.1230113  19.9682753  19.8274083  25.9170113  32.4082753  24.4364083
  25.3940113  33.0422753  24.1434083  26.2270113  32.0442753  23.7074083
  25.8850113  32.4482753  24.2854083  15.7880113  31.1962753  20.1074083
  16.3400113  31.7652753  20.4714083  15.5560113  30.6812753  20.7724083
  15.8350113  31.2042753  20.2594083  19.9920113  30.1962753  27.1964083
  20.4590113  30.4852753  27.8744083  20.5640113  29.7182753  26.7424083
  20.1460113  30.1682753  27.2294083  28.4280113  22.2102753  24.9334083
  28.7720113  22.3622753  25.7204083  27.9750113  21.4722753  25.0464083
  28.4120113  22.1232753  25.0664083  15.6180113  29.6452753  17.7354083
  16.3740113  29.2132753  17.7934083  15.6330113  30.1772753  18.4264083
  15.7320113  29.6602753  17.8464083  16.5580113  27.8662753  25.7404083
  16.9890113  27.7372753  24.9934083  16.3530113  28.7142753  25.7144083
  16.5910113  27.9722753  25.6264083  22.9040113  21.4302753  19.3904083
  22.9020113  21.3132753  18.5254083  22.7230113  22.2782753  19.4824083
  22.8770113  21.5382753  19.2764083  20.6420113  31.3822753  24.0224083
  20.7680113  32.2252753  24.2094083  21.3100113  30.9832753  24.4184083
  20.7600113  31.4482753  24.1084083  19.2570113  24.2622753  19.0244083
  19.1290113  23.8142753  19.7624083  18.6750113  23.9202753  18.4724083
  19.1520113  24.1452753  19.0524083  19.4240113  26.0922753  25.6234083
  18.6430113  26.0332753  25.2404083  19.4960113  25.3402753  26.0604083
  19.3190113  25.9732753  25.6314083  19.8540113  25.8292753  29.0914083
  19.8790113  25.1542753  28.5404083  19.2080113  26.3252753  28.7794083
  19.7630113  25.8022753  28.9644083  23.9540113  34.6062753  28.4834083
  23.6770113  33.9652753  27.9604083  23.7460113  35.3322753  28.0454083
  23.8830113  34.6192753  28.3414083  26.3940113  19.4482753  30.9164083
  26.5430113  18.6232753  30.6734083  26.7730113  19.5032753  31.7004083
  26.4720113  19.3342753  30.9964083  27.9420113  21.5112753  20.9984083
  28.4320113  22.2282753  20.9214083  27.1520113  21.7722753  20.7354083
  27.8980113  21.6552753  20.9484083  17.6530113  27.1842753  34.6504083
  17.6160113  27.6852753  33.9364083  17.9840113  26.4322753  34.3554083
  17.6960113  27.1462753  34.5014083  26.7130113  26.1502753  18.9974083
  26.7050113  26.8722753  18.5074083  26.0740113  26.2852753  19.5744083
  26.6180113  26.2772753  19.0104083  27.7300113  33.0862753  26.8224083
  27.1270113  32.7902753  26.2654083  28.2750113  33.5382753  26.3134083
  27.7210113  33.1092753  26.6644083  21.6350113  34.7492753  20.6704083
  21.4880113  33.9732753  21.0414083  22.3240113  34.6022753  20.1554083
  21.7150113  34.6122753  20.6494083  21.3060113  18.4922753  18.6584083
  21.4030113  18.3852753  19.5194083  20.5980113  18.9982753  18.5934083
  21.2160113  18.5512753  18.7764083  23.9270113  34.2652753  19.0724083
  24.5490113  34.4282753  19.6624083  23.9630113  34.9562753  18.5404083
  24.0240113  34.3912753  19.0814083  32.0350113  18.2332753  34.0554083
  31.3980113  17.8332753  33.6134083  32.0610113  17.8022753  34.8134083
  31.9450113  18.1112753  34.1014083  18.4280113  26.7992753  19.9014083
  18.7520113  26.0202753  19.6794083  19.0740113  27.1672753  20.3564083
  18.5710113  26.7382753  19.9354083  15.4250113  18.4602753  20.8694083
  15.5540113  17.7522753  20.3774083  15.0580113  18.1422753  21.5944083
  15.3900113  18.3082753  20.9044083  19.6140113  20.6582753  17.8384083
  19.1030113  20.7112753  17.1324083  20.3980113  20.8982753  17.5424083
  19.6540113  20.7012753  17.6904083  21.0930113  34.9182753  16.6434083
  21.5320113  34.2212753  16.9314083  21.3000113  35.5422753  17.2164083
  21.1890113  34.9072753  16.7704083  18.1890113  27.8812753  28.0734083
  18.9110113  28.3692753  28.0364083  17.9190113  27.8512753  27.2444083
  18.2560113  27.9492753  27.9454083  21.4190113  23.0522753  24.8084083
  22.2650113  22.8622753  24.9064083  21.0490113  22.2752753  24.6704083
  21.4890113  22.9092753  24.8024083  34.0360113  34.6362753  19.1354083
  34.7300113  34.1692753  18.8874083  33.4970113  34.0382753  19.4724083
  34.0590113  34.4782753  19.1484083  16.2400113  24.3902753  21.4634083
  16.7290113  24.0982753  22.1244083  16.3690113  23.7972753  20.8364083
  16.3310113  24.2592753  21.4684083  20.7650113  25.8242753  16.9494083
  20.1550113  25.4192753  17.4234083  20.3790113  25.9422753  16.1764083
  20.6180113  25.7812753  16.9054083  17.5840113  28.9332753  32.3514083
  17.1630113  28.4152753  31.7904083  17.2320113  29.7192753  32.2084083
  17.4700113  28.9732753  32.2474083  22.2200113  24.2852753  19.6594083
  22.4920113  25.1112753  19.7264083  21.3570113  24.3602753  19.5634083
  22.1330113  24.4182753  19.6544083  30.1930113  21.4072753  34.2914083
  29.6680113  21.8662753  34.8154083  29.8320113  20.6122753  34.2854083
  30.0620113  21.3572753  34.3674083  15.7000113  20.2552753  26.1954083
  15.7440113  20.5992753  25.3944083  16.4550113  20.4922753  26.5624083
  15.8180113  20.3412753  26.1314083  33.6620113  33.1162753  26.2804083
  33.9520113  33.3732753  25.4994083  34.3570113  33.2122753  26.7994083
  33.8080113  33.1682753  26.2414083  30.2670113  31.7192753  18.2624083
  30.6010113  30.9132753  18.2974083  29.5120113  31.6472753  18.6924083
  30.2050113  31.5892753  18.3314083  30.7490113  23.5532753  23.9214083
  30.0040113  23.2302753  24.2394083  30.7510113  24.3792753  24.2014083
  30.6390113  23.6272753  24.0094083  27.6410113  29.5942753  17.6654083
  28.3250113  29.0802753  17.4964083  27.2240113  29.6402753  16.9004083
  27.6800113  29.5252753  17.5274083  22.3230113  30.7442753  28.9694083
  22.0250113  31.3362753  29.5364083  22.3780113  31.1862753  28.2204083
  22.2870113  30.8972753  28.9424083  20.3020113  29.6942753  32.3674083
  19.4960113  29.4042753  32.5344083  20.2130113  30.5622753  32.3734083
  20.1700113  29.7792753  32.3924083  29.6610113  19.8832753  31.3824083
  30.4050113  20.3352753  31.3194083  29.0950113  20.3532753  30.9134083
  29.6880113  20.0202753  31.3044083  21.5490113  22.7702753  31.2014083
  21.7100113  22.0262753  31.6284083  21.5040113  22.5212753  30.3664083
  21.5660113  22.6232753  31.1414083  24.1030113  34.5602753  23.6884083
  24.6490113  35.2392753  23.7424083  23.7530113  34.6422753  22.8934083
  24.1320113  34.6732753  23.5784083  30.9460113  17.8632753  29.0524083
  30.6660113  18.6882753  29.0084083  31.6620113  17.9162753  29.5484083
  31.0110113  17.9932753  29.1194083  23.3010113  18.5782753  31.0814083
  24.0060113  18.8982753  30.6794083  23.5420113  17.7712753  31.3084083
  23.4400113  18.5062753  31.0554083  22.2860113  32.7882753  27.0774083
  21.6620113  33.3702753  26.8954083  22.5340113  32.5022753  26.2914083
  22.2300113  32.8322753  26.9344083  26.5950113  29.4222753  34.0664083
  27.3520113  29.7082753  33.7404083  26.0480113  29.4742753  33.3884083
  26.6260113  29.4722753  33.9174083  32.3670113  24.1182753  17.9094083
  32.7450113  24.7952753  17.5094083  31.5250113  24.3422753  17.9404083
  32.2980113  24.2512753  17.8544083  23.8800113  27.5642753  16.9924083
  23.0750113  27.3872753  16.7074083  23.8470113  28.4152753  17.1844083
  23.7560113  27.6632753  16.9794083  19.8100113  23.6312753  27.1424083
  20.2500113  23.5282753  26.3964083  20.3550113  23.3182753  27.7474083
  19.9550113  23.5702753  27.1214083  24.9390113  34.4372753  32.9574083
  25.4170113  33.8372753  32.5414083  24.5880113  33.9942753  33.6224083
  24.9580113  34.2832753  32.9944083  30.0620113  23.7172753  21.2844083
  30.2690113  23.5162753  22.1084083  30.8180113  23.9852753  20.9424083
  30.2040113  23.7272753  21.3554083  23.3570113  18.6162753  27.1894083
  22.5310113  18.4672753  27.4264083  23.3170113  18.6512753  26.3184083
  23.2290113  18.5992753  27.0954083  31.0840113  19.8002753  22.7584083
  30.3700113  19.3292753  22.9294083  30.9220113  20.1412753  21.9724083
  30.9550113  19.7812753  22.6674083  24.9980113  29.6562753  31.9774083
  24.2030113  29.5922753  32.3284083  25.0690113  30.5032753  31.7824083
  24.8910113  29.7712753  32.0004083  15.9220113  19.0142753  33.2244083
  15.7820113  19.8092753  32.8934083  15.1360113  18.7712753  33.5134083
  15.7850113  19.0962753  33.2184083  25.4870113  32.3032753  31.0854083
  26.1740113  32.1892753  31.6104083  25.6210113  33.0942753  30.7414083
  25.6080113  32.4032753  31.1124083  17.5920113  35.3612753  32.7364083
  16.9380113  34.7922753  32.8344083  17.2170113  36.1342753  32.8874083
  17.4400113  35.3912753  32.7734083  29.1940113  35.1412753  25.5884083
  28.7430113  35.7842753  25.9674083  29.9020113  35.0622753  26.0934083
  29.2320113  35.2242753  25.7194083  18.9630113  23.7692753  30.8654083
  19.3380113  24.3882753  30.3784083  19.6370113  23.2952753  31.1504083
  19.1180113  23.7912753  30.8354083  16.7380113  22.2172753  30.1404083
  16.8150113  22.0482753  29.2874083  17.4840113  22.6232753  30.3374083
  16.8590113  22.2522753  30.0434083  32.2970113  24.8572753  20.5804083
  32.4000113  24.7992753  19.7164083  33.0380113  24.5252753  20.8984083
  32.4220113  24.8002753  20.4994083  19.2920113  19.6272753  32.5514083
  19.2110113  18.7832753  32.7574083  18.9780113  19.6712753  31.7384083
  19.2340113  19.5092753  32.4614083  26.2170113  31.8222753  21.6874083
  26.0120113  32.6552753  21.5284083  25.4420113  31.4402753  21.8094083
  26.0720113  31.8892753  21.6824083  16.1350113  27.4432753  30.3644083
  16.4550113  27.6622753  29.5834083  16.0350113  26.5782753  30.3094083
  16.1670113  27.3482753  30.2414083  17.5910113  23.3792753  16.9824083
  16.9190113  23.3932753  17.5384083  17.6860113  22.5312753  16.7984083
  17.5060113  23.2562753  17.0374083  27.2780113  19.8032753  33.7184083
  27.3700113  20.5152753  34.2124083  26.6410113  19.3582753  34.1154083
  27.1970113  19.8422753  33.8504083  26.2720113  19.9932753  24.5724083
  25.5720113  20.5112753  24.5164083  26.3100113  19.6132753  23.7884083
  26.1740113  20.0142753  24.4484083  21.5790113  32.0842753  18.0964083
  22.0200113  32.1642753  18.8444083  20.7740113  31.8682753  18.3544083
  21.5250113  32.0642753  18.2454083  29.8700113  20.5092753  27.3724083
  30.7250113  20.6082753  27.5174083  29.5010113  21.0622753  27.9374083
  29.9420113  20.6062753  27.4774083  20.8980113  26.7352753  31.7494083
  20.5020113  27.5092753  31.8244083  20.4920113  26.3622753  31.0734083
  20.7800113  26.7942753  31.6604083  30.4870113  33.8552753  21.6704083
  30.3130113  33.2012753  22.2204083  31.2000113  33.5842753  21.2474083
  30.5670113  33.7182753  21.6894083  18.9080113  31.1542753  18.6974083
  18.6640113  30.8472753  19.4774083  18.8750113  30.4512753  18.1814083
  18.8670113  31.0052753  18.7364083  21.7270113  29.3992753  17.4404083
  20.9090113  29.1312753  17.5804083  21.6990113  30.2512753  17.6254083
  21.6020113  29.4862753  17.4884083  21.3270113  19.7122753  29.1994083
  20.4630113  19.7962753  29.2794083  21.5470113  19.1982753  29.8684083
  21.2320113  19.6492753  29.3104083  33.3450113  18.3472753  30.5284083
  33.2930113  18.3032753  31.3984083  34.0320113  17.8442753  30.3384083
  33.4390113  18.2672753  30.6284083  25.4300113  20.4602753  27.5734083
  24.6930113  20.0062753  27.6864083  26.0010113  20.0582753  28.0964083
  25.4050113  20.3332753  27.6674083  27.6960113  35.5222753  33.6074083
  26.9430113  35.5042753  33.1664083  27.8640113  36.3742753  33.6914083
  27.6100113  35.6452753  33.5544083  22.9330113  24.7892753  32.7774083
  22.6110113  24.2132753  32.2074083  22.5740113  25.5442753  32.5314083
  22.8330113  24.8152753  32.6574083  23.7290113  18.0412753  17.4044083
  23.8070113  18.2882753  16.5714083  22.9860113  18.4182753  17.6624083
  23.6310113  18.1332753  17.3194083  21.3680113  35.1452753  33.0254083
  21.4090113  35.2712753  33.8884083  22.0190113  34.5852753  32.8694083
  21.4700113  35.0812753  33.1304083  31.0790113  33.2072753  27.6164083
  31.6060113  33.1242753  26.9254083  30.6880113  32.4292753  27.6704083
  31.0990113  33.0802753  27.5224083  18.5470113  19.7952753  29.8474083
  18.2040113  19.0282753  29.6134083  17.8520113  20.3192753  29.9114083
  18.3940113  19.7592753  29.8224083  27.5930113  18.6512753  26.8244083
  28.2630113  19.1952753  26.9514083  27.0900113  19.0752753  26.2514083
  27.6180113  18.7942753  26.7584083  18.9610113  33.5282753  34.3854083
  19.5560113  33.9592753  34.8574083  18.5970113  34.1522753  33.8964083
  18.9950113  33.6842753  34.3824083  17.2000113  23.1092753  23.8034083
  16.8320113  23.4112753  24.5344083  17.7340113  22.4802753  24.0874083
  17.2240113  23.0612753  23.9534083  16.8880113  31.5172753  31.3144083
  16.3140113  31.9332753  31.8234083  17.6210113  31.9822753  31.4094083
  16.9120113  31.6472753  31.4034083  18.6740113  34.7842753  20.0894083
  18.5290113  34.9402753  19.2434083  19.5400113  34.8632753  20.1674083
  18.7810113  34.8192753  19.9764083  22.8410113  27.1812753  19.8174083
  22.9410113  27.3202753  18.9624083  23.6590113  27.1212753  20.1134083
  22.9760113  27.1922753  19.7344083  32.0010113  35.2452753  17.2974083
  32.6380113  35.1112753  17.8784083  31.6600113  34.4512753  17.1804083
  32.0450113  35.1082753  17.3654083  28.0760113  31.5102753  19.6194083
  27.8250113  31.3822753  20.4454083  27.7590113  30.8152753  19.1984083
  27.9920113  31.3892753  19.6794083  32.8210113  22.2272753  34.7684083
  32.6250113  22.8712753  35.3234083  32.0990113  21.7372753  34.7604083
  32.6860113  22.2502753  34.8494083  21.9800113  20.1562753  32.9334083
  22.2140113  19.5802753  32.3204083  21.1380113  19.9752753  33.0744083
  21.8900113  20.0442753  32.8634083  19.3610113  33.5992753  26.5664083
  19.2820113  32.7892753  26.2504083  18.9170113  34.0862753  25.9944083
  19.2840113  33.5512753  26.4354083  24.9620113  29.7182753  19.0494083
  25.6790113  29.3712753  18.6934083  24.9280113  30.5182753  18.7014083
  25.0630113  29.7852753  18.9454083  16.9330113  35.8432753  30.1474083
  17.4260113  35.7872753  30.8654083  17.1210113  35.1102753  29.7124083
  17.0340113  35.7262753  30.1894083  26.3710113  18.3592753   3.2881673
  26.1260113  18.8472753   2.6081673  27.2340113  18.2862753   3.1881673
  26.4620113  18.4202753   3.1731673  26.1800113  25.2752753   7.9591673
  25.6560113  25.8712753   8.3221673  26.5770113  24.9072753   8.6431673
  26.1610113  25.3092753   8.1141673  16.0490113  29.4152753   3.4151673
  15.6080113  29.5332753   4.1581673  15.7660113  28.6402753   3.1301673
  15.9420113  29.3182753   3.4831673  28.8510113  26.3422753   4.6351673
  28.9310113  26.3462753   3.7661673  28.2670113  25.7102753   4.7841673
  28.7760113  26.2492753   4.5291673  18.5580113  30.1112753   2.4941673
  19.1660113  29.9412753   3.0971673  17.8070113  29.9712753   2.9151673
  18.5370113  30.0652753   2.6451673  22.8400113  19.4462753   2.4431673
  22.7700113  20.1232753   1.8971673  23.5810113  19.0582753   2.1941673
  22.9390113  19.4892753   2.3251673  15.9890113  32.1502753   9.6701673
  16.1180113  31.8702753  10.4861673  15.3790113  31.6092753   9.3611673
  15.9180113  32.0292753   9.7451673  22.5630113  29.6752753  14.7371673
  22.3270113  29.6722753  15.5771673  21.8150113  29.5272753  14.3131673
  22.4170113  29.6522753  14.7981673  17.4350113  26.6712753   3.8721673
  16.9730113  26.2792753   3.2451673  18.1350113  26.1582753   3.9641673
  17.4700113  26.5382753   3.7931673  21.9430113  22.2812753   9.2191673
  22.6210113  22.2992753   8.6701673  21.8980113  21.4452753   9.4641673
  22.0360113  22.1602753   9.1741673  22.5450113  32.8672753  12.0001673
  22.6830113  33.6272753  11.5931673  23.3360113  32.5022753  12.0271673
  22.6820113  32.9262753  11.9441673  19.4360113  24.7712753   3.8951673
  20.2530113  24.5842753   4.1381673  18.9590113  24.1572753   4.2911673
  19.4860113  24.6532753   3.9901673  23.6400113  30.7522753   6.5051673
  23.9880113  29.9532753   6.5351673  24.3050113  31.2562753   6.2501673
  23.7900113  30.7082753   6.4721673  23.6970113  30.2012753   2.7161673
  24.0280113  29.5572753   3.2021673  23.9370113  29.9902753   1.9051673
  23.7810113  30.0752753   2.6681673  25.6650113  24.3322753  14.0551673
  24.8170113  24.2332753  13.8771673  25.6940113  25.0772753  14.5091673
  25.5440113  24.4282753  14.0961673  20.0330113  19.8652753   3.1611673
  19.7370113  20.3662753   2.5111673  20.9000113  19.9432753   3.1041673
  20.1170113  19.9512753   3.0571673  30.2230113  17.2922753  13.1691673
  30.0650113  18.0612753  12.7871673  29.4510113  17.0722753  13.5131673
  30.0850113  17.3732753  13.1641673  23.0120113  19.0072753   5.3841673
  23.0850113  19.8672753   5.5131673  22.9740113  18.9322753   4.5161673
  23.0170113  19.1232753   5.2751673  15.8910113  24.4322753   6.8851673
  15.6350113  25.2632753   6.8101673  15.2270113  24.0492753   7.3021673
  15.7550113  24.4982753   6.9361673  15.8010113  34.1422753   4.7851673
  15.2090113  34.7002753   4.4721673  16.2270113  33.8732753   4.0731673
  15.7770113  34.1842753   4.6341673  21.6410113  31.9862753   2.2651673
  21.0620113  31.7112753   2.8571673  22.2650113  31.3772753   2.2901673
  21.6480113  31.8562753   2.3561673  25.9520113  34.6662753   1.7771673
  26.1660113  35.1932753   2.4391673  26.7190113  34.4922753   1.3981673
  26.0970113  34.7182753   1.8191673  18.9200113  19.2492753   7.3761673
  18.3990113  18.6212753   7.0681673  19.5110113  18.8122753   7.8471673
  18.9310113  19.0912753   7.4001673  22.2260113  21.3822753  16.6741673
  22.3430113  20.9282753  15.9381673  22.5140113  22.1802753  16.4711673
  22.2860113  21.4332753  16.5351673  17.3460113  32.8122753   2.7161673
  18.0020113  32.2372753   2.7311673  17.7350113  33.5612753   2.4951673
  17.5010113  32.8372753   2.6861673  33.0790113  21.9062753   3.9781673
  32.7330113  22.5842753   4.4041673  32.4430113  21.3082753   3.9941673
  32.9340113  21.9182753   4.0431673  28.3910113  34.6762753  10.0821673
  29.1350113  35.1322753  10.0721673  28.2700113  34.4622753   9.2451673
  28.4830113  34.7122753   9.9571673  17.9590113  20.9792753  15.6581673
  17.1810113  20.5892753  15.5861673  18.4500113  20.5672753  15.0671673
  17.9160113  20.8602753  15.5601673  18.1640113  31.2992753   6.2161673
  18.5870113  30.9432753   5.5421673  18.4880113  30.8772753   6.9081673
  18.2740113  31.1842753   6.2191673  21.3950113  34.1512753   5.5121673
  22.2390113  34.2552753   5.3171673  21.0980113  34.9692753   5.5801673
  21.4760113  34.2872753   5.4931673  24.6080113  18.6222753  14.8261673
  24.7860113  17.8132753  14.5511673  24.4650113  19.0632753  14.0871673
  24.6130113  18.5682753  14.6761673  25.2020113  23.5482753   3.5991673
  25.4890113  23.3162753   2.8091673  25.9340113  23.6272753   4.0681673
  25.3520113  23.5252753   3.5521673  20.3930113  35.3702753  11.2521673
  20.6850113  35.3032753  12.0721673  19.7670113  34.7652753  11.2071673
  20.3440113  35.2712753  11.3671673  32.7540113  20.2292753   9.3471673
  33.5110113  20.3012753   8.9191673  32.8170113  19.4562753   9.7461673
  32.8750113  20.1262753   9.3421673  15.3070113  21.5272753  13.2441673
  15.3030113  22.1142753  13.8901673  15.9010113  21.8392753  12.6871673
  15.3940113  21.6602753  13.2571673  27.6450113  31.8612753  13.7861673
  27.6110113  32.2432753  14.5701673  28.4990113  31.8192753  13.6151673
  27.7660113  31.9112753  13.8771673  16.2440113  21.1222753   2.1591673
  16.1300113  20.2582753   2.1901673  15.7690113  21.4162753   2.8291673
  16.1570113  21.0382753   2.2621673  18.3860113  33.5322753  10.3741673
  17.6880113  33.0242753  10.5001673  18.6460113  33.3272753   9.5661673
  18.3210113  33.4272753  10.2731673  26.0970113  35.0252753  11.2841673
  26.8650113  34.9452753  10.8781673  25.5140113  34.9042753  10.6461673
  26.1240113  34.9952753  11.1301673  32.3740113  35.6282753   4.1851673
  31.9190113  36.3452753   4.3861673  31.7600113  35.0572753   3.9431673
  32.2160113  35.6502753   4.1791673  24.1460113  21.6382753   5.3171673
  24.2200113  22.2062753   4.6591673  24.2670113  22.1302753   6.0271673
  24.1740113  21.7952753   5.3251673  29.3710113  31.4732753   3.7291673
  30.0720113  30.9912753   3.9181673  28.7110113  30.9042753   3.7741673
  29.3770113  31.3182753   3.7631673  19.7470113  32.3832753  12.9411673
  20.5880113  32.4462753  12.7191673  19.7100113  32.7802753  13.7171673
  19.8660113  32.4512753  13.0231673  18.7540113  17.4612753   3.6651673
  19.2900113  18.1492753   3.6551673  18.7570113  17.1872753   2.8371673
  18.8330113  17.5222753   3.5411673  21.7100113  27.8942753   7.6901673
  21.8820113  27.6842753   8.5191673  21.0550113  27.3602753   7.4741673
  21.6390113  27.7842753   7.7811673  27.9380113  21.8082753  11.2051673
  27.8430113  22.1272753  12.0111673  27.3450113  21.1692753  11.1671673
  27.8360113  21.7602753  11.3191673  22.4600113  27.8322753  10.2801673
  22.5130113  28.6792753  10.4821673  22.1750113  27.4622753  11.0171673
  22.4260113  27.9022753  10.4181673  28.6370113  28.5272753   9.4101673
  28.1230113  28.1152753   9.9811673  28.5110113  29.3712753   9.5911673
  28.5430113  28.5912753   9.5211673  29.1940113  17.7522753   4.0411673
  29.2430113  17.4342753   4.8521673  29.5170113  17.1082753   3.5481673
  29.2490113  17.6102753   4.0881673  15.2810113  32.2032753  16.4911673
  16.0370113  32.5522753  16.7491673  15.4580113  31.3502753  16.4341673
  15.4190113  32.1282753  16.5211673  31.6580113  21.9882753  12.3491673
  32.4300113  21.7632753  12.6861673  31.1830113  22.2052753  13.0491673
  31.7020113  21.9872753  12.5021673  19.2020113  21.2712753   5.3191673
  19.4740113  20.8412753   4.6111673  19.0260113  20.6352753   5.8901673
  19.2160113  21.1142753   5.2991673  19.0260113  28.6982753   4.8681673
  19.8770113  28.6182753   4.6951673  18.6690113  28.0162753   4.4561673
  19.0990113  28.5852753   4.7811673  17.7930113  35.4232753   6.1051673
  17.1200113  34.9252753   5.8601673  18.1960113  35.6082753   5.3541673
  17.7530113  35.3772753   5.9581673  17.3430113  22.3732753   8.4011673
  18.1860113  22.5932753   8.3581673  16.9540113  22.9462753   7.8701673
  17.4100113  22.4902753   8.3161673  34.1240113  33.4752753  13.7911673
  33.4420113  33.7852753  13.3441673  33.7550113  33.0172753  14.4361673
  33.9680113  33.4532753  13.8201673  21.3940113  28.7052753   3.1031673
  22.1070113  29.2002753   3.1931673  21.6160113  28.1382753   2.4771673
  21.5320113  28.6942753   3.0241673  15.5500113  30.3482753   6.4231673
  14.8830113  30.8362753   6.6991673  16.2300113  30.8932753   6.4521673
  15.5520113  30.5002753   6.4681673  23.1970113  24.0582753  16.5191673
  22.7130113  24.6352753  16.9611673  23.1690113  24.3532753  15.6981673
  23.1210113  24.1872753  16.4631673  34.2950113  24.7422753  11.1311673
  34.5100113  23.9422753  10.8551673  33.4450113  24.8022753  10.9421673
  34.2010113  24.6332753  11.0621673  25.9170113  32.4082753   5.4301673
  25.3940113  33.0422753   5.1371673  26.2270113  32.0442753   4.7011673
  25.8850113  32.4482753   5.2791673  19.9920113  30.1962753   8.1901673
  20.4590113  30.4852753   8.8681673  20.5640113  29.7182753   7.7361673
  20.1460113  30.1682753   8.2231673  28.4280113  22.2102753   5.9271673
  28.7720113  22.3622753   6.7141673  27.9750113  21.4722753   6.0401673
  28.4120113  22.1232753   6.0601673  16.5580113  27.8662753   6.7341673
  16.9890113  27.7372753   5.9871673  16.3530113  28.7142753   6.7081673
  16.5910113  27.9722753   6.6201673  31.9580113  33.8572753  11.8811673
  31.2870113  34.3712753  12.0991673  32.0210113  33.9572753  11.0171673
  31.8680113  33.9482753  11.7861673  20.6420113  31.3822753   5.0161673
  20.7680113  32.2252753   5.2031673  21.3100113  30.9832753   5.4121673
  20.7600113  31.4482753   5.1021673  18.7720113  24.8652753  14.8781673
  18.2360113  24.3592753  15.3461673  18.7920113  24.4752753  14.0981673
  18.6950113  24.7322753  14.8321673  19.4240113  26.0922753   6.6171673
  18.6430113  26.0332753   6.2341673  19.4960113  25.3402753   7.0541673
  19.3190113  25.9732753   6.6251673  19.8540113  25.8292753  10.0851673
  19.8790113  25.1542753   9.5341673  19.2080113  26.3252753   9.7731673
  19.7630113  25.8022753   9.9581673  29.7490113  23.5422753   8.4811673
  29.0870113  23.8702753   8.9441673  29.9360113  24.1762753   7.9121673
  29.6790113  23.6842753   8.4651673  23.9540113  34.6062753   9.4771673
  23.6770113  33.9652753   8.9541673  23.7460113  35.3322753   9.0391673
  23.8830113  34.6192753   9.3351673  26.3940113  19.4482753  11.9101673
  26.5430113  18.6232753  11.6671673  26.7730113  19.5032753  12.6941673
  26.4720113  19.3342753  11.9901673  27.9420113  21.5112753   1.9921673
  28.4320113  22.2282753   1.9151673  27.1520113  21.7722753   1.7291673
  27.8980113  21.6552753   1.9421673  17.6530113  27.1842753  15.6441673
  17.6160113  27.6852753  14.9301673  17.9840113  26.4322753  15.3491673
  17.6960113  27.1462753  15.4951673  29.2560113  29.3892753  13.9021673
  29.7400113  30.1072753  14.0001673  29.6500113  28.9622753  13.2511673
  29.3860113  29.4322753  13.8201673  23.5520113  32.2342753  15.0791673
  23.9060113  32.0562753  15.8561673  23.1160113  31.5052753  14.8801673
  23.5400113  32.1002753  15.1651673  24.5240113  22.9812753   7.7171673
  25.0040113  23.6802753   7.9251673  24.8970113  22.3342753   8.1681673
  24.6500113  22.9892753   7.8141673  31.6850113  30.0202753   3.9721673
  32.0410113  29.6702753   4.6871673  31.6770113  29.3592753   3.4021673
  31.7370113  29.8702753   3.9931673  27.7300113  33.0862753   7.8161673
  27.1270113  32.7902753   7.2591673  28.2750113  33.5382753   7.3071673
  27.7210113  33.1092753   7.6581673  27.7430113  29.9372753   7.2161673
  26.9460113  30.1612753   7.4901673  28.0010113  29.3432753   7.8011673
  27.6630113  29.8822753   7.3431673  31.0030113  27.9352753  12.0621673
  31.0580113  28.0602753  11.2001673  31.7560113  28.2552753  12.3641673
  31.1220113  28.0002753  11.9791673  27.1940113  33.2842753  16.3391673
  27.3580113  33.5672753  17.1481673  27.4570113  33.9452753  15.8341673
  27.2570113  33.4242753  16.3841673  32.0350113  18.2332753  15.0491673
  31.3980113  17.8332753  14.6071673  32.0610113  17.8022753  15.8071673
  31.9450113  18.1112753  15.0951673  26.7340113  27.7412753  11.6621673
  26.5790113  28.3512753  12.2661673  27.2680113  27.1832753  12.0681673
  26.7900113  27.7492753  11.8111673  15.4250113  18.4602753   1.8631673
  15.5540113  17.7522753   1.3711673  15.0580113  18.1422753   2.5881673
  15.3900113  18.3082753   1.8981673  25.1180113  26.1412753   2.3201673
  25.1770113  26.7912753   2.8991673  24.9290113  25.4452753   2.8111673
  25.0990113  26.1342753   2.4781673  30.3440113  30.4702753   8.1891673
  29.8650113  30.7682753   7.5231673  29.9880113  29.6942753   8.3671673
  30.2210113  30.3992753   8.1171673  24.3410113  28.1882753   6.7511673
  23.4940113  27.9942753   6.8321673  24.6650113  28.0232753   7.5441673
  24.2630113  28.1352753   6.8801673  18.1890113  27.8812753   9.0671673
  18.9110113  28.3692753   9.0301673  17.9190113  27.8512753   8.2381673
  18.2560113  27.9492753   8.9391673  21.4190113  23.0522753   5.8021673
  22.2650113  22.8622753   5.9001673  21.0490113  22.2752753   5.6641673
  21.4890113  22.9092753   5.7961673  16.2400113  24.3902753   2.4571673
  16.7290113  24.0982753   3.1181673  16.3690113  23.7972753   1.8301673
  16.3310113  24.2592753   2.4621673  31.2750113  27.4122753   9.3081673
  31.2680113  26.6362753   9.7061673  30.4340113  27.6462753   9.3011673
  31.1500113  27.3322753   9.3661673  17.5840113  28.9332753  13.3451673
  17.1630113  28.4152753  12.7841673  17.2320113  29.7192753  13.2021673
  17.4700113  28.9732753  13.2411673  32.5310113  27.4832753   6.7451673
  32.2450113  27.8842753   7.4651673  33.3910113  27.4212753   6.8721673
  32.6160113  27.5332753   6.8701673  30.1930113  21.4072753  15.2851673
  29.6680113  21.8662753  15.8091673  29.8320113  20.6122753  15.2791673
  30.0620113  21.3572753  15.3611673  15.7000113  20.2552753   7.1891673
  15.7440113  20.5992753   6.3881673  16.4550113  20.4922753   7.5561673
  15.8180113  20.3412753   7.1251673  33.6620113  33.1162753   7.2741673
  33.9520113  33.3732753   6.4931673  34.3570113  33.2122753   7.7931673
  33.8080113  33.1682753   7.2351673  28.6850113  24.9762753  15.3611673
  28.7580113  25.0802753  16.2241673  28.0510113  25.5342753  15.1401673
  28.6020113  25.0742753  15.4561673  30.9530113  25.2952753  13.7261673
  31.2720113  26.0812753  13.9291673  30.5830113  25.0252753  14.4691673
  30.9460113  25.3712753  13.8661673  30.7490113  23.5532753   4.9151673
  30.0040113  23.2302753   5.2331673  30.7510113  24.3792753   5.1951673
  30.6390113  23.6272753   5.0031673  33.6510113  25.8372753  16.4611673
  33.5990113  25.4962753  15.6601673  34.3880113  26.3042753  16.4391673
  33.7520113  25.8562753  16.3391673  33.1890113  29.5132753  12.6671673
  33.8170113  28.9642753  12.4111673  33.1280113  30.0782753  12.0051673
  33.2730113  29.5162753  12.5311673  22.3230113  30.7442753   9.9631673
  22.0250113  31.3362753  10.5301673  22.3780113  31.1862753   9.2141673
  22.2870113  30.8972753   9.9361673  20.3020113  29.6942753  13.3611673
  19.4960113  29.4042753  13.5281673  20.2130113  30.5622753  13.3671673
  20.1700113  29.7792753  13.3861673  29.6610113  19.8832753  12.3761673
  30.4050113  20.3352753  12.3131673  29.0950113  20.3532753  11.9071673
  29.6880113  20.0202753  12.2981673  24.8390113  27.1672753   9.4541673
  25.3150113  27.5412753  10.0821673  24.0160113  27.3012753   9.7131673
  24.7880113  27.2422753   9.5851673  21.5490113  22.7702753  12.1951673
  21.7100113  22.0262753  12.6221673  21.5040113  22.5212753  11.3601673
  21.5660113  22.6232753  12.1351673  24.1030113  34.5602753   4.6821673
  24.6490113  35.2392753   4.7361673  23.7530113  34.6422753   3.8871673
  24.1320113  34.6732753   4.5721673  30.9460113  17.8632753  10.0461673
  30.6660113  18.6882753  10.0021673  31.6620113  17.9162753  10.5421673
  31.0110113  17.9932753  10.1131673  23.3010113  18.5782753  12.0751673
  24.0060113  18.8982753  11.6731673  23.5420113  17.7712753  12.3021673
  23.4400113  18.5062753  12.0491673  22.2860113  32.7882753   8.0711673
  21.6620113  33.3702753   7.8891673  22.5340113  32.5022753   7.2851673
  22.2300113  32.8322753   7.9281673  26.5950113  29.4222753  15.0601673
  27.3520113  29.7082753  14.7341673  26.0480113  29.4742753  14.3821673
  26.6260113  29.4722753  14.9111673  30.5040113  31.9722753  13.5641673
  30.8500113  32.2422753  14.3181673  30.7980113  32.5542753  12.9841673
  30.5990113  32.0982753  13.5901673  19.8100113  23.6312753   8.1361673
  20.2500113  23.5282753   7.3901673  20.3550113  23.3182753   8.7411673
  19.9550113  23.5702753   8.1151673  27.8260113  22.7332753  13.7281673
  27.1780113  23.2032753  14.0761673  28.3910113  22.6442753  14.3871673
  27.8140113  22.7892753  13.8771673  27.5140113  24.2702753  10.0261673
  27.8160113  24.6902753  10.7291673  27.5500113  23.4302753  10.2581673
  27.5640113  24.2082753  10.1641673  24.9390113  34.4372753  13.9511673
  25.4170113  33.8372753  13.5351673  24.5880113  33.9942753  14.6161673
  24.9580113  34.2832753  13.9881673  30.0620113  23.7172753   2.2781673
  30.2690113  23.5162753   3.1021673  30.8180113  23.9852753   1.9361673
  30.2040113  23.7272753   2.3491673  23.3570113  18.6162753   8.1831673
  22.5310113  18.4672753   8.4201673  23.3170113  18.6512753   7.3121673
  23.2290113  18.5992753   8.0891673  31.0840113  19.8002753   3.7521673
  30.3700113  19.3292753   3.9231673  30.9220113  20.1412753   2.9661673
  30.9550113  19.7812753   3.6611673  31.5270113  27.7442753   2.1321673
  32.0030113  27.0152753   2.0841673  30.7060113  27.4582753   2.0561673
  31.4760113  27.5942753   2.1131673  24.9980113  29.6562753  12.9711673
  24.2030113  29.5922753  13.3221673  25.0690113  30.5032753  12.7761673
  24.8910113  29.7712753  12.9941673  15.9220113  19.0142753  14.2181673
  15.7820113  19.8092753  13.8871673  15.1360113  18.7712753  14.5071673
  15.7850113  19.0962753  14.2121673  20.8280113  35.8632753   8.2881673
  20.8390113  35.9222753   9.1581673  20.4030113  35.1162753   8.1381673
  20.7670113  35.7612753   8.3941673  27.7430113  28.9112753   4.4871673
  27.8190113  29.2522753   5.2861673  27.9120113  28.0642753   4.6081673
  27.7790113  28.8362753   4.6231673  25.2650113  28.1852753   4.0521673
  24.9670113  27.8702753   4.8091673  25.9600113  28.6582753   4.2871673
  25.3240113  28.2082753   4.1991673  25.4870113  32.3032753  12.0791673
  26.1740113  32.1892753  12.6041673  25.6210113  33.0942753  11.7351673
  25.6080113  32.4032753  12.1061673  33.6630113  24.9122753  13.8901673
  32.8080113  24.7902753  14.0161673  33.8160113  24.5172753  13.1271673
  33.5590113  24.8352753  13.7961673  28.1760113  25.5772753  12.4661673
  27.9210113  24.8582753  12.8881673  28.9970113  25.6932753  12.7361673
  28.2600113  25.4882753  12.5681673  17.5920113  35.3612753  13.7301673
  16.9380113  34.7922753  13.8281673  17.2170113  36.1342753  13.8811673
  17.4400113  35.3912753  13.7671673  26.1100113  26.7672753  15.6531673
  26.4330113  27.4532753  15.2211673  25.4060113  27.0902753  16.0551673
  26.0530113  26.9162753  15.6481673  29.1940113  35.1412753   6.5821673
  28.7430113  35.7842753   6.9611673  29.9020113  35.0622753   7.0871673
  29.2320113  35.2242753   6.7131673  25.8950113  30.2312753   9.5121673
  25.2010113  30.6332753   9.8551673  26.5720113  30.6642753   9.8511673
  25.8920113  30.3542753   9.6131673  31.2720113  32.8242753  16.0921673
  32.0480113  32.4342753  16.1751673  30.8030113  32.4882753  16.7471673
  31.3170113  32.7172753  16.2011673  18.9630113  23.7692753  11.8591673
  19.3380113  24.3882753  11.3721673  19.6370113  23.2952753  12.1441673
  19.1180113  23.7912753  11.8291673  16.7380113  22.2172753  11.1341673
  16.8150113  22.0482753  10.2811673  17.4840113  22.6232753  11.3311673
  16.8590113  22.2522753  11.0371673  19.2920113  19.6272753  13.5451673
  19.2110113  18.7832753  13.7511673  18.9780113  19.6712753  12.7321673
  19.2340113  19.5092753  13.4551673  26.2170113  31.8222753   2.6811673
  26.0120113  32.6552753   2.5221673  25.4420113  31.4402753   2.8031673
  26.0720113  31.8892753   2.6761673  31.3990113  25.0032753  10.9301673
  31.3970113  24.1402753  11.0541673  31.4660113  25.3272753  11.7371673
  31.4090113  24.9232753  11.0671673  16.1350113  27.4432753  11.3581673
  16.4550113  27.6622753  10.5771673  16.0350113  26.5782753  11.3031673
  16.1670113  27.3482753  11.2351673  27.2780113  19.8032753  14.7121673
  27.3700113  20.5152753  15.2061673  26.6410113  19.3582753  15.1091673
  27.1970113  19.8422753  14.8441673  26.2720113  19.9932753   5.5661673
  25.5720113  20.5112753   5.5101673  26.3100113  19.6132753   4.7821673
  26.1740113  20.0142753   5.4421673  29.8700113  20.5092753   8.3661673
  30.7250113  20.6082753   8.5111673  29.5010113  21.0622753   8.9311673
  29.9420113  20.6062753   8.4711673  20.8980113  26.7352753  12.7431673
  20.5020113  27.5092753  12.8181673  20.4920113  26.3622753  12.0671673
  20.7800113  26.7942753  12.6541673  30.1740113  25.7892753   6.8571673
  30.8400113  26.3302753   7.0171673  29.8290113  26.1002753   6.1181673
  30.2210113  25.9152753   6.7721673  30.4870113  33.8552753   2.6641673
  30.3130113  33.2012753   3.2141673  31.2000113  33.5842753   2.2411673
  30.5670113  33.7182753   2.6831673  21.3270113  19.7122753  10.1931673
  20.4630113  19.7962753  10.2731673  21.5470113  19.1982753  10.8621673
  21.2320113  19.6492753  10.3041673  33.3450113  18.3472753  11.5221673
  33.2930113  18.3032753  12.3921673  34.0320113  17.8442753  11.3321673
  33.4390113  18.2672753  11.6221673  25.4300113  20.4602753   8.5671673
  24.6930113  20.0062753   8.6801673  26.0010113  20.0582753   9.0901673
  25.4050113  20.3332753   8.6611673  28.1620113  31.3082753  10.3551673
  28.3680113  31.6092753  11.1471673  28.1010113  32.0302753   9.8701673
  28.1830113  31.4592753  10.4001673  27.6960113  35.5222753  14.6011673
  26.9430113  35.5042753  14.1601673  27.8640113  36.3742753  14.6851673
  27.6100113  35.6452753  14.5481673  32.9740113  29.9472753   9.8131673
  32.9420113  29.0852753   9.6781673  32.2810113  30.2492753   9.3791673
  32.8670113  29.8642753   9.7291673  21.3680113  35.1452753  14.0191673
  21.4090113  35.2712753  14.8821673  22.0190113  34.5852753  13.8631673
  21.4700113  35.0812753  14.1241673  31.0790113  33.2072753   8.6101673
  31.6060113  33.1242753   7.9191673  30.6880113  32.4292753   8.6641673
  31.0990113  33.0802753   8.5161673  18.5470113  19.7952753  10.8411673
  18.2040113  19.0282753  10.6071673  17.8520113  20.3192753  10.9051673
  18.3940113  19.7592753  10.8161673  27.5930113  18.6512753   7.8181673
  28.2630113  19.1952753   7.9451673  27.0900113  19.0752753   7.2451673
  27.6180113  18.7942753   7.7521673  18.9610113  33.5282753  15.3791673
  19.5560113  33.9592753  15.8511673  18.5970113  34.1522753  14.8901673
  18.9950113  33.6842753  15.3761673  26.9520113  24.4592753   5.3111673
  27.5030113  23.8522753   5.6111673  26.5270113  24.7222753   6.0261673
  26.9710113  24.4082753   5.4601673  17.2000113  23.1092753   4.7971673
  16.8320113  23.4112753   5.5281673  17.7340113  22.4802753   5.0811673
  17.2240113  23.0612753   4.9471673  16.8880113  31.5172753  12.3081673
  16.3140113  31.9332753  12.8171673  17.6210113  31.9822753  12.4031673
  16.9120113  31.6472753  12.3971673  28.9220113  26.2902753   1.8731673
  28.9900113  25.4402753   2.0541673  28.0990113  26.3762753   1.5951673
  28.8100113  26.1772753   1.8591673  32.1960113  27.6632753  15.0241673
  32.8300113  27.4932753  15.5981673  32.6130113  28.0662753  14.3721673
  32.3510113  27.6982753  15.0131673  32.7200113  23.1682753   8.7331673
  31.8870113  23.4182753   8.6611673  32.6640113  22.3282753   8.9621673
  32.5890113  23.0812753   8.7561673  21.9800113  20.1562753  13.9271673
  22.2140113  19.5802753  13.3141673  21.1380113  19.9752753  14.0681673
  21.8900113  20.0442753  13.8571673  29.6070113  27.7742753  16.3791673
  30.4780113  27.7382753  16.3431673  29.3880113  28.1942753  15.6471673
  29.7040113  27.8302753  16.2661673  19.3610113  33.5992753   7.5601673
  19.2820113  32.7892753   7.2441673  18.9170113  34.0862753   6.9881673
  19.2840113  33.5512753   7.4291673  16.9330113  35.8432753  11.1411673
  17.4260113  35.7872753  11.8591673  17.1210113  35.1102753  10.7061673
  17.0340113  35.7262753  11.1831673  26.1800113   6.7971673  83.9841313
  25.6560113   7.3931673  84.3471313  26.5770113   6.4291673  84.6681313
  26.1610113   6.8311673  84.1391313  16.0490113  10.9371673  79.4401313
  15.6080113  11.0551673  80.1831313  15.7660113  10.1621673  79.1551313
  15.9420113  10.8401673  79.5081313  32.3240113  14.2381673  76.9551313
  33.0250113  13.7191673  76.9511313  31.7370113  13.7931673  76.4861313
  32.3410113  14.0951673  76.8851313  15.7920113   4.7291673  75.9471313
  15.0140113   4.8911673  75.5871313  15.8310113   3.8581673  75.9691313
  15.6830113   4.6241673  75.8971313  18.9310113   9.9921673  74.6191313
  18.5390113   9.6211673  73.9331313  18.8510113   9.3941673  75.2481313
  18.8610113   9.8491673  74.6101313  28.8510113   7.8641673  80.6601313
  28.9310113   7.8681673  79.7911313  28.2670113   7.2321673  80.8091313
  28.7760113   7.7711673  80.5541313  18.5580113  11.6331673  78.5191313
  19.1660113  11.4631673  79.1221313  17.8070113  11.4931673  78.9401313
  18.5370113  11.5871673  78.6701313  17.4490113  14.7241673  74.5961313
  17.9160113  14.8081673  73.8641313  17.9040113  14.1461673  75.0651313
  17.5850113  14.6511673  74.5571313  15.9890113  13.6721673  85.6951313
  16.1180113  13.3921673  86.5111313  15.3790113  13.1311673  85.3861313
  15.9180113  13.5511673  85.7701313  17.4350113   8.1931673  79.8971313
  16.9730113   7.8011673  79.2701313  18.1350113   7.6801673  79.9891313
  17.4700113   8.0601673  79.8181313  21.9430113   3.8031673  85.2441313
  22.6210113   3.8211673  84.6951313  21.8980113   2.9671673  85.4891313
  22.0360113   3.6821673  85.1991313  22.5450113  14.3891673  88.0251313
  22.6830113  15.1491673  87.6181313  23.3360113  14.0241673  88.0521313
  22.6820113  14.4481673  87.9691313  19.4360113   6.2931673  79.9201313
  20.2530113   6.1061673  80.1631313  18.9590113   5.6791673  80.3161313
  19.4860113   6.1751673  80.0151313  23.6400113  12.2741673  82.5301313
  23.9880113  11.4751673  82.5601313  24.3050113  12.7781673  82.2751313
  23.7900113  12.2301673  82.4971313  23.6970113  11.7231673  78.7411313
  24.0280113  11.0791673  79.2271313  23.9370113  11.5121673  77.9301313
  23.7810113  11.5971673  78.6931313  27.6850113   3.4551673  73.7081313
  27.2350113   4.1361673  74.0151313  27.7990113   2.9511673  74.4111313
  27.6360113   3.4811673  73.8571313  15.8910113   5.9541673  82.9101313
  15.6350113   6.7851673  82.8351313  15.2270113   5.5711673  83.3271313
  15.7550113   6.0201673  82.9611313  15.8010113  15.6641673  80.8101313
  15.2090113  16.2221673  80.4971313  16.2270113  15.3951673  80.0981313
  15.7770113  15.7061673  80.6591313  21.6410113  13.5081673  78.2901313
  21.0620113  13.2331673  78.8821313  22.2650113  12.8991673  78.3151313
  21.6480113  13.3781673  78.3811313  27.7840113  15.7961673  75.8121313
  28.5110113  16.2681673  75.9141313  28.0130113  15.0021673  76.0921313
  27.9260113  15.7491673  75.8691313  25.9520113  16.1881673  77.8021313
  26.1660113  16.7151673  78.4641313  26.7190113  16.0141673  77.4231313
  26.0970113  16.2401673  77.8441313  17.3460113  14.3341673  78.7411313
  18.0020113  13.7591673  78.7561313  17.7350113  15.0831673  78.5201313
  17.5010113  14.3591673  78.7111313  33.0790113   3.4281673  80.0031313
  32.7330113   4.1061673  80.4291313  32.4430113   2.8301673  80.0191313
  32.9340113   3.4401673  80.0681313  28.3910113  16.1981673  86.1071313
  29.1350113  16.6541673  86.0971313  28.2700113  15.9841673  85.2701313
  28.4830113  16.2341673  85.9821313  18.1640113  12.8211673  82.2411313
  18.5870113  12.4651673  81.5671313  18.4880113  12.3991673  82.9331313
  18.2740113  12.7061673  82.2441313  21.3950113  15.6731673  81.5371313
  22.2390113  15.7771673  81.3421313  21.0980113  16.4911673  81.6051313
  21.4760113  15.8091673  81.5181313  25.2020113   5.0701673  79.6241313
  25.4890113   4.8381673  78.8341313  25.9340113   5.1491673  80.0931313
  25.3520113   5.0471673  79.5771313  25.9240113   5.4091673  74.7451313
  26.2050113   6.1971673  74.9941313  25.1480113   5.5741673  74.3821313
  25.8510113   5.5501673  74.7281313  29.9650113  17.3831673  76.2121313
  30.6300113  17.2351673  75.6671313  30.3250113  17.3001673  77.0021313
  30.1170113  17.3491673  76.2481313  20.3930113  16.8921673  87.2771313
  20.6850113  16.8251673  88.0971313  19.7670113  16.2871673  87.2321313
  20.3440113  16.7931673  87.3921313  24.7830113  13.5801673  74.5611313
  24.6020113  14.1251673  75.2181313  25.5490113  13.8701673  74.2601313
  24.8690113  13.7041673  74.6141313  16.2440113   2.6441673  78.1841313
  16.1300113   1.7801673  78.2151313  15.7690113   2.9381673  78.8541313
  16.1570113   2.5601673  78.2871313  18.3860113  15.0541673  86.3991313
  17.6880113  14.5461673  86.5251313  18.6460113  14.8491673  85.5911313
  18.3210113  14.9491673  86.2981313  25.5480113   3.8521673  76.9291313
  25.0400113   3.1901673  76.6751313  25.6000113   4.3561673  76.2191313
  25.4810113   3.8291673  76.7871313  26.0970113  16.5471673  87.3091313
  26.8650113  16.4671673  86.9031313  25.5140113  16.4261673  86.6711313
  26.1240113  16.5171673  87.1551313  32.3740113  17.1501673  80.2101313
  31.9190113  17.8671673  80.4111313  31.7600113  16.5791673  79.9681313
  32.2160113  17.1721673  80.2041313  24.1460113   3.1601673  81.3421313
  24.2200113   3.7281673  80.6841313  24.2670113   3.6521673  82.0521313
  24.1740113   3.3171673  81.3501313  29.3710113  12.9951673  79.7541313
  30.0720113  12.5131673  79.9431313  28.7110113  12.4261673  79.7991313
  29.3770113  12.8401673  79.7881313  21.7100113   9.4161673  83.7151313
  21.8820113   9.2061673  84.5441313  21.0550113   8.8821673  83.4991313
  21.6390113   9.3061673  83.8061313  27.9380113   3.3301673  87.2301313
  27.8430113   3.6491673  88.0361313  27.3450113   2.6911673  87.1921313
  27.8360113   3.2821673  87.3441313  22.4600113   9.3541673  86.3051313
  22.5130113  10.2011673  86.5071313  22.1750113   8.9841673  87.0421313
  22.4260113   9.4241673  86.4431313  28.6370113  10.0491673  85.4351313
  28.1230113   9.6371673  86.0061313  28.5110113  10.8931673  85.6161313
  28.5430113  10.1131673  85.5461313  19.2020113   2.7931673  81.3441313
  19.4740113   2.3631673  80.6361313  19.0260113   2.1571673  81.9151313
  19.2160113   2.6361673  81.3241313  31.8900113  10.4881673  75.5621313
  32.0090113  10.2011673  76.3771313  32.6970113  10.5091673  75.2321313
  32.0260113  10.4491673  75.6341313  19.0260113  10.2201673  80.8931313
  19.8770113  10.1401673  80.7201313  18.6690113   9.5381673  80.4811313
  19.0990113  10.1071673  80.8061313  17.7930113  16.9451673  82.1301313
  17.1200113  16.4471673  81.8851313  18.1960113  17.1301673  81.3791313
  17.7530113  16.8991673  81.9831313  17.3430113   3.8951673  84.4261313
  18.1860113   4.1151673  84.3831313  16.9540113   4.4681673  83.8951313
  17.4100113   4.0121673  84.3411313  29.7850113   7.0251673  75.1471313
  29.5650113   7.7561673  74.7251313  29.3370113   7.0761673  75.8941313
  29.6860113   7.1401673  75.1951313  21.3940113  10.2271673  79.1281313
  22.1070113  10.7221673  79.2181313  21.6160113   9.6601673  78.5021313
  21.5320113  10.2161673  79.0491313  15.5500113  11.8701673  82.4481313
  14.8830113  12.3581673  82.7241313  16.2300113  12.4151673  82.4771313
  15.5520113  12.0221673  82.4931313  34.2950113   6.2641673  87.1561313
  34.5100113   5.4641673  86.8801313  33.4450113   6.3241673  86.9671313
  34.2010113   6.1551673  87.0871313  15.6160113   8.5541673  77.5511313
  15.4310113   7.7151673  77.7031313  16.2750113   8.5181673  76.9811313
  15.6860113   8.4251673  77.4891313  25.9170113  13.9301673  81.4551313
  25.3940113  14.5641673  81.1621313  26.2270113  13.5661673  80.7261313
  25.8850113  13.9701673  81.3041313  15.7880113  12.7181673  77.1261313
  16.3400113  13.2871673  77.4901313  15.5560113  12.2031673  77.7911313
  15.8350113  12.7261673  77.2781313  19.9920113  11.7181673  84.2151313
  20.4590113  12.0071673  84.8931313  20.5640113  11.2401673  83.7611313
  20.1460113  11.6901673  84.2481313  28.4280113   3.7321673  81.9521313
  28.7720113   3.8841673  82.7391313  27.9750113   2.9941673  82.0651313
  28.4120113   3.6451673  82.0851313  15.6180113  11.1671673  74.7541313
  16.3740113  10.7351673  74.8121313  15.6330113  11.6991673  75.4451313
  15.7320113  11.1821673  74.8651313  16.5580113   9.3881673  82.7591313
  16.9890113   9.2591673  82.0121313  16.3530113  10.2361673  82.7331313
  16.5910113   9.4941673  82.6451313  22.9040113   2.9521673  76.4091313
  22.9020113   2.8351673  75.5441313  22.7230113   3.8001673  76.5011313
  22.8770113   3.0601673  76.2951313  31.9580113  15.3791673  87.9061313
  31.2870113  15.8931673  88.1241313  32.0210113  15.4791673  87.0421313
  31.8680113  15.4701673  87.8111313  20.6420113  12.9041673  81.0411313
  20.7680113  13.7471673  81.2281313  21.3100113  12.5051673  81.4371313
  20.7600113  12.9701673  81.1271313  19.2570113   5.7841673  76.0431313
  19.1290113   5.3361673  76.7811313  18.6750113   5.4421673  75.4911313
  19.1520113   5.6671673  76.0711313  19.4240113   7.6141673  82.6421313
  18.6430113   7.5551673  82.2591313  19.4960113   6.8621673  83.0791313
  19.3190113   7.4951673  82.6501313  19.8540113   7.3511673  86.1101313
  19.8790113   6.6761673  85.5591313  19.2080113   7.8471673  85.7981313
  19.7630113   7.3241673  85.9831313  29.7490113   5.0641673  84.5061313
  29.0870113   5.3921673  84.9691313  29.9360113   5.6981673  83.9371313
  29.6790113   5.2061673  84.4901313  23.9540113  16.1281673  85.5021313
  23.6770113  15.4871673  84.9791313  23.7460113  16.8541673  85.0641313
  23.8830113  16.1411673  85.3601313  27.9420113   3.0331673  78.0171313
  28.4320113   3.7501673  77.9401313  27.1520113   3.2941673  77.7541313
  27.8980113   3.1771673  77.9671313  24.5240113   4.5031673  83.7421313
  25.0040113   5.2021673  83.9501313  24.8970113   3.8561673  84.1931313
  24.6500113   4.5111673  83.8391313  26.7130113   7.6721673  76.0161313
  26.7050113   8.3941673  75.5261313  26.0740113   7.8071673  76.5931313
  26.6180113   7.7991673  76.0291313  31.6850113  11.5421673  79.9971313
  32.0410113  11.1921673  80.7121313  31.6770113  10.8811673  79.4271313
  31.7370113  11.3921673  80.0181313  27.7300113  14.6081673  83.8411313
  27.1270113  14.3121673  83.2841313  28.2750113  15.0601673  83.3321313
  27.7210113  14.6311673  83.6831313  27.7430113  11.4591673  83.2411313
  26.9460113  11.6831673  83.5151313  28.0010113  10.8651673  83.8261313
  27.6630113  11.4041673  83.3681313  21.6350113  16.2711673  77.6891313
  21.4880113  15.4951673  78.0601313  22.3240113  16.1241673  77.1741313
  21.7150113  16.1341673  77.6681313  23.9270113  15.7871673  76.0911313
  24.5490113  15.9501673  76.6811313  23.9630113  16.4781673  75.5591313
  24.0240113  15.9131673  76.1001313  31.0030113   9.4571673  88.0871313
  31.0580113   9.5821673  87.2251313  31.7560113   9.7771673  88.3891313
  31.1220113   9.5221673  88.0041313  18.4280113   8.3211673  76.9201313
  18.7520113   7.5421673  76.6981313  19.0740113   8.6891673  77.3751313
  18.5710113   8.2601673  76.9541313  26.7340113   9.2631673  87.6871313
  26.5790113   9.8731673  88.2911313  27.2680113   8.7051673  88.0931313
  26.7900113   9.2711673  87.8361313  25.1180113   7.6631673  78.3451313
  25.1770113   8.3131673  78.9241313  24.9290113   6.9671673  78.8361313
  25.0990113   7.6561673  78.5031313  30.3440113  11.9921673  84.2141313
  29.8650113  12.2901673  83.5481313  29.9880113  11.2161673  84.3921313
  30.2210113  11.9211673  84.1421313  19.6140113   2.1801673  74.8571313
  19.1030113   2.2331673  74.1511313  20.3980113   2.4201673  74.5611313
  19.6540113   2.2231673  74.7091313  24.3410113   9.7101673  82.7761313
  23.4940113   9.5161673  82.8571313  24.6650113   9.5451673  83.5691313
  24.2630113   9.6571673  82.9051313  21.0930113  16.4401673  73.6621313
  21.5320113  15.7431673  73.9501313  21.3000113  17.0641673  74.2351313
  21.1890113  16.4291673  73.7891313  18.1890113   9.4031673  85.0921313
  18.9110113   9.8911673  85.0551313  17.9190113   9.3731673  84.2631313
  18.2560113   9.4711673  84.9641313  21.4190113   4.5741673  81.8271313
  22.2650113   4.3841673  81.9251313  21.0490113   3.7971673  81.6891313
  21.4890113   4.4311673  81.8211313  34.0360113  16.1581673  76.1541313
  34.7300113  15.6911673  75.9061313  33.4970113  15.5601673  76.4911313
  34.0590113  16.0001673  76.1671313  16.2400113   5.9121673  78.4821313
  16.7290113   5.6201673  79.1431313  16.3690113   5.3191673  77.8551313
  16.3310113   5.7811673  78.4871313  31.2750113   8.9341673  85.3331313
  31.2680113   8.1581673  85.7311313  30.4340113   9.1681673  85.3261313
  31.1500113   8.8541673  85.3911313  20.7650113   7.3461673  73.9681313
  20.1550113   6.9411673  74.4421313  20.3790113   7.4641673  73.1951313
  20.6180113   7.3031673  73.9241313  32.5310113   9.0051673  82.7701313
  32.2450113   9.4061673  83.4901313  33.3910113   8.9431673  82.8971313
  32.6160113   9.0551673  82.8951313  22.2200113   5.8071673  76.6781313
  22.4920113   6.6331673  76.7451313  21.3570113   5.8821673  76.5821313
  22.1330113   5.9401673  76.6731313  15.7000113   1.7771673  83.2141313
  15.7440113   2.1211673  82.4131313  16.4550113   2.0141673  83.5811313
  15.8180113   1.8631673  83.1501313  33.6620113  14.6381673  83.2991313
  33.9520113  14.8951673  82.5181313  34.3570113  14.7341673  83.8181313
  33.8080113  14.6901673  83.2601313  30.2670113  13.2411673  75.2811313
  30.6010113  12.4351673  75.3161313  29.5120113  13.1691673  75.7111313
  30.2050113  13.1111673  75.3501313  30.7490113   5.0751673  80.9401313
  30.0040113   4.7521673  81.2581313  30.7510113   5.9011673  81.2201313
  30.6390113   5.1491673  81.0281313  33.1890113  11.0351673  88.6921313
  33.8170113  10.4861673  88.4361313  33.1280113  11.6001673  88.0301313
  33.2730113  11.0381673  88.5561313  27.6410113  11.1161673  74.6841313
  28.3250113  10.6021673  74.5151313  27.2240113  11.1621673  73.9191313
  27.6800113  11.0471673  74.5461313  22.3230113  12.2661673  85.9881313
  22.0250113  12.8581673  86.5551313  22.3780113  12.7081673  85.2391313
  22.2870113  12.4191673  85.9611313  24.8390113   8.6891673  85.4791313
  25.3150113   9.0631673  86.1071313  24.0160113   8.8231673  85.7381313
  24.7880113   8.7641673  85.6101313  21.5490113   4.2921673  88.2201313
  21.7100113   3.5481673  88.6471313  21.5040113   4.0431673  87.3851313
  21.5660113   4.1451673  88.1601313  24.1030113  16.0821673  80.7071313
  24.6490113  16.7611673  80.7611313  23.7530113  16.1641673  79.9121313
  24.1320113  16.1951673  80.5971313  22.2860113  14.3101673  84.0961313
  21.6620113  14.8921673  83.9141313  22.5340113  14.0241673  83.3101313
  22.2300113  14.3541673  83.9531313  32.3670113   5.6401673  74.9281313
  32.7450113   6.3171673  74.5281313  31.5250113   5.8641673  74.9591313
  32.2980113   5.7731673  74.8731313  23.8800113   9.0861673  74.0111313
  23.0750113   8.9091673  73.7261313  23.8470113   9.9371673  74.2031313
  23.7560113   9.1851673  73.9981313  19.8100113   5.1531673  84.1611313
  20.2500113   5.0501673  83.4151313  20.3550113   4.8401673  84.7661313
  19.9550113   5.0921673  84.1401313  27.5140113   5.7921673  86.0511313
  27.8160113   6.2121673  86.7541313  27.5500113   4.9521673  86.2831313
  27.5640113   5.7301673  86.1891313  30.0620113   5.2391673  78.3031313
  30.2690113   5.0381673  79.1271313  30.8180113   5.5071673  77.9611313
  30.2040113   5.2491673  78.3741313  31.5270113   9.2661673  78.1571313
  32.0030113   8.5371673  78.1091313  30.7060113   8.9801673  78.0811313
  31.4760113   9.1161673  78.1381313  20.8280113  17.3851673  84.3131313
  20.8390113  17.4441673  85.1831313  20.4030113  16.6381673  84.1631313
  20.7670113  17.2831673  84.4191313  18.9860113   3.2801673  77.4681313
  19.1120113   2.9511673  76.6701313  18.1740113   3.0311673  77.6671313
  18.8850113   3.1951673  77.3801313  27.7430113  10.4331673  80.5121313
  27.8190113  10.7741673  81.3111313  27.9120113   9.5861673  80.6331313
  27.7790113  10.3581673  80.6481313  25.2650113   9.7071673  80.0771313
  24.9670113   9.3921673  80.8341313  25.9600113  10.1801673  80.3121313
  25.3240113   9.7301673  80.2241313  25.4870113  13.8251673  88.1041313
  26.1740113  13.7111673  88.6291313  25.6210113  14.6161673  87.7601313
  25.6080113  13.9251673  88.1311313  28.1760113   7.0991673  88.4911313
  27.9210113   6.3801673  88.9131313  28.9970113   7.2151673  88.7611313
  28.2600113   7.0101673  88.5931313  29.1940113  16.6631673  82.6071313
  28.7430113  17.3061673  82.9861313  29.9020113  16.5841673  83.1121313
  29.2320113  16.7461673  82.7381313  25.8950113  11.7531673  85.5371313
  25.2010113  12.1551673  85.8801313  26.5720113  12.1861673  85.8761313
  25.8920113  11.8761673  85.6381313  18.9630113   5.2911673  87.8841313
  19.3380113   5.9101673  87.3971313  19.6370113   4.8171673  88.1691313
  19.1180113   5.3131673  87.8541313  16.7380113   3.7391673  87.1591313
  16.8150113   3.5701673  86.3061313  17.4840113   4.1451673  87.3561313
  16.8590113   3.7741673  87.0621313  32.2970113   6.3791673  77.5991313
  32.4000113   6.3211673  76.7351313  33.0380113   6.0471673  77.9171313
  32.4220113   6.3221673  77.5181313  26.2170113  13.3441673  78.7061313
  26.0120113  14.1771673  78.5471313  25.4420113  12.9621673  78.8281313
  26.0720113  13.4111673  78.7011313  31.3990113   6.5251673  86.9551313
  31.3970113   5.6621673  87.0791313  31.4660113   6.8491673  87.7621313
  31.4090113   6.4451673  87.0921313  16.1350113   8.9651673  87.3831313
  16.4550113   9.1841673  86.6021313  16.0350113   8.1001673  87.3281313
  16.1670113   8.8701673  87.2601313  17.5910113   4.9011673  74.0011313
  16.9190113   4.9151673  74.5571313  17.6860113   4.0531673  73.8171313
  17.5060113   4.7781673  74.0561313  21.5790113  13.6061673  75.1151313
  22.0200113  13.6861673  75.8631313  20.7740113  13.3901673  75.3731313
  21.5250113  13.5861673  75.2641313  29.8700113   2.0311673  84.3911313
  30.7250113   2.1301673  84.5361313  29.5010113   2.5841673  84.9561313
  29.9420113   2.1281673  84.4961313  20.8980113   8.2571673  88.7681313
  20.5020113   9.0311673  88.8431313  20.4920113   7.8841673  88.0921313
  20.7800113   8.3161673  88.6791313  30.1740113   7.3111673  82.8821313
  30.8400113   7.8521673  83.0421313  29.8290113   7.6221673  82.1431313
  30.2210113   7.4371673  82.7971313  30.4870113  15.3771673  78.6891313
  30.3130113  14.7231673  79.2391313  31.2000113  15.1061673  78.2661313
  30.5670113  15.2401673  78.7081313  18.9080113  12.6761673  75.7161313
  18.6640113  12.3691673  76.4961313  18.8750113  11.9731673  75.2001313
  18.8670113  12.5271673  75.7551313  21.7270113  10.9211673  74.4591313
  20.9090113  10.6531673  74.5991313  21.6990113  11.7731673  74.6441313
  21.6020113  11.0081673  74.5071313  28.1620113  12.8301673  86.3801313
  28.3680113  13.1311673  87.1721313  28.1010113  13.5521673  85.8951313
  28.1830113  12.9811673  86.4251313  32.9740113  11.4691673  85.8381313
  32.9420113  10.6071673  85.7031313  32.2810113  11.7711673  85.4041313
  32.8670113  11.3861673  85.7541313  31.0790113  14.7291673  84.6351313
  31.6060113  14.6461673  83.9441313  30.6880113  13.9511673  84.6891313
  31.0990113  14.6021673  84.5411313  26.9520113   5.9811673  81.3361313
  27.5030113   5.3741673  81.6361313  26.5270113   6.2441673  82.0511313
  26.9710113   5.9301673  81.4851313  17.2000113   4.6311673  80.8221313
  16.8320113   4.9331673  81.5531313  17.7340113   4.0021673  81.1061313
  17.2240113   4.5831673  80.9721313  16.8880113  13.0391673  88.3331313
  16.3140113  13.4551673  88.8421313  17.6210113  13.5041673  88.4281313
  16.9120113  13.1691673  88.4221313  28.9220113   7.8121673  77.8981313
  28.9900113   6.9621673  78.0791313  28.0990113   7.8981673  77.6201313
  28.8100113   7.6991673  77.8841313  18.6740113  16.3061673  77.1081313
  18.5290113  16.4621673  76.2621313  19.5400113  16.3851673  77.1861313
  18.7810113  16.3411673  76.9951313  22.8410113   8.7031673  76.8361313
  22.9410113   8.8421673  75.9811313  23.6590113   8.6431673  77.1321313
  22.9760113   8.7141673  76.7531313  32.0010113  16.7671673  74.3161313
  32.6380113  16.6331673  74.8971313  31.6600113  15.9731673  74.1991313
  32.0450113  16.6301673  74.3841313  28.0760113  13.0321673  76.6381313
  27.8250113  12.9041673  77.4641313  27.7590113  12.3371673  76.2171313
  27.9920113  12.9111673  76.6981313  32.7200113   4.6901673  84.7581313
  31.8870113   4.9401673  84.6861313  32.6640113   3.8501673  84.9871313
  32.5890113   4.6031673  84.7811313  19.3610113  15.1211673  83.5851313
  19.2820113  14.3111673  83.2691313  18.9170113  15.6081673  83.0131313
  19.2840113  15.0731673  83.4541313  24.9620113  11.2401673  76.0681313
  25.6790113  10.8931673  75.7121313  24.9280113  12.0401673  75.7201313
  25.0630113  11.3071673  75.9641313  16.9330113  17.3651673  87.1661313
  17.4260113  17.3091673  87.8841313  17.1210113  16.6321673  86.7311313
  17.0340113  17.2481673  87.2081313  26.1800113   6.7971673  64.9778903
  25.6560113   7.3931673  65.3408903  26.5770113   6.4291673  65.6618903
  26.1610113   6.8311673  65.1328903  16.0490113  10.9371673  60.4338903
  15.6080113  11.0551673  61.1768903  15.7660113  10.1621673  60.1488903
  15.9420113  10.8401673  60.5018903  32.3240113  14.2381673  57.9488903
  33.0250113  13.7191673  57.9448903  31.7370113  13.7931673  57.4798903
  32.3410113  14.0951673  57.8788903  15.7920113   4.7291673  56.9408903
  15.0140113   4.8911673  56.5808903  15.8310113   3.8581673  56.9628903
  15.6830113   4.6241673  56.8908903  18.9310113   9.9921673  55.6128903
  18.5390113   9.6211673  54.9268903  18.8510113   9.3941673  56.2418903
  18.8610113   9.8491673  55.6038903  28.8510113   7.8641673  61.6538903
  28.9310113   7.8681673  60.7848903  28.2670113   7.2321673  61.8028903
  28.7760113   7.7711673  61.5478903  18.5580113  11.6331673  59.5128903
  19.1660113  11.4631673  60.1158903  17.8070113  11.4931673  59.9338903
  18.5370113  11.5871673  59.6638903  17.4490113  14.7241673  55.5898903
  17.9160113  14.8081673  54.8578903  17.9040113  14.1461673  56.0588903
  17.5850113  14.6511673  55.5508903  15.9890113  13.6721673  66.6888903
  16.1180113  13.3921673  67.5048903  15.3790113  13.1311673  66.3798903
  15.9180113  13.5511673  66.7638903  22.5630113  11.1971673  71.7558903
  22.3270113  11.1941673  72.5958903  21.8150113  11.0491673  71.3318903
  22.4170113  11.1741673  71.8168903  17.4350113   8.1931673  60.8908903
  16.9730113   7.8011673  60.2638903  18.1350113   7.6801673  60.9828903
  17.4700113   8.0601673  60.8118903  21.9430113   3.8031673  66.2378903
  22.6210113   3.8211673  65.6888903  21.8980113   2.9671673  66.4828903
  22.0360113   3.6821673  66.1928903  22.5450113  14.3891673  69.0188903
  22.6830113  15.1491673  68.6118903  23.3360113  14.0241673  69.0458903
  22.6820113  14.4481673  68.9628903  19.4360113   6.2931673  60.9138903
  20.2530113   6.1061673  61.1568903  18.9590113   5.6791673  61.3098903
  19.4860113   6.1751673  61.0088903  23.6400113  12.2741673  63.5238903
  23.9880113  11.4751673  63.5538903  24.3050113  12.7781673  63.2688903
  23.7900113  12.2301673  63.4908903  23.6970113  11.7231673  59.7348903
  24.0280113  11.0791673  60.2208903  23.9370113  11.5121673  58.9238903
  23.7810113  11.5971673  59.6868903  25.6650113   5.8541673  71.0738903
  24.8170113   5.7551673  70.8958903  25.6940113   6.5991673  71.5278903
  25.5440113   5.9501673  71.1148903  27.6850113   3.4551673  54.7018903
  27.2350113   4.1361673  55.0088903  27.7990113   2.9511673  55.4048903
  27.6360113   3.4811673  54.8508903  15.8910113   5.9541673  63.9038903
  15.6350113   6.7851673  63.8288903  15.2270113   5.5711673  64.3208903
  15.7550113   6.0201673  63.9548903  15.8010113  15.6641673  61.8038903
  15.2090113  16.2221673  61.4908903  16.2270113  15.3951673  61.0918903
  15.7770113  15.7061673  61.6528903  21.6410113  13.5081673  59.2838903
  21.0620113  13.2331673  59.8758903  22.2650113  12.8991673  59.3088903
  21.6480113  13.3781673  59.3748903  27.7840113  15.7961673  56.8058903
  28.5110113  16.2681673  56.9078903  28.0130113  15.0021673  57.0858903
  27.9260113  15.7491673  56.8628903  25.9520113  16.1881673  58.7958903
  26.1660113  16.7151673  59.4578903  26.7190113  16.0141673  58.4168903
  26.0970113  16.2401673  58.8378903  22.2260113   2.9041673  73.6928903
  22.3430113   2.4501673  72.9568903  22.5140113   3.7021673  73.4898903
  22.2860113   2.9551673  73.5538903  17.3460113  14.3341673  59.7348903
  18.0020113  13.7591673  59.7498903  17.7350113  15.0831673  59.5138903
  17.5010113  14.3591673  59.7048903  33.0790113   3.4281673  60.9968903
  32.7330113   4.1061673  61.4228903  32.4430113   2.8301673  61.0128903
  32.9340113   3.4401673  61.0618903  28.3910113  16.1981673  67.1008903
  29.1350113  16.6541673  67.0908903  28.2700113  15.9841673  66.2638903
  28.4830113  16.2341673  66.9758903  17.9590113   2.5011673  72.6768903
  17.1810113   2.1111673  72.6048903  18.4500113   2.0891673  72.0858903
  17.9160113   2.3821673  72.5788903  18.1640113  12.8211673  63.2348903
  18.5870113  12.4651673  62.5608903  18.4880113  12.3991673  63.9268903
  18.2740113  12.7061673  63.2378903  21.3950113  15.6731673  62.5308903
  22.2390113  15.7771673  62.3358903  21.0980113  16.4911673  62.5988903
  21.4760113  15.8091673  62.5118903  25.2020113   5.0701673  60.6178903
  25.4890113   4.8381673  59.8278903  25.9340113   5.1491673  61.0868903
  25.3520113   5.0471673  60.5708903  25.9240113   5.4091673  55.7388903
  26.2050113   6.1971673  55.9878903  25.1480113   5.5741673  55.3758903
  25.8510113   5.5501673  55.7218903  29.9650113  17.3831673  57.2058903
  30.6300113  17.2351673  56.6608903  30.3250113  17.3001673  57.9958903
  30.1170113  17.3491673  57.2418903  20.3930113  16.8921673  68.2708903
  20.6850113  16.8251673  69.0908903  19.7670113  16.2871673  68.2258903
  20.3440113  16.7931673  68.3858903  15.3070113   3.0491673  70.2628903
  15.3030113   3.6361673  70.9088903  15.9010113   3.3611673  69.7058903
  15.3940113   3.1821673  70.2758903  27.6450113  13.3831673  70.8048903
  27.6110113  13.7651673  71.5888903  28.4990113  13.3411673  70.6338903
  27.7660113  13.4331673  70.8958903  24.7830113  13.5801673  55.5548903
  24.6020113  14.1251673  56.2118903  25.5490113  13.8701673  55.2538903
  24.8690113  13.7041673  55.6078903  16.2440113   2.6441673  59.1778903
  16.1300113   1.7801673  59.2088903  15.7690113   2.9381673  59.8478903
  16.1570113   2.5601673  59.2808903  18.3860113  15.0541673  67.3928903
  17.6880113  14.5461673  67.5188903  18.6460113  14.8491673  66.5848903
  18.3210113  14.9491673  67.2918903  25.5480113   3.8521673  57.9228903
  25.0400113   3.1901673  57.6688903  25.6000113   4.3561673  57.2128903
  25.4810113   3.8291673  57.7808903  26.0970113  16.5471673  68.3028903
  26.8650113  16.4671673  67.8968903  25.5140113  16.4261673  67.6648903
  26.1240113  16.5171673  68.1488903  32.3740113  17.1501673  61.2038903
  31.9190113  17.8671673  61.4048903  31.7600113  16.5791673  60.9618903
  32.2160113  17.1721673  61.1978903  24.1460113   3.1601673  62.3358903
  24.2200113   3.7281673  61.6778903  24.2670113   3.6521673  63.0458903
  24.1740113   3.3171673  62.3438903  29.3710113  12.9951673  60.7478903
  30.0720113  12.5131673  60.9368903  28.7110113  12.4261673  60.7928903
  29.3770113  12.8401673  60.7818903  19.7470113  13.9051673  69.9598903
  20.5880113  13.9681673  69.7378903  19.7100113  14.3021673  70.7358903
  19.8660113  13.9731673  70.0418903  21.7100113   9.4161673  64.7088903
  21.8820113   9.2061673  65.5378903  21.0550113   8.8821673  64.4928903
  21.6390113   9.3061673  64.7998903  27.9380113   3.3301673  68.2238903
  27.8430113   3.6491673  69.0298903  27.3450113   2.6911673  68.1858903
  27.8360113   3.2821673  68.3378903  22.4600113   9.3541673  67.2988903
  22.5130113  10.2011673  67.5008903  22.1750113   8.9841673  68.0358903
  22.4260113   9.4241673  67.4368903  28.6370113  10.0491673  66.4288903
  28.1230113   9.6371673  66.9998903  28.5110113  10.8931673  66.6098903
  28.5430113  10.1131673  66.5398903  15.2810113  13.7251673  73.5098903
  16.0370113  14.0741673  73.7678903  15.4580113  12.8721673  73.4528903
  15.4190113  13.6501673  73.5398903  31.6580113   3.5101673  69.3678903
  32.4300113   3.2851673  69.7048903  31.1830113   3.7271673  70.0678903
  31.7020113   3.5091673  69.5208903  19.2020113   2.7931673  62.3378903
  19.4740113   2.3631673  61.6298903  19.0260113   2.1571673  62.9088903
  19.2160113   2.6361673  62.3178903  31.8900113  10.4881673  56.5558903
  32.0090113  10.2011673  57.3708903  32.6970113  10.5091673  56.2258903
  32.0260113  10.4491673  56.6278903  19.0260113  10.2201673  61.8868903
  19.8770113  10.1401673  61.7138903  18.6690113   9.5381673  61.4748903
  19.0990113  10.1071673  61.7998903  17.7930113  16.9451673  63.1238903
  17.1200113  16.4471673  62.8788903  18.1960113  17.1301673  62.3728903
  17.7530113  16.8991673  62.9768903  17.3430113   3.8951673  65.4198903
  18.1860113   4.1151673  65.3768903  16.9540113   4.4681673  64.8888903
  17.4100113   4.0121673  65.3348903  34.1240113  14.9971673  70.8098903
  33.4420113  15.3071673  70.3628903  33.7550113  14.5391673  71.4548903
  33.9680113  14.9751673  70.8388903  29.7850113   7.0251673  56.1408903
  29.5650113   7.7561673  55.7188903  29.3370113   7.0761673  56.8878903
  29.6860113   7.1401673  56.1888903  21.3940113  10.2271673  60.1218903
  22.1070113  10.7221673  60.2118903  21.6160113   9.6601673  59.4958903
  21.5320113  10.2161673  60.0428903  15.5500113  11.8701673  63.4418903
  14.8830113  12.3581673  63.7178903  16.2300113  12.4151673  63.4708903
  15.5520113  12.0221673  63.4868903  23.1970113   5.5801673  73.5378903
  22.7130113   6.1571673  73.9798903  23.1690113   5.8751673  72.7168903
  23.1210113   5.7091673  73.4818903  34.2950113   6.2641673  68.1498903
  34.5100113   5.4641673  67.8738903  33.4450113   6.3241673  67.9608903
  34.2010113   6.1551673  68.0808903  15.6160113   8.5541673  58.5448903
  15.4310113   7.7151673  58.6968903  16.2750113   8.5181673  57.9748903
  15.6860113   8.4251673  58.4828903  25.9170113  13.9301673  62.4488903
  25.3940113  14.5641673  62.1558903  26.2270113  13.5661673  61.7198903
  25.8850113  13.9701673  62.2978903  15.7880113  12.7181673  58.1198903
  16.3400113  13.2871673  58.4838903  15.5560113  12.2031673  58.7848903
  15.8350113  12.7261673  58.2718903  19.9920113  11.7181673  65.2088903
  20.4590113  12.0071673  65.8868903  20.5640113  11.2401673  64.7548903
  20.1460113  11.6901673  65.2418903  28.4280113   3.7321673  62.9458903
  28.7720113   3.8841673  63.7328903  27.9750113   2.9941673  63.0588903
  28.4120113   3.6451673  63.0788903  15.6180113  11.1671673  55.7478903
  16.3740113  10.7351673  55.8058903  15.6330113  11.6991673  56.4388903
  15.7320113  11.1821673  55.8588903  16.5580113   9.3881673  63.7528903
  16.9890113   9.2591673  63.0058903  16.3530113  10.2361673  63.7268903
  16.5910113   9.4941673  63.6388903  22.9040113   2.9521673  57.4028903
  22.9020113   2.8351673  56.5378903  22.7230113   3.8001673  57.4948903
  22.8770113   3.0601673  57.2888903  31.9580113  15.3791673  68.8998903
  31.2870113  15.8931673  69.1178903  32.0210113  15.4791673  68.0358903
  31.8680113  15.4701673  68.8048903  20.6420113  12.9041673  62.0348903
  20.7680113  13.7471673  62.2218903  21.3100113  12.5051673  62.4308903
  20.7600113  12.9701673  62.1208903  18.7720113   6.3871673  71.8968903
  18.2360113   5.8811673  72.3648903  18.7920113   5.9971673  71.1168903
  18.6950113   6.2541673  71.8508903  19.2570113   5.7841673  57.0368903
  19.1290113   5.3361673  57.7748903  18.6750113   5.4421673  56.4848903
  19.1520113   5.6671673  57.0648903  19.4240113   7.6141673  63.6358903
  18.6430113   7.5551673  63.2528903  19.4960113   6.8621673  64.0728903
  19.3190113   7.4951673  63.6438903  19.8540113   7.3511673  67.1038903
  19.8790113   6.6761673  66.5528903  19.2080113   7.8471673  66.7918903
  19.7630113   7.3241673  66.9768903  29.7490113   5.0641673  65.4998903
  29.0870113   5.3921673  65.9628903  29.9360113   5.6981673  64.9308903
  29.6790113   5.2061673  65.4838903  23.9540113  16.1281673  66.4958903
  23.6770113  15.4871673  65.9728903  23.7460113  16.8541673  66.0578903
  23.8830113  16.1411673  66.3538903  27.9420113   3.0331673  59.0108903
  28.4320113   3.7501673  58.9338903  27.1520113   3.2941673  58.7478903
  27.8980113   3.1771673  58.9608903  17.6530113   8.7061673  72.6628903
  17.6160113   9.2071673  71.9488903  17.9840113   7.9541673  72.3678903
  17.6960113   8.6681673  72.5138903  29.2560113  10.9111673  70.9208903
  29.7400113  11.6291673  71.0188903  29.6500113  10.4841673  70.2698903
  29.3860113  10.9541673  70.8388903  23.5520113  13.7561673  72.0978903
  23.9060113  13.5781673  72.8748903  23.1160113  13.0271673  71.8988903
  23.5400113  13.6221673  72.1838903  24.5240113   4.5031673  64.7358903
  25.0040113   5.2021673  64.9438903  24.8970113   3.8561673  65.1868903
  24.6500113   4.5111673  64.8328903  26.7130113   7.6721673  57.0098903
  26.7050113   8.3941673  56.5198903  26.0740113   7.8071673  57.5868903
  26.6180113   7.7991673  57.0228903  31.6850113  11.5421673  60.9908903
  32.0410113  11.1921673  61.7058903  31.6770113  10.8811673  60.4208903
  31.7370113  11.3921673  61.0118903  27.7300113  14.6081673  64.8348903
  27.1270113  14.3121673  64.2778903  28.2750113  15.0601673  64.3258903
  27.7210113  14.6311673  64.6768903  27.7430113  11.4591673  64.2348903
  26.9460113  11.6831673  64.5088903  28.0010113  10.8651673  64.8198903
  27.6630113  11.4041673  64.3618903  21.6350113  16.2711673  58.6828903
  21.4880113  15.4951673  59.0538903  22.3240113  16.1241673  58.1678903
  21.7150113  16.1341673  58.6618903  23.9270113  15.7871673  57.0848903
  24.5490113  15.9501673  57.6748903  23.9630113  16.4781673  56.5528903
  24.0240113  15.9131673  57.0938903  31.0030113   9.4571673  69.0808903
  31.0580113   9.5821673  68.2188903  31.7560113   9.7771673  69.3828903
  31.1220113   9.5221673  68.9978903  27.1940113  14.8061673  73.3578903
  27.3580113  15.0891673  74.1668903  27.4570113  15.4671673  72.8528903
  27.2570113  14.9461673  73.4028903  18.4280113   8.3211673  57.9138903
  18.7520113   7.5421673  57.6918903  19.0740113   8.6891673  58.3688903
  18.5710113   8.2601673  57.9478903  26.7340113   9.2631673  68.6808903
  26.5790113   9.8731673  69.2848903  27.2680113   8.7051673  69.0868903
  26.7900113   9.2711673  68.8298903  25.1180113   7.6631673  59.3388903
  25.1770113   8.3131673  59.9178903  24.9290113   6.9671673  59.8298903
  25.0990113   7.6561673  59.4968903  30.3440113  11.9921673  65.2078903
  29.8650113  12.2901673  64.5418903  29.9880113  11.2161673  65.3858903
  30.2210113  11.9211673  65.1358903  19.6140113   2.1801673  55.8508903
  19.1030113   2.2331673  55.1448903  20.3980113   2.4201673  55.5548903
  19.6540113   2.2231673  55.7028903  24.3410113   9.7101673  63.7698903
  23.4940113   9.5161673  63.8508903  24.6650113   9.5451673  64.5628903
  24.2630113   9.6571673  63.8988903  21.0930113  16.4401673  54.6558903
  21.5320113  15.7431673  54.9438903  21.3000113  17.0641673  55.2288903
  21.1890113  16.4291673  54.7828903  18.1890113   9.4031673  66.0858903
  18.9110113   9.8911673  66.0488903  17.9190113   9.3731673  65.2568903
  18.2560113   9.4711673  65.9578903  21.4190113   4.5741673  62.8208903
  22.2650113   4.3841673  62.9188903  21.0490113   3.7971673  62.6828903
  21.4890113   4.4311673  62.8148903  34.0360113  16.1581673  57.1478903
  34.7300113  15.6911673  56.8998903  33.4970113  15.5601673  57.4848903
  34.0590113  16.0001673  57.1608903  16.2400113   5.9121673  59.4758903
  16.7290113   5.6201673  60.1368903  16.3690113   5.3191673  58.8488903
  16.3310113   5.7811673  59.4808903  31.2750113   8.9341673  66.3268903
  31.2680113   8.1581673  66.7248903  30.4340113   9.1681673  66.3198903
  31.1500113   8.8541673  66.3848903  20.7650113   7.3461673  54.9618903
  20.1550113   6.9411673  55.4358903  20.3790113   7.4641673  54.1888903
  20.6180113   7.3031673  54.9178903  17.5840113  10.4551673  70.3638903
  17.1630113   9.9371673  69.8028903  17.2320113  11.2411673  70.2208903
  17.4700113  10.4951673  70.2598903  32.5310113   9.0051673  63.7638903
  32.2450113   9.4061673  64.4838903  33.3910113   8.9431673  63.8908903
  32.6160113   9.0551673  63.8888903  22.2200113   5.8071673  57.6718903
  22.4920113   6.6331673  57.7388903  21.3570113   5.8821673  57.5758903
  22.1330113   5.9401673  57.6668903  30.1930113   2.9291673  72.3038903
  29.6680113   3.3881673  72.8278903  29.8320113   2.1341673  72.2978903
  30.0620113   2.8791673  72.3798903  15.7000113   1.7771673  64.2078903
  15.7440113   2.1211673  63.4068903  16.4550113   2.0141673  64.5748903
  15.8180113   1.8631673  64.1438903  33.6620113  14.6381673  64.2928903
  33.9520113  14.8951673  63.5118903  34.3570113  14.7341673  64.8118903
  33.8080113  14.6901673  64.2538903  28.6850113   6.4981673  72.3798903
  28.7580113   6.6021673  73.2428903  28.0510113   7.0561673  72.1588903
  28.6020113   6.5961673  72.4748903  30.9530113   6.8171673  70.7448903
  31.2720113   7.6031673  70.9478903  30.5830113   6.5471673  71.4878903
  30.9460113   6.8931673  70.8848903  30.2670113  13.2411673  56.2748903
  30.6010113  12.4351673  56.3098903  29.5120113  13.1691673  56.7048903
  30.2050113  13.1111673  56.3438903  30.7490113   5.0751673  61.9338903
  30.0040113   4.7521673  62.2518903  30.7510113   5.9011673  62.2138903
  30.6390113   5.1491673  62.0218903  33.6510113   7.3591673  73.4798903
  33.5990113   7.0181673  72.6788903  34.3880113   7.8261673  73.4578903
  33.7520113   7.3781673  73.3578903  33.1890113  11.0351673  69.6858903
  33.8170113  10.4861673  69.4298903  33.1280113  11.6001673  69.0238903
  33.2730113  11.0381673  69.5498903  27.6410113  11.1161673  55.6778903
  28.3250113  10.6021673  55.5088903  27.2240113  11.1621673  54.9128903
  27.6800113  11.0471673  55.5398903  22.3230113  12.2661673  66.9818903
  22.0250113  12.8581673  67.5488903  22.3780113  12.7081673  66.2328903
  22.2870113  12.4191673  66.9548903  20.3020113  11.2161673  70.3798903
  19.4960113  10.9261673  70.5468903  20.2130113  12.0841673  70.3858903
  20.1700113  11.3011673  70.4048903  24.8390113   8.6891673  66.4728903
  25.3150113   9.0631673  67.1008903  24.0160113   8.8231673  66.7318903
  24.7880113   8.7641673  66.6038903  21.5490113   4.2921673  69.2138903
  21.7100113   3.5481673  69.6408903  21.5040113   4.0431673  68.3788903
  21.5660113   4.1451673  69.1538903  24.1030113  16.0821673  61.7008903
  24.6490113  16.7611673  61.7548903  23.7530113  16.1641673  60.9058903
  24.1320113  16.1951673  61.5908903  22.2860113  14.3101673  65.0898903
  21.6620113  14.8921673  64.9078903  22.5340113  14.0241673  64.3038903
  22.2300113  14.3541673  64.9468903  26.5950113  10.9441673  72.0788903
  27.3520113  11.2301673  71.7528903  26.0480113  10.9961673  71.4008903
  26.6260113  10.9941673  71.9298903  30.5040113  13.4941673  70.5828903
  30.8500113  13.7641673  71.3368903  30.7980113  14.0761673  70.0028903
  30.5990113  13.6201673  70.6088903  32.3670113   5.6401673  55.9218903
  32.7450113   6.3171673  55.5218903  31.5250113   5.8641673  55.9528903
  32.2980113   5.7731673  55.8668903  23.8800113   9.0861673  55.0048903
  23.0750113   8.9091673  54.7198903  23.8470113   9.9371673  55.1968903
  23.7560113   9.1851673  54.9918903  19.8100113   5.1531673  65.1548903
  20.2500113   5.0501673  64.4088903  20.3550113   4.8401673  65.7598903
  19.9550113   5.0921673  65.1338903  27.8260113   4.2551673  70.7468903
  27.1780113   4.7251673  71.0948903  28.3910113   4.1661673  71.4058903
  27.8140113   4.3111673  70.8958903  27.5140113   5.7921673  67.0448903
  27.8160113   6.2121673  67.7478903  27.5500113   4.9521673  67.2768903
  27.5640113   5.7301673  67.1828903  24.9390113  15.9591673  70.9698903
  25.4170113  15.3591673  70.5538903  24.5880113  15.5161673  71.6348903
  24.9580113  15.8051673  71.0068903  30.0620113   5.2391673  59.2968903
  30.2690113   5.0381673  60.1208903  30.8180113   5.5071673  58.9548903
  30.2040113   5.2491673  59.3678903  31.5270113   9.2661673  59.1508903
  32.0030113   8.5371673  59.1028903  30.7060113   8.9801673  59.0748903
  31.4760113   9.1161673  59.1318903  24.9980113  11.1781673  69.9898903
  24.2030113  11.1141673  70.3408903  25.0690113  12.0251673  69.7948903
  24.8910113  11.2931673  70.0128903  20.8280113  17.3851673  65.3068903
  20.8390113  17.4441673  66.1768903  20.4030113  16.6381673  65.1568903
  20.7670113  17.2831673  65.4128903  18.9860113   3.2801673  58.4618903
  19.1120113   2.9511673  57.6638903  18.1740113   3.0311673  58.6608903
  18.8850113   3.1951673  58.3738903  27.7430113  10.4331673  61.5058903
  27.8190113  10.7741673  62.3048903  27.9120113   9.5861673  61.6268903
  27.7790113  10.3581673  61.6418903  25.2650113   9.7071673  61.0708903
  24.9670113   9.3921673  61.8278903  25.9600113  10.1801673  61.3058903
  25.3240113   9.7301673  61.2178903  25.4870113  13.8251673  69.0978903
  26.1740113  13.7111673  69.6228903  25.6210113  14.6161673  68.7538903
  25.6080113  13.9251673  69.1248903  33.6630113   6.4341673  70.9088903
  32.8080113   6.3121673  71.0348903  33.8160113   6.0391673  70.1458903
  33.5590113   6.3571673  70.8148903  28.1760113   7.0991673  69.4848903
  27.9210113   6.3801673  69.9068903  28.9970113   7.2151673  69.7548903
  28.2600113   7.0101673  69.5868903  17.5920113  16.8831673  70.7488903
  16.9380113  16.3141673  70.8468903  17.2170113  17.6561673  70.8998903
  17.4400113  16.9131673  70.7858903  26.1100113   8.2891673  72.6718903
  26.4330113   8.9751673  72.2398903  25.4060113   8.6121673  73.0738903
  26.0530113   8.4381673  72.6668903  29.1940113  16.6631673  63.6008903
  28.7430113  17.3061673  63.9798903  29.9020113  16.5841673  64.1058903
  29.2320113  16.7461673  63.7318903  25.8950113  11.7531673  66.5308903
  25.2010113  12.1551673  66.8738903  26.5720113  12.1861673  66.8698903
  25.8920113  11.8761673  66.6318903  31.2720113  14.3461673  73.1108903
  32.0480113  13.9561673  73.1938903  30.8030113  14.0101673  73.7658903
  31.3170113  14.2391673  73.2198903  18.9630113   5.2911673  68.8778903
  19.3380113   5.9101673  68.3908903  19.6370113   4.8171673  69.1628903
  19.1180113   5.3131673  68.8478903  16.7380113   3.7391673  68.1528903
  16.8150113   3.5701673  67.2998903  17.4840113   4.1451673  68.3498903
  16.8590113   3.7741673  68.0558903  32.2970113   6.3791673  58.5928903
  32.4000113   6.3211673  57.7288903  33.0380113   6.0471673  58.9108903
  32.4220113   6.3221673  58.5118903  26.2170113  13.3441673  59.6998903
  26.0120113  14.1771673  59.5408903  25.4420113  12.9621673  59.8218903
  26.0720113  13.4111673  59.6948903  31.3990113   6.5251673  67.9488903
  31.3970113   5.6621673  68.0728903  31.4660113   6.8491673  68.7558903
  31.4090113   6.4451673  68.0858903  16.1350113   8.9651673  68.3768903
  16.4550113   9.1841673  67.5958903  16.0350113   8.1001673  68.3218903
  16.1670113   8.8701673  68.2538903  17.5910113   4.9011673  54.9948903
  16.9190113   4.9151673  55.5508903  17.6860113   4.0531673  54.8108903
  17.5060113   4.7781673  55.0498903  21.5790113  13.6061673  56.1088903
  22.0200113  13.6861673  56.8568903  20.7740113  13.3901673  56.3668903
  21.5250113  13.5861673  56.2578903  29.8700113   2.0311673  65.3848903
  30.7250113   2.1301673  65.5298903  29.5010113   2.5841673  65.9498903
  29.9420113   2.1281673  65.4898903  20.8980113   8.2571673  69.7618903
  20.5020113   9.0311673  69.8368903  20.4920113   7.8841673  69.0858903
  20.7800113   8.3161673  69.6728903  30.1740113   7.3111673  63.8758903
  30.8400113   7.8521673  64.0358903  29.8290113   7.6221673  63.1368903
  30.2210113   7.4371673  63.7908903  30.4870113  15.3771673  59.6828903
  30.3130113  14.7231673  60.2328903  31.2000113  15.1061673  59.2598903
  30.5670113  15.2401673  59.7018903  18.9080113  12.6761673  56.7098903
  18.6640113  12.3691673  57.4898903  18.8750113  11.9731673  56.1938903
  18.8670113  12.5271673  56.7488903  21.7270113  10.9211673  55.4528903
  20.9090113  10.6531673  55.5928903  21.6990113  11.7731673  55.6378903
  21.6020113  11.0081673  55.5008903  28.1620113  12.8301673  67.3738903
  28.3680113  13.1311673  68.1658903  28.1010113  13.5521673  66.8888903
  28.1830113  12.9811673  67.4188903  27.6960113  17.0441673  71.6198903
  26.9430113  17.0261673  71.1788903  27.8640113  17.8961673  71.7038903
  27.6100113  17.1671673  71.5668903  22.9330113   6.3111673  70.7898903
  22.6110113   5.7351673  70.2198903  22.5740113   7.0661673  70.5438903
  22.8330113   6.3371673  70.6698903  32.9740113  11.4691673  66.8318903
  32.9420113  10.6071673  66.6968903  32.2810113  11.7711673  66.3978903
  32.8670113  11.3861673  66.7478903  21.3680113  16.6671673  71.0378903
  21.4090113  16.7931673  71.9008903  22.0190113  16.1071673  70.8818903
  21.4700113  16.6031673  71.1428903  31.0790113  14.7291673  65.6288903
  31.6060113  14.6461673  64.9378903  30.6880113  13.9511673  65.6828903
  31.0990113  14.6021673  65.5348903  18.9610113  15.0501673  72.3978903
  19.5560113  15.4811673  72.8698903  18.5970113  15.6741673  71.9088903
  18.9950113  15.2061673  72.3948903  26.9520113   5.9811673  62.3298903
  27.5030113   5.3741673  62.6298903  26.5270113   6.2441673  63.0448903
  26.9710113   5.9301673  62.4788903  17.2000113   4.6311673  61.8158903
  16.8320113   4.9331673  62.5468903  17.7340113   4.0021673  62.0998903
  17.2240113   4.5831673  61.9658903  16.8880113  13.0391673  69.3268903
  16.3140113  13.4551673  69.8358903  17.6210113  13.5041673  69.4218903
  16.9120113  13.1691673  69.4158903  28.9220113   7.8121673  58.8918903
  28.9900113   6.9621673  59.0728903  28.0990113   7.8981673  58.6138903
  28.8100113   7.6991673  58.8778903  18.6740113  16.3061673  58.1018903
  18.5290113  16.4621673  57.2558903  19.5400113  16.3851673  58.1798903
  18.7810113  16.3411673  57.9888903  22.8410113   8.7031673  57.8298903
  22.9410113   8.8421673  56.9748903  23.6590113   8.6431673  58.1258903
  22.9760113   8.7141673  57.7468903  32.0010113  16.7671673  55.3098903
  32.6380113  16.6331673  55.8908903  31.6600113  15.9731673  55.1928903
  32.0450113  16.6301673  55.3778903  32.1960113   9.1851673  72.0428903
  32.8300113   9.0151673  72.6168903  32.6130113   9.5881673  71.3908903
  32.3510113   9.2201673  72.0318903  28.0760113  13.0321673  57.6318903
  27.8250113  12.9041673  58.4578903  27.7590113  12.3371673  57.2108903
  27.9920113  12.9111673  57.6918903  32.8210113   3.7491673  72.7808903
  32.6250113   4.3931673  73.3358903  32.0990113   3.2591673  72.7728903
  32.6860113   3.7721673  72.8618903  32.7200113   4.6901673  65.7518903
  31.8870113   4.9401673  65.6798903  32.6640113   3.8501673  65.9808903
  32.5890113   4.6031673  65.7748903  29.6070113   9.2961673  73.3978903
  30.4780113   9.2601673  73.3618903  29.3880113   9.7161673  72.6658903
  29.7040113   9.3521673  73.2848903  19.3610113  15.1211673  64.5788903
  19.2820113  14.3111673  64.2628903  18.9170113  15.6081673  64.0068903
  19.2840113  15.0731673  64.4478903  24.9620113  11.2401673  57.0618903
  25.6790113  10.8931673  56.7058903  24.9280113  12.0401673  56.7138903
  25.0630113  11.3071673  56.9578903  16.9330113  17.3651673  68.1598903
  17.4260113  17.3091673  68.8778903  17.1210113  16.6321673  67.7248903
  17.0340113  17.2481673  68.2018903  26.1800113   6.7971673  45.9716493
  25.6560113   7.3931673  46.3346493  26.5770113   6.4291673  46.6556493
  26.1610113   6.8311673  46.1266493  16.0490113  10.9371673  41.4276493
  15.6080113  11.0551673  42.1706493  15.7660113  10.1621673  41.1426493
  15.9420113  10.8401673  41.4956493  32.3240113  14.2381673  38.9426493
  33.0250113  13.7191673  38.9386493  31.7370113  13.7931673  38.4736493
  32.3410113  14.0951673  38.8726493  15.7920113   4.7291673  37.9346493
  15.0140113   4.8911673  37.5746493  15.8310113   3.8581673  37.9566493
  15.6830113   4.6241673  37.8846493  18.9310113   9.9921673  36.6066493
  18.5390113   9.6211673  35.9206493  18.8510113   9.3941673  37.2356493
  18.8610113   9.8491673  36.5976493  28.8510113   7.8641673  42.6476493
  28.9310113   7.8681673  41.7786493  28.2670113   7.2321673  42.7966493
  28.7760113   7.7711673  42.5416493  18.5580113  11.6331673  40.5066493
  19.1660113  11.4631673  41.1096493  17.8070113  11.4931673  40.9276493
  18.5370113  11.5871673  40.6576493  17.4490113  14.7241673  36.5836493
  17.9160113  14.8081673  35.8516493  17.9040113  14.1461673  37.0526493
  17.5850113  14.6511673  36.5446493  15.9890113  13.6721673  47.6826493
  16.1180113  13.3921673  48.4986493  15.3790113  13.1311673  47.3736493
  15.9180113  13.5511673  47.7576493  22.5630113  11.1971673  52.7496493
  22.3270113  11.1941673  53.5896493  21.8150113  11.0491673  52.3256493
  22.4170113  11.1741673  52.8106493  17.4350113   8.1931673  41.8846493
  16.9730113   7.8011673  41.2576493  18.1350113   7.6801673  41.9766493
  17.4700113   8.0601673  41.8056493  21.9430113   3.8031673  47.2316493
  22.6210113   3.8211673  46.6826493  21.8980113   2.9671673  47.4766493
  22.0360113   3.6821673  47.1866493  22.5450113  14.3891673  50.0126493
  22.6830113  15.1491673  49.6056493  23.3360113  14.0241673  50.0396493
  22.6820113  14.4481673  49.9566493  19.4360113   6.2931673  41.9076493
  20.2530113   6.1061673  42.1506493  18.9590113   5.6791673  42.3036493
  19.4860113   6.1751673  42.0026493  23.6400113  12.2741673  44.5176493
  23.9880113  11.4751673  44.5476493  24.3050113  12.7781673  44.2626493
  23.7900113  12.2301673  44.4846493  23.6970113  11.7231673  40.7286493
  24.0280113  11.0791673  41.2146493  23.9370113  11.5121673  39.9176493
  23.7810113  11.5971673  40.6806493  25.6650113   5.8541673  52.0676493
  24.8170113   5.7551673  51.8896493  25.6940113   6.5991673  52.5216493
  25.5440113   5.9501673  52.1086493  27.6850113   3.4551673  35.6956493
  27.2350113   4.1361673  36.0026493  27.7990113   2.9511673  36.3986493
  27.6360113   3.4811673  35.8446493  15.8910113   5.9541673  44.8976493
  15.6350113   6.7851673  44.8226493  15.2270113   5.5711673  45.3146493
  15.7550113   6.0201673  44.9486493  15.8010113  15.6641673  42.7976493
  15.2090113  16.2221673  42.4846493  16.2270113  15.3951673  42.0856493
  15.7770113  15.7061673  42.6466493  21.6410113  13.5081673  40.2776493
  21.0620113  13.2331673  40.8696493  22.2650113  12.8991673  40.3026493
  21.6480113  13.3781673  40.3686493  27.7840113  15.7961673  37.7996493
  28.5110113  16.2681673  37.9016493  28.0130113  15.0021673  38.0796493
  27.9260113  15.7491673  37.8566493  25.9520113  16.1881673  39.7896493
  26.1660113  16.7151673  40.4516493  26.7190113  16.0141673  39.4106493
  26.0970113  16.2401673  39.8316493  22.2260113   2.9041673  54.6866493
  22.3430113   2.4501673  53.9506493  22.5140113   3.7021673  54.4836493
  22.2860113   2.9551673  54.5476493  17.3460113  14.3341673  40.7286493
  18.0020113  13.7591673  40.7436493  17.7350113  15.0831673  40.5076493
  17.5010113  14.3591673  40.6986493  33.0790113   3.4281673  41.9906493
  32.7330113   4.1061673  42.4166493  32.4430113   2.8301673  42.0066493
  32.9340113   3.4401673  42.0556493  28.3910113  16.1981673  48.0946493
  29.1350113  16.6541673  48.0846493  28.2700113  15.9841673  47.2576493
  28.4830113  16.2341673  47.9696493  17.9590113   2.5011673  53.6706493
  17.1810113   2.1111673  53.5986493  18.4500113   2.0891673  53.0796493
  17.9160113   2.3821673  53.5726493  18.1640113  12.8211673  44.2286493
  18.5870113  12.4651673  43.5546493  18.4880113  12.3991673  44.9206493
  18.2740113  12.7061673  44.2316493  21.3950113  15.6731673  43.5246493
  22.2390113  15.7771673  43.3296493  21.0980113  16.4911673  43.5926493
  21.4760113  15.8091673  43.5056493  25.2020113   5.0701673  41.6116493
  25.4890113   4.8381673  40.8216493  25.9340113   5.1491673  42.0806493
  25.3520113   5.0471673  41.5646493  25.9240113   5.4091673  36.7326493
  26.2050113   6.1971673  36.9816493  25.1480113   5.5741673  36.3696493
  25.8510113   5.5501673  36.7156493  29.9650113  17.3831673  38.1996493
  30.6300113  17.2351673  37.6546493  30.3250113  17.3001673  38.9896493
  30.1170113  17.3491673  38.2356493  20.3930113  16.8921673  49.2646493
  20.6850113  16.8251673  50.0846493  19.7670113  16.2871673  49.2196493
  20.3440113  16.7931673  49.3796493  15.3070113   3.0491673  51.2566493
  15.3030113   3.6361673  51.9026493  15.9010113   3.3611673  50.6996493
  15.3940113   3.1821673  51.2696493  27.6450113  13.3831673  51.7986493
  27.6110113  13.7651673  52.5826493  28.4990113  13.3411673  51.6276493
  27.7660113  13.4331673  51.8896493  24.7830113  13.5801673  36.5486493
  24.6020113  14.1251673  37.2056493  25.5490113  13.8701673  36.2476493
  24.8690113  13.7041673  36.6016493  16.2440113   2.6441673  40.1716493
  16.1300113   1.7801673  40.2026493  15.7690113   2.9381673  40.8416493
  16.1570113   2.5601673  40.2746493  18.3860113  15.0541673  48.3866493
  17.6880113  14.5461673  48.5126493  18.6460113  14.8491673  47.5786493
  18.3210113  14.9491673  48.2856493  25.5480113   3.8521673  38.9166493
  25.0400113   3.1901673  38.6626493  25.6000113   4.3561673  38.2066493
  25.4810113   3.8291673  38.7746493  26.0970113  16.5471673  49.2966493
  26.8650113  16.4671673  48.8906493  25.5140113  16.4261673  48.6586493
  26.1240113  16.5171673  49.1426493  32.3740113  17.1501673  42.1976493
  31.9190113  17.8671673  42.3986493  31.7600113  16.5791673  41.9556493
  32.2160113  17.1721673  42.1916493  24.1460113   3.1601673  43.3296493
  24.2200113   3.7281673  42.6716493  24.2670113   3.6521673  44.0396493
  24.1740113   3.3171673  43.3376493  29.3710113  12.9951673  41.7416493
  30.0720113  12.5131673  41.9306493  28.7110113  12.4261673  41.7866493
  29.3770113  12.8401673  41.7756493  19.7470113  13.9051673  50.9536493
  20.5880113  13.9681673  50.7316493  19.7100113  14.3021673  51.7296493
  19.8660113  13.9731673  51.0356493  21.7100113   9.4161673  45.7026493
  21.8820113   9.2061673  46.5316493  21.0550113   8.8821673  45.4866493
  21.6390113   9.3061673  45.7936493  27.9380113   3.3301673  49.2176493
  27.8430113   3.6491673  50.0236493  27.3450113   2.6911673  49.1796493
  27.8360113   3.2821673  49.3316493  22.4600113   9.3541673  48.2926493
  22.5130113  10.2011673  48.4946493  22.1750113   8.9841673  49.0296493
  22.4260113   9.4241673  48.4306493  28.6370113  10.0491673  47.4226493
  28.1230113   9.6371673  47.9936493  28.5110113  10.8931673  47.6036493
  28.5430113  10.1131673  47.5336493  15.2810113  13.7251673  54.5036493
  16.0370113  14.0741673  54.7616493  15.4580113  12.8721673  54.4466493
  15.4190113  13.6501673  54.5336493  31.6580113   3.5101673  50.3616493
  32.4300113   3.2851673  50.6986493  31.1830113   3.7271673  51.0616493
  31.7020113   3.5091673  50.5146493  19.2020113   2.7931673  43.3316493
  19.4740113   2.3631673  42.6236493  19.0260113   2.1571673  43.9026493
  19.2160113   2.6361673  43.3116493  31.8900113  10.4881673  37.5496493
  32.0090113  10.2011673  38.3646493  32.6970113  10.5091673  37.2196493
  32.0260113  10.4491673  37.6216493  19.0260113  10.2201673  42.8806493
  19.8770113  10.1401673  42.7076493  18.6690113   9.5381673  42.4686493
  19.0990113  10.1071673  42.7936493  17.7930113  16.9451673  44.1176493
  17.1200113  16.4471673  43.8726493  18.1960113  17.1301673  43.3666493
  17.7530113  16.8991673  43.9706493  17.3430113   3.8951673  46.4136493
  18.1860113   4.1151673  46.3706493  16.9540113   4.4681673  45.8826493
  17.4100113   4.0121673  46.3286493  34.1240113  14.9971673  51.8036493
  33.4420113  15.3071673  51.3566493  33.7550113  14.5391673  52.4486493
  33.9680113  14.9751673  51.8326493  29.7850113   7.0251673  37.1346493
  29.5650113   7.7561673  36.7126493  29.3370113   7.0761673  37.8816493
  29.6860113   7.1401673  37.1826493  21.3940113  10.2271673  41.1156493
  22.1070113  10.7221673  41.2056493  21.6160113   9.6601673  40.4896493
  21.5320113  10.2161673  41.0366493  15.5500113  11.8701673  44.4356493
  14.8830113  12.3581673  44.7116493  16.2300113  12.4151673  44.4646493
  15.5520113  12.0221673  44.4806493  23.1970113   5.5801673  54.5316493
  22.7130113   6.1571673  54.9736493  23.1690113   5.8751673  53.7106493
  23.1210113   5.7091673  54.4756493  34.2950113   6.2641673  49.1436493
  34.5100113   5.4641673  48.8676493  33.4450113   6.3241673  48.9546493
  34.2010113   6.1551673  49.0746493  15.6160113   8.5541673  39.5386493
  15.4310113   7.7151673  39.6906493  16.2750113   8.5181673  38.9686493
  15.6860113   8.4251673  39.4766493  25.9170113  13.9301673  43.4426493
  25.3940113  14.5641673  43.1496493  26.2270113  13.5661673  42.7136493
  25.8850113  13.9701673  43.2916493  15.7880113  12.7181673  39.1136493
  16.3400113  13.2871673  39.4776493  15.5560113  12.2031673  39.7786493
  15.8350113  12.7261673  39.2656493  19.9920113  11.7181673  46.2026493
  20.4590113  12.0071673  46.8806493  20.5640113  11.2401673  45.7486493
  20.1460113  11.6901673  46.2356493  28.4280113   3.7321673  43.9396493
  28.7720113   3.8841673  44.7266493  27.9750113   2.9941673  44.0526493
  28.4120113   3.6451673  44.0726493  15.6180113  11.1671673  36.7416493
  16.3740113  10.7351673  36.7996493  15.6330113  11.6991673  37.4326493
  15.7320113  11.1821673  36.8526493  16.5580113   9.3881673  44.7466493
  16.9890113   9.2591673  43.9996493  16.3530113  10.2361673  44.7206493
  16.5910113   9.4941673  44.6326493  22.9040113   2.9521673  38.3966493
  22.9020113   2.8351673  37.5316493  22.7230113   3.8001673  38.4886493
  22.8770113   3.0601673  38.2826493  31.9580113  15.3791673  49.8936493
  31.2870113  15.8931673  50.1116493  32.0210113  15.4791673  49.0296493
  31.8680113  15.4701673  49.7986493  20.6420113  12.9041673  43.0286493
  20.7680113  13.7471673  43.2156493  21.3100113  12.5051673  43.4246493
  20.7600113  12.9701673  43.1146493  18.7720113   6.3871673  52.8906493
  18.2360113   5.8811673  53.3586493  18.7920113   5.9971673  52.1106493
  18.6950113   6.2541673  52.8446493  19.2570113   5.7841673  38.0306493
  19.1290113   5.3361673  38.7686493  18.6750113   5.4421673  37.4786493
  19.1520113   5.6671673  38.0586493  19.4240113   7.6141673  44.6296493
  18.6430113   7.5551673  44.2466493  19.4960113   6.8621673  45.0666493
  19.3190113   7.4951673  44.6376493  19.8540113   7.3511673  48.0976493
  19.8790113   6.6761673  47.5466493  19.2080113   7.8471673  47.7856493
  19.7630113   7.3241673  47.9706493  29.7490113   5.0641673  46.4936493
  29.0870113   5.3921673  46.9566493  29.9360113   5.6981673  45.9246493
  29.6790113   5.2061673  46.4776493  23.9540113  16.1281673  47.4896493
  23.6770113  15.4871673  46.9666493  23.7460113  16.8541673  47.0516493
  23.8830113  16.1411673  47.3476493  27.9420113   3.0331673  40.0046493
  28.4320113   3.7501673  39.9276493  27.1520113   3.2941673  39.7416493
  27.8980113   3.1771673  39.9546493  17.6530113   8.7061673  53.6566493
  17.6160113   9.2071673  52.9426493  17.9840113   7.9541673  53.3616493
  17.6960113   8.6681673  53.5076493  29.2560113  10.9111673  51.9146493
  29.7400113  11.6291673  52.0126493  29.6500113  10.4841673  51.2636493
  29.3860113  10.9541673  51.8326493  23.5520113  13.7561673  53.0916493
  23.9060113  13.5781673  53.8686493  23.1160113  13.0271673  52.8926493
  23.5400113  13.6221673  53.1776493  24.5240113   4.5031673  45.7296493
  25.0040113   5.2021673  45.9376493  24.8970113   3.8561673  46.1806493
  24.6500113   4.5111673  45.8266493  26.7130113   7.6721673  38.0036493
  26.7050113   8.3941673  37.5136493  26.0740113   7.8071673  38.5806493
  26.6180113   7.7991673  38.0166493  31.6850113  11.5421673  41.9846493
  32.0410113  11.1921673  42.6996493  31.6770113  10.8811673  41.4146493
  31.7370113  11.3921673  42.0056493  27.7300113  14.6081673  45.8286493
  27.1270113  14.3121673  45.2716493  28.2750113  15.0601673  45.3196493
  27.7210113  14.6311673  45.6706493  27.7430113  11.4591673  45.2286493
  26.9460113  11.6831673  45.5026493  28.0010113  10.8651673  45.8136493
  27.6630113  11.4041673  45.3556493  21.6350113  16.2711673  39.6766493
  21.4880113  15.4951673  40.0476493  22.3240113  16.1241673  39.1616493
  21.7150113  16.1341673  39.6556493  23.9270113  15.7871673  38.0786493
  24.5490113  15.9501673  38.6686493  23.9630113  16.4781673  37.5466493
  24.0240113  15.9131673  38.0876493  31.0030113   9.4571673  50.0746493
  31.0580113   9.5821673  49.2126493  31.7560113   9.7771673  50.3766493
  31.1220113   9.5221673  49.9916493  27.1940113  14.8061673  54.3516493
  27.3580113  15.0891673  55.1606493  27.4570113  15.4671673  53.8466493
  27.2570113  14.9461673  54.3966493  18.4280113   8.3211673  38.9076493
  18.7520113   7.5421673  38.6856493  19.0740113   8.6891673  39.3626493
  18.5710113   8.2601673  38.9416493  26.7340113   9.2631673  49.6746493
  26.5790113   9.8731673  50.2786493  27.2680113   8.7051673  50.0806493
  26.7900113   9.2711673  49.8236493  25.1180113   7.6631673  40.3326493
  25.1770113   8.3131673  40.9116493  24.9290113   6.9671673  40.8236493
  25.0990113   7.6561673  40.4906493  30.3440113  11.9921673  46.2016493
  29.8650113  12.2901673  45.5356493  29.9880113  11.2161673  46.3796493
  30.2210113  11.9211673  46.1296493  19.6140113   2.1801673  36.8446493
  19.1030113   2.2331673  36.1386493  20.3980113   2.4201673  36.5486493
  19.6540113   2.2231673  36.6966493  24.3410113   9.7101673  44.7636493
  23.4940113   9.5161673  44.8446493  24.6650113   9.5451673  45.5566493
  24.2630113   9.6571673  44.8926493  21.0930113  16.4401673  35.6496493
  21.5320113  15.7431673  35.9376493  21.3000113  17.0641673  36.2226493
  21.1890113  16.4291673  35.7766493  18.1890113   9.4031673  47.0796493
  18.9110113   9.8911673  47.0426493  17.9190113   9.3731673  46.2506493
  18.2560113   9.4711673  46.9516493  21.4190113   4.5741673  43.8146493
  22.2650113   4.3841673  43.9126493  21.0490113   3.7971673  43.6766493
  21.4890113   4.4311673  43.8086493  34.0360113  16.1581673  38.1416493
  34.7300113  15.6911673  37.8936493  33.4970113  15.5601673  38.4786493
  34.0590113  16.0001673  38.1546493  16.2400113   5.9121673  40.4696493
  16.7290113   5.6201673  41.1306493  16.3690113   5.3191673  39.8426493
  16.3310113   5.7811673  40.4746493  31.2750113   8.9341673  47.3206493
  31.2680113   8.1581673  47.7186493  30.4340113   9.1681673  47.3136493
  31.1500113   8.8541673  47.3786493  20.7650113   7.3461673  35.9556493
  20.1550113   6.9411673  36.4296493  20.3790113   7.4641673  35.1826493
  20.6180113   7.3031673  35.9116493  17.5840113  10.4551673  51.3576493
  17.1630113   9.9371673  50.7966493  17.2320113  11.2411673  51.2146493
  17.4700113  10.4951673  51.2536493  32.5310113   9.0051673  44.7576493
  32.2450113   9.4061673  45.4776493  33.3910113   8.9431673  44.8846493
  32.6160113   9.0551673  44.8826493  22.2200113   5.8071673  38.6656493
  22.4920113   6.6331673  38.7326493  21.3570113   5.8821673  38.5696493
  22.1330113   5.9401673  38.6606493  30.1930113   2.9291673  53.2976493
  29.6680113   3.3881673  53.8216493  29.8320113   2.1341673  53.2916493
  30.0620113   2.8791673  53.3736493  15.7000113   1.7771673  45.2016493
  15.7440113   2.1211673  44.4006493  16.4550113   2.0141673  45.5686493
  15.8180113   1.8631673  45.1376493  33.6620113  14.6381673  45.2866493
  33.9520113  14.8951673  44.5056493  34.3570113  14.7341673  45.8056493
  33.8080113  14.6901673  45.2476493  28.6850113   6.4981673  53.3736493
  28.7580113   6.6021673  54.2366493  28.0510113   7.0561673  53.1526493
  28.6020113   6.5961673  53.4686493  30.9530113   6.8171673  51.7386493
  31.2720113   7.6031673  51.9416493  30.5830113   6.5471673  52.4816493
  30.9460113   6.8931673  51.8786493  30.2670113  13.2411673  37.2686493
  30.6010113  12.4351673  37.3036493  29.5120113  13.1691673  37.6986493
  30.2050113  13.1111673  37.3376493  30.7490113   5.0751673  42.9276493
  30.0040113   4.7521673  43.2456493  30.7510113   5.9011673  43.2076493
  30.6390113   5.1491673  43.0156493  33.6510113   7.3591673  54.4736493
  33.5990113   7.0181673  53.6726493  34.3880113   7.8261673  54.4516493
  33.7520113   7.3781673  54.3516493  33.1890113  11.0351673  50.6796493
  33.8170113  10.4861673  50.4236493  33.1280113  11.6001673  50.0176493
  33.2730113  11.0381673  50.5436493  27.6410113  11.1161673  36.6716493
  28.3250113  10.6021673  36.5026493  27.2240113  11.1621673  35.9066493
  27.6800113  11.0471673  36.5336493  22.3230113  12.2661673  47.9756493
  22.0250113  12.8581673  48.5426493  22.3780113  12.7081673  47.2266493
  22.2870113  12.4191673  47.9486493  20.3020113  11.2161673  51.3736493
  19.4960113  10.9261673  51.5406493  20.2130113  12.0841673  51.3796493
  20.1700113  11.3011673  51.3986493  24.8390113   8.6891673  47.4666493
  25.3150113   9.0631673  48.0946493  24.0160113   8.8231673  47.7256493
  24.7880113   8.7641673  47.5976493  21.5490113   4.2921673  50.2076493
  21.7100113   3.5481673  50.6346493  21.5040113   4.0431673  49.3726493
  21.5660113   4.1451673  50.1476493  24.1030113  16.0821673  42.6946493
  24.6490113  16.7611673  42.7486493  23.7530113  16.1641673  41.8996493
  24.1320113  16.1951673  42.5846493  22.2860113  14.3101673  46.0836493
  21.6620113  14.8921673  45.9016493  22.5340113  14.0241673  45.2976493
  22.2300113  14.3541673  45.9406493  26.5950113  10.9441673  53.0726493
  27.3520113  11.2301673  52.7466493  26.0480113  10.9961673  52.3946493
  26.6260113  10.9941673  52.9236493  30.5040113  13.4941673  51.5766493
  30.8500113  13.7641673  52.3306493  30.7980113  14.0761673  50.9966493
  30.5990113  13.6201673  51.6026493  32.3670113   5.6401673  36.9156493
  32.7450113   6.3171673  36.5156493  31.5250113   5.8641673  36.9466493
  32.2980113   5.7731673  36.8606493  23.8800113   9.0861673  35.9986493
  23.0750113   8.9091673  35.7136493  23.8470113   9.9371673  36.1906493
  23.7560113   9.1851673  35.9856493  19.8100113   5.1531673  46.1486493
  20.2500113   5.0501673  45.4026493  20.3550113   4.8401673  46.7536493
  19.9550113   5.0921673  46.1276493  27.8260113   4.2551673  51.7406493
  27.1780113   4.7251673  52.0886493  28.3910113   4.1661673  52.3996493
  27.8140113   4.3111673  51.8896493  27.5140113   5.7921673  48.0386493
  27.8160113   6.2121673  48.7416493  27.5500113   4.9521673  48.2706493
  27.5640113   5.7301673  48.1766493  24.9390113  15.9591673  51.9636493
  25.4170113  15.3591673  51.5476493  24.5880113  15.5161673  52.6286493
  24.9580113  15.8051673  52.0006493  30.0620113   5.2391673  40.2906493
  30.2690113   5.0381673  41.1146493  30.8180113   5.5071673  39.9486493
  30.2040113   5.2491673  40.3616493  31.5270113   9.2661673  40.1446493
  32.0030113   8.5371673  40.0966493  30.7060113   8.9801673  40.0686493
  31.4760113   9.1161673  40.1256493  24.9980113  11.1781673  50.9836493
  24.2030113  11.1141673  51.3346493  25.0690113  12.0251673  50.7886493
  24.8910113  11.2931673  51.0066493  20.8280113  17.3851673  46.3006493
  20.8390113  17.4441673  47.1706493  20.4030113  16.6381673  46.1506493
  20.7670113  17.2831673  46.4066493  18.9860113   3.2801673  39.4556493
  19.1120113   2.9511673  38.6576493  18.1740113   3.0311673  39.6546493
  18.8850113   3.1951673  39.3676493  27.7430113  10.4331673  42.4996493
  27.8190113  10.7741673  43.2986493  27.9120113   9.5861673  42.6206493
  27.7790113  10.3581673  42.6356493  25.2650113   9.7071673  42.0646493
  24.9670113   9.3921673  42.8216493  25.9600113  10.1801673  42.2996493
  25.3240113   9.7301673  42.2116493  25.4870113  13.8251673  50.0916493
  26.1740113  13.7111673  50.6166493  25.6210113  14.6161673  49.7476493
  25.6080113  13.9251673  50.1186493  33.6630113   6.4341673  51.9026493
  32.8080113   6.3121673  52.0286493  33.8160113   6.0391673  51.1396493
  33.5590113   6.3571673  51.8086493  28.1760113   7.0991673  50.4786493
  27.9210113   6.3801673  50.9006493  28.9970113   7.2151673  50.7486493
  28.2600113   7.0101673  50.5806493  17.5920113  16.8831673  51.7426493
  16.9380113  16.3141673  51.8406493  17.2170113  17.6561673  51.8936493
  17.4400113  16.9131673  51.7796493  26.1100113   8.2891673  53.6656493
  26.4330113   8.9751673  53.2336493  25.4060113   8.6121673  54.0676493
  26.0530113   8.4381673  53.6606493  29.1940113  16.6631673  44.5946493
  28.7430113  17.3061673  44.9736493  29.9020113  16.5841673  45.0996493
  29.2320113  16.7461673  44.7256493  25.8950113  11.7531673  47.5246493
  25.2010113  12.1551673  47.8676493  26.5720113  12.1861673  47.8636493
  25.8920113  11.8761673  47.6256493  31.2720113  14.3461673  54.1046493
  32.0480113  13.9561673  54.1876493  30.8030113  14.0101673  54.7596493
  31.3170113  14.2391673  54.2136493  18.9630113   5.2911673  49.8716493
  19.3380113   5.9101673  49.3846493  19.6370113   4.8171673  50.1566493
  19.1180113   5.3131673  49.8416493  16.7380113   3.7391673  49.1466493
  16.8150113   3.5701673  48.2936493  17.4840113   4.1451673  49.3436493
  16.8590113   3.7741673  49.0496493  32.2970113   6.3791673  39.5866493
  32.4000113   6.3211673  38.7226493  33.0380113   6.0471673  39.9046493
  32.4220113   6.3221673  39.5056493  26.2170113  13.3441673  40.6936493
  26.0120113  14.1771673  40.5346493  25.4420113  12.9621673  40.8156493
  26.0720113  13.4111673  40.6886493  31.3990113   6.5251673  48.9426493
  31.3970113   5.6621673  49.0666493  31.4660113   6.8491673  49.7496493
  31.4090113   6.4451673  49.0796493  16.1350113   8.9651673  49.3706493
  16.4550113   9.1841673  48.5896493  16.0350113   8.1001673  49.3156493
  16.1670113   8.8701673  49.2476493  17.5910113   4.9011673  35.9886493
  16.9190113   4.9151673  36.5446493  17.6860113   4.0531673  35.8046493
  17.5060113   4.7781673  36.0436493  21.5790113  13.6061673  37.1026493
  22.0200113  13.6861673  37.8506493  20.7740113  13.3901673  37.3606493
  21.5250113  13.5861673  37.2516493  29.8700113   2.0311673  46.3786493
  30.7250113   2.1301673  46.5236493  29.5010113   2.5841673  46.9436493
  29.9420113   2.1281673  46.4836493  20.8980113   8.2571673  50.7556493
  20.5020113   9.0311673  50.8306493  20.4920113   7.8841673  50.0796493
  20.7800113   8.3161673  50.6666493  30.1740113   7.3111673  44.8696493
  30.8400113   7.8521673  45.0296493  29.8290113   7.6221673  44.1306493
  30.2210113   7.4371673  44.7846493  30.4870113  15.3771673  40.6766493
  30.3130113  14.7231673  41.2266493  31.2000113  15.1061673  40.2536493
  30.5670113  15.2401673  40.6956493  18.9080113  12.6761673  37.7036493
  18.6640113  12.3691673  38.4836493  18.8750113  11.9731673  37.1876493
  18.8670113  12.5271673  37.7426493  21.7270113  10.9211673  36.4466493
  20.9090113  10.6531673  36.5866493  21.6990113  11.7731673  36.6316493
  21.6020113  11.0081673  36.4946493  28.1620113  12.8301673  48.3676493
  28.3680113  13.1311673  49.1596493  28.1010113  13.5521673  47.8826493
  28.1830113  12.9811673  48.4126493  27.6960113  17.0441673  52.6136493
  26.9430113  17.0261673  52.1726493  27.8640113  17.8961673  52.6976493
  27.6100113  17.1671673  52.5606493  22.9330113   6.3111673  51.7836493
  22.6110113   5.7351673  51.2136493  22.5740113   7.0661673  51.5376493
  22.8330113   6.3371673  51.6636493  32.9740113  11.4691673  47.8256493
  32.9420113  10.6071673  47.6906493  32.2810113  11.7711673  47.3916493
  32.8670113  11.3861673  47.7416493  21.3680113  16.6671673  52.0316493
  21.4090113  16.7931673  52.8946493  22.0190113  16.1071673  51.8756493
  21.4700113  16.6031673  52.1366493  31.0790113  14.7291673  46.6226493
  31.6060113  14.6461673  45.9316493  30.6880113  13.9511673  46.6766493
  31.0990113  14.6021673  46.5286493  18.9610113  15.0501673  53.3916493
  19.5560113  15.4811673  53.8636493  18.5970113  15.6741673  52.9026493
  18.9950113  15.2061673  53.3886493  26.9520113   5.9811673  43.3236493
  27.5030113   5.3741673  43.6236493  26.5270113   6.2441673  44.0386493
  26.9710113   5.9301673  43.4726493  17.2000113   4.6311673  42.8096493
  16.8320113   4.9331673  43.5406493  17.7340113   4.0021673  43.0936493
  17.2240113   4.5831673  42.9596493  16.8880113  13.0391673  50.3206493
  16.3140113  13.4551673  50.8296493  17.6210113  13.5041673  50.4156493
  16.9120113  13.1691673  50.4096493  28.9220113   7.8121673  39.8856493
  28.9900113   6.9621673  40.0666493  28.0990113   7.8981673  39.6076493
  28.8100113   7.6991673  39.8716493  18.6740113  16.3061673  39.0956493
  18.5290113  16.4621673  38.2496493  19.5400113  16.3851673  39.1736493
  18.7810113  16.3411673  38.9826493  22.8410113   8.7031673  38.8236493
  22.9410113   8.8421673  37.9686493  23.6590113   8.6431673  39.1196493
  22.9760113   8.7141673  38.7406493  32.0010113  16.7671673  36.3036493
  32.6380113  16.6331673  36.8846493  31.6600113  15.9731673  36.1866493
  32.0450113  16.6301673  36.3716493  32.1960113   9.1851673  53.0366493
  32.8300113   9.0151673  53.6106493  32.6130113   9.5881673  52.3846493
  32.3510113   9.2201673  53.0256493  28.0760113  13.0321673  38.6256493
  27.8250113  12.9041673  39.4516493  27.7590113  12.3371673  38.2046493
  27.9920113  12.9111673  38.6856493  32.8210113   3.7491673  53.7746493
  32.6250113   4.3931673  54.3296493  32.0990113   3.2591673  53.7666493
  32.6860113   3.7721673  53.8556493  32.7200113   4.6901673  46.7456493
  31.8870113   4.9401673  46.6736493  32.6640113   3.8501673  46.9746493
  32.5890113   4.6031673  46.7686493  29.6070113   9.2961673  54.3916493
  30.4780113   9.2601673  54.3556493  29.3880113   9.7161673  53.6596493
  29.7040113   9.3521673  54.2786493  19.3610113  15.1211673  45.5726493
  19.2820113  14.3111673  45.2566493  18.9170113  15.6081673  45.0006493
  19.2840113  15.0731673  45.4416493  24.9620113  11.2401673  38.0556493
  25.6790113  10.8931673  37.6996493  24.9280113  12.0401673  37.7076493
  25.0630113  11.3071673  37.9516493  16.9330113  17.3651673  49.1536493
  17.4260113  17.3091673  49.8716493  17.1210113  16.6321673  48.7186493
  17.0340113  17.2481673  49.1956493  26.1800113   6.7971673  26.9654083
  25.6560113   7.3931673  27.3284083  26.5770113   6.4291673  27.6494083
  26.1610113   6.8311673  27.1204083  16.0490113  10.9371673  22.4214083
  15.6080113  11.0551673  23.1644083  15.7660113  10.1621673  22.1364083
  15.9420113  10.8401673  22.4894083  32.3240113  14.2381673  19.9364083
  33.0250113  13.7191673  19.9324083  31.7370113  13.7931673  19.4674083
  32.3410113  14.0951673  19.8664083  15.7920113   4.7291673  18.9284083
  15.0140113   4.8911673  18.5684083  15.8310113   3.8581673  18.9504083
  15.6830113   4.6241673  18.8784083  18.9310113   9.9921673  17.6004083
  18.5390113   9.6211673  16.9144083  18.8510113   9.3941673  18.2294083
  18.8610113   9.8491673  17.5914083  28.8510113   7.8641673  23.6414083
  28.9310113   7.8681673  22.7724083  28.2670113   7.2321673  23.7904083
  28.7760113   7.7711673  23.5354083  18.5580113  11.6331673  21.5004083
  19.1660113  11.4631673  22.1034083  17.8070113  11.4931673  21.9214083
  18.5370113  11.5871673  21.6514083  17.4490113  14.7241673  17.5774083
  17.9160113  14.8081673  16.8454083  17.9040113  14.1461673  18.0464083
  17.5850113  14.6511673  17.5384083  15.9890113  13.6721673  28.6764083
  16.1180113  13.3921673  29.4924083  15.3790113  13.1311673  28.3674083
  15.9180113  13.5511673  28.7514083  22.5630113  11.1971673  33.7434083
  22.3270113  11.1941673  34.5834083  21.8150113  11.0491673  33.3194083
  22.4170113  11.1741673  33.8044083  17.4350113   8.1931673  22.8784083
  16.9730113   7.8011673  22.2514083  18.1350113   7.6801673  22.9704083
  17.4700113   8.0601673  22.7994083  21.9430113   3.8031673  28.2254083
  22.6210113   3.8211673  27.6764083  21.8980113   2.9671673  28.4704083
  22.0360113   3.6821673  28.1804083  22.5450113  14.3891673  31.0064083
  22.6830113  15.1491673  30.5994083  23.3360113  14.0241673  31.0334083
  22.6820113  14.4481673  30.9504083  19.4360113   6.2931673  22.9014083
  20.2530113   6.1061673  23.1444083  18.9590113   5.6791673  23.2974083
  19.4860113   6.1751673  22.9964083  23.6400113  12.2741673  25.5114083
  23.9880113  11.4751673  25.5414083  24.3050113  12.7781673  25.2564083
  23.7900113  12.2301673  25.4784083  23.6970113  11.7231673  21.7224083
  24.0280113  11.0791673  22.2084083  23.9370113  11.5121673  20.9114083
  23.7810113  11.5971673  21.6744083  25.6650113   5.8541673  33.0614083
  24.8170113   5.7551673  32.8834083  25.6940113   6.5991673  33.5154083
  25.5440113   5.9501673  33.1024083  27.6850113   3.4551673  16.6894083
  27.2350113   4.1361673  16.9964083  27.7990113   2.9511673  17.3924083
  27.6360113   3.4811673  16.8384083  15.8910113   5.9541673  25.8914083
  15.6350113   6.7851673  25.8164083  15.2270113   5.5711673  26.3084083
  15.7550113   6.0201673  25.9424083  15.8010113  15.6641673  23.7914083
  15.2090113  16.2221673  23.4784083  16.2270113  15.3951673  23.0794083
  15.7770113  15.7061673  23.6404083  21.6410113  13.5081673  21.2714083
  21.0620113  13.2331673  21.8634083  22.2650113  12.8991673  21.2964083
  21.6480113  13.3781673  21.3624083  27.7840113  15.7961673  18.7934083
  28.5110113  16.2681673  18.8954083  28.0130113  15.0021673  19.0734083
  27.9260113  15.7491673  18.8504083  25.9520113  16.1881673  20.7834083
  26.1660113  16.7151673  21.4454083  26.7190113  16.0141673  20.4044083
  26.0970113  16.2401673  20.8254083  22.2260113   2.9041673  35.6804083
  22.3430113   2.4501673  34.9444083  22.5140113   3.7021673  35.4774083
  22.2860113   2.9551673  35.5414083  17.3460113  14.3341673  21.7224083
  18.0020113  13.7591673  21.7374083  17.7350113  15.0831673  21.5014083
  17.5010113  14.3591673  21.6924083  33.0790113   3.4281673  22.9844083
  32.7330113   4.1061673  23.4104083  32.4430113   2.8301673  23.0004083
  32.9340113   3.4401673  23.0494083  28.3910113  16.1981673  29.0884083
  29.1350113  16.6541673  29.0784083  28.2700113  15.9841673  28.2514083
  28.4830113  16.2341673  28.9634083  17.9590113   2.5011673  34.6644083
  17.1810113   2.1111673  34.5924083  18.4500113   2.0891673  34.0734083
  17.9160113   2.3821673  34.5664083  18.1640113  12.8211673  25.2224083
  18.5870113  12.4651673  24.5484083  18.4880113  12.3991673  25.9144083
  18.2740113  12.7061673  25.2254083  21.3950113  15.6731673  24.5184083
  22.2390113  15.7771673  24.3234083  21.0980113  16.4911673  24.5864083
  21.4760113  15.8091673  24.4994083  25.2020113   5.0701673  22.6054083
  25.4890113   4.8381673  21.8154083  25.9340113   5.1491673  23.0744083
  25.3520113   5.0471673  22.5584083  25.9240113   5.4091673  17.7264083
  26.2050113   6.1971673  17.9754083  25.1480113   5.5741673  17.3634083
  25.8510113   5.5501673  17.7094083  29.9650113  17.3831673  19.1934083
  30.6300113  17.2351673  18.6484083  30.3250113  17.3001673  19.9834083
  30.1170113  17.3491673  19.2294083  20.3930113  16.8921673  30.2584083
  20.6850113  16.8251673  31.0784083  19.7670113  16.2871673  30.2134083
  20.3440113  16.7931673  30.3734083  15.3070113   3.0491673  32.2504083
  15.3030113   3.6361673  32.8964083  15.9010113   3.3611673  31.6934083
  15.3940113   3.1821673  32.2634083  27.6450113  13.3831673  32.7924083
  27.6110113  13.7651673  33.5764083  28.4990113  13.3411673  32.6214083
  27.7660113  13.4331673  32.8834083  24.7830113  13.5801673  17.5424083
  24.6020113  14.1251673  18.1994083  25.5490113  13.8701673  17.2414083
  24.8690113  13.7041673  17.5954083  16.2440113   2.6441673  21.1654083
  16.1300113   1.7801673  21.1964083  15.7690113   2.9381673  21.8354083
  16.1570113   2.5601673  21.2684083  18.3860113  15.0541673  29.3804083
  17.6880113  14.5461673  29.5064083  18.6460113  14.8491673  28.5724083
  18.3210113  14.9491673  29.2794083  25.5480113   3.8521673  19.9104083
  25.0400113   3.1901673  19.6564083  25.6000113   4.3561673  19.2004083
  25.4810113   3.8291673  19.7684083  26.0970113  16.5471673  30.2904083
  26.8650113  16.4671673  29.8844083  25.5140113  16.4261673  29.6524083
  26.1240113  16.5171673  30.1364083  32.3740113  17.1501673  23.1914083
  31.9190113  17.8671673  23.3924083  31.7600113  16.5791673  22.9494083
  32.2160113  17.1721673  23.1854083  24.1460113   3.1601673  24.3234083
  24.2200113   3.7281673  23.6654083  24.2670113   3.6521673  25.0334083
  24.1740113   3.3171673  24.3314083  29.3710113  12.9951673  22.7354083
  30.0720113  12.5131673  22.9244083  28.7110113  12.4261673  22.7804083
  29.3770113  12.8401673  22.7694083  19.7470113  13.9051673  31.9474083
  20.5880113  13.9681673  31.7254083  19.7100113  14.3021673  32.7234083
  19.8660113  13.9731673  32.0294083  21.7100113   9.4161673  26.6964083
  21.8820113   9.2061673  27.5254083  21.0550113   8.8821673  26.4804083
  21.6390113   9.3061673  26.7874083  27.9380113   3.3301673  30.2114083
  27.8430113   3.6491673  31.0174083  27.3450113   2.6911673  30.1734083
  27.8360113   3.2821673  30.3254083  22.4600113   9.3541673  29.2864083
  22.5130113  10.2011673  29.4884083  22.1750113   8.9841673  30.0234083
  22.4260113   9.4241673  29.4244083  28.6370113  10.0491673  28.4164083
  28.1230113   9.6371673  28.9874083  28.5110113  10.8931673  28.5974083
  28.5430113  10.1131673  28.5274083  15.2810113  13.7251673  35.4974083
  16.0370113  14.0741673  35.7554083  15.4580113  12.8721673  35.4404083
  15.4190113  13.6501673  35.5274083  31.6580113   3.5101673  31.3554083
  32.4300113   3.2851673  31.6924083  31.1830113   3.7271673  32.0554083
  31.7020113   3.5091673  31.5084083  19.2020113   2.7931673  24.3254083
  19.4740113   2.3631673  23.6174083  19.0260113   2.1571673  24.8964083
  19.2160113   2.6361673  24.3054083  31.8900113  10.4881673  18.5434083
  32.0090113  10.2011673  19.3584083  32.6970113  10.5091673  18.2134083
  32.0260113  10.4491673  18.6154083  19.0260113  10.2201673  23.8744083
  19.8770113  10.1401673  23.7014083  18.6690113   9.5381673  23.4624083
  19.0990113  10.1071673  23.7874083  17.7930113  16.9451673  25.1114083
  17.1200113  16.4471673  24.8664083  18.1960113  17.1301673  24.3604083
  17.7530113  16.8991673  24.9644083  17.3430113   3.8951673  27.4074083
  18.1860113   4.1151673  27.3644083  16.9540113   4.4681673  26.8764083
  17.4100113   4.0121673  27.3224083  34.1240113  14.9971673  32.7974083
  33.4420113  15.3071673  32.3504083  33.7550113  14.5391673  33.4424083
  33.9680113  14.9751673  32.8264083  29.7850113   7.0251673  18.1284083
  29.5650113   7.7561673  17.7064083  29.3370113   7.0761673  18.8754083
  29.6860113   7.1401673  18.1764083  21.3940113  10.2271673  22.1094083
  22.1070113  10.7221673  22.1994083  21.6160113   9.6601673  21.4834083
  21.5320113  10.2161673  22.0304083  15.5500113  11.8701673  25.4294083
  14.8830113  12.3581673  25.7054083  16.2300113  12.4151673  25.4584083
  15.5520113  12.0221673  25.4744083  23.1970113   5.5801673  35.5254083
  22.7130113   6.1571673  35.9674083  23.1690113   5.8751673  34.7044083
  23.1210113   5.7091673  35.4694083  34.2950113   6.2641673  30.1374083
  34.5100113   5.4641673  29.8614083  33.4450113   6.3241673  29.9484083
  34.2010113   6.1551673  30.0684083  15.6160113   8.5541673  20.5324083
  15.4310113   7.7151673  20.6844083  16.2750113   8.5181673  19.9624083
  15.6860113   8.4251673  20.4704083  25.9170113  13.9301673  24.4364083
  25.3940113  14.5641673  24.1434083  26.2270113  13.5661673  23.7074083
  25.8850113  13.9701673  24.2854083  15.7880113  12.7181673  20.1074083
  16.3400113  13.2871673  20.4714083  15.5560113  12.2031673  20.7724083
  15.8350113  12.7261673  20.2594083  19.9920113  11.7181673  27.1964083
  20.4590113  12.0071673  27.8744083  20.5640113  11.2401673  26.7424083
  20.1460113  11.6901673  27.2294083  28.4280113   3.7321673  24.9334083
  28.7720113   3.8841673  25.7204083  27.9750113   2.9941673  25.0464083
  28.4120113   3.6451673  25.0664083  15.6180113  11.1671673  17.7354083
  16.3740113  10.7351673  17.7934083  15.6330113  11.6991673  18.4264083
  15.7320113  11.1821673  17.8464083  16.5580113   9.3881673  25.7404083
  16.9890113   9.2591673  24.9934083  16.3530113  10.2361673  25.7144083
  16.5910113   9.4941673  25.6264083  22.9040113   2.9521673  19.3904083
  22.9020113   2.8351673  18.5254083  22.7230113   3.8001673  19.4824083
  22.8770113   3.0601673  19.2764083  31.9580113  15.3791673  30.8874083
  31.2870113  15.8931673  31.1054083  32.0210113  15.4791673  30.0234083
  31.8680113  15.4701673  30.7924083  20.6420113  12.9041673  24.0224083
  20.7680113  13.7471673  24.2094083  21.3100113  12.5051673  24.4184083
  20.7600113  12.9701673  24.1084083  18.7720113   6.3871673  33.8844083
  18.2360113   5.8811673  34.3524083  18.7920113   5.9971673  33.1044083
  18.6950113   6.2541673  33.8384083  19.2570113   5.7841673  19.0244083
  19.1290113   5.3361673  19.7624083  18.6750113   5.4421673  18.4724083
  19.1520113   5.6671673  19.0524083  19.4240113   7.6141673  25.6234083
  18.6430113   7.5551673  25.2404083  19.4960113   6.8621673  26.0604083
  19.3190113   7.4951673  25.6314083  19.8540113   7.3511673  29.0914083
  19.8790113   6.6761673  28.5404083  19.2080113   7.8471673  28.7794083
  19.7630113   7.3241673  28.9644083  29.7490113   5.0641673  27.4874083
  29.0870113   5.3921673  27.9504083  29.9360113   5.6981673  26.9184083
  29.6790113   5.2061673  27.4714083  23.9540113  16.1281673  28.4834083
  23.6770113  15.4871673  27.9604083  23.7460113  16.8541673  28.0454083
  23.8830113  16.1411673  28.3414083  27.9420113   3.0331673  20.9984083
  28.4320113   3.7501673  20.9214083  27.1520113   3.2941673  20.7354083
  27.8980113   3.1771673  20.9484083  17.6530113   8.7061673  34.6504083
  17.6160113   9.2071673  33.9364083  17.9840113   7.9541673  34.3554083
  17.6960113   8.6681673  34.5014083  29.2560113  10.9111673  32.9084083
  29.7400113  11.6291673  33.0064083  29.6500113  10.4841673  32.2574083
  29.3860113  10.9541673  32.8264083  23.5520113  13.7561673  34.0854083
  23.9060113  13.5781673  34.8624083  23.1160113  13.0271673  33.8864083
  23.5400113  13.6221673  34.1714083  24.5240113   4.5031673  26.7234083
  25.0040113   5.2021673  26.9314083  24.8970113   3.8561673  27.1744083
  24.6500113   4.5111673  26.8204083  26.7130113   7.6721673  18.9974083
  26.7050113   8.3941673  18.5074083  26.0740113   7.8071673  19.5744083
  26.6180113   7.7991673  19.0104083  31.6850113  11.5421673  22.9784083
  32.0410113  11.1921673  23.6934083  31.6770113  10.8811673  22.4084083
  31.7370113  11.3921673  22.9994083  27.7300113  14.6081673  26.8224083
  27.1270113  14.3121673  26.2654083  28.2750113  15.0601673  26.3134083
  27.7210113  14.6311673  26.6644083  27.7430113  11.4591673  26.2224083
  26.9460113  11.6831673  26.4964083  28.0010113  10.8651673  26.8074083
  27.6630113  11.4041673  26.3494083  21.6350113  16.2711673  20.6704083
  21.4880113  15.4951673  21.0414083  22.3240113  16.1241673  20.1554083
  21.7150113  16.1341673  20.6494083  23.9270113  15.7871673  19.0724083
  24.5490113  15.9501673  19.6624083  23.9630113  16.4781673  18.5404083
  24.0240113  15.9131673  19.0814083  31.0030113   9.4571673  31.0684083
  31.0580113   9.5821673  30.2064083  31.7560113   9.7771673  31.3704083
  31.1220113   9.5221673  30.9854083  27.1940113  14.8061673  35.3454083
  27.3580113  15.0891673  36.1544083  27.4570113  15.4671673  34.8404083
  27.2570113  14.9461673  35.3904083  18.4280113   8.3211673  19.9014083
  18.7520113   7.5421673  19.6794083  19.0740113   8.6891673  20.3564083
  18.5710113   8.2601673  19.9354083  26.7340113   9.2631673  30.6684083
  26.5790113   9.8731673  31.2724083  27.2680113   8.7051673  31.0744083
  26.7900113   9.2711673  30.8174083  25.1180113   7.6631673  21.3264083
  25.1770113   8.3131673  21.9054083  24.9290113   6.9671673  21.8174083
  25.0990113   7.6561673  21.4844083  30.3440113  11.9921673  27.1954083
  29.8650113  12.2901673  26.5294083  29.9880113  11.2161673  27.3734083
  30.2210113  11.9211673  27.1234083  19.6140113   2.1801673  17.8384083
  19.1030113   2.2331673  17.1324083  20.3980113   2.4201673  17.5424083
  19.6540113   2.2231673  17.6904083  24.3410113   9.7101673  25.7574083
  23.4940113   9.5161673  25.8384083  24.6650113   9.5451673  26.5504083
  24.2630113   9.6571673  25.8864083  21.0930113  16.4401673  16.6434083
  21.5320113  15.7431673  16.9314083  21.3000113  17.0641673  17.2164083
  21.1890113  16.4291673  16.7704083  18.1890113   9.4031673  28.0734083
  18.9110113   9.8911673  28.0364083  17.9190113   9.3731673  27.2444083
  18.2560113   9.4711673  27.9454083  21.4190113   4.5741673  24.8084083
  22.2650113   4.3841673  24.9064083  21.0490113   3.7971673  24.6704083
  21.4890113   4.4311673  24.8024083  34.0360113  16.1581673  19.1354083
  34.7300113  15.6911673  18.8874083  33.4970113  15.5601673  19.4724083
  34.0590113  16.0001673  19.1484083  16.2400113   5.9121673  21.4634083
  16.7290113   5.6201673  22.1244083  16.3690113   5.3191673  20.8364083
  16.3310113   5.7811673  21.4684083  31.2750113   8.9341673  28.3144083
  31.2680113   8.1581673  28.7124083  30.4340113   9.1681673  28.3074083
  31.1500113   8.8541673  28.3724083  20.7650113   7.3461673  16.9494083
  20.1550113   6.9411673  17.4234083  20.3790113   7.4641673  16.1764083
  20.6180113   7.3031673  16.9054083  17.5840113  10.4551673  32.3514083
  17.1630113   9.9371673  31.7904083  17.2320113  11.2411673  32.2084083
  17.4700113  10.4951673  32.2474083  32.5310113   9.0051673  25.7514083
  32.2450113   9.4061673  26.4714083  33.3910113   8.9431673  25.8784083
  32.6160113   9.0551673  25.8764083  22.2200113   5.8071673  19.6594083
  22.4920113   6.6331673  19.7264083  21.3570113   5.8821673  19.5634083
  22.1330113   5.9401673  19.6544083  30.1930113   2.9291673  34.2914083
  29.6680113   3.3881673  34.8154083  29.8320113   2.1341673  34.2854083
  30.0620113   2.8791673  34.3674083  15.7000113   1.7771673  26.1954083
  15.7440113   2.1211673  25.3944083  16.4550113   2.0141673  26.5624083
  15.8180113   1.8631673  26.1314083  33.6620113  14.6381673  26.2804083
  33.9520113  14.8951673  25.4994083  34.3570113  14.7341673  26.7994083
  33.8080113  14.6901673  26.2414083  28.6850113   6.4981673  34.3674083
  28.7580113   6.6021673  35.2304083  28.0510113   7.0561673  34.1464083
  28.6020113   6.5961673  34.4624083  30.9530113   6.8171673  32.7324083
  31.2720113   7.6031673  32.9354083  30.5830113   6.5471673  33.4754083
  30.9460113   6.8931673  32.8724083  30.2670113  13.2411673  18.2624083
  30.6010113  12.4351673  18.2974083  29.5120113  13.1691673  18.6924083
  30.2050113  13.1111673  18.3314083  30.7490113   5.0751673  23.9214083
  30.0040113   4.7521673  24.2394083  30.7510113   5.9011673  24.2014083
  30.6390113   5.1491673  24.0094083  33.6510113   7.3591673  35.4674083
  33.5990113   7.0181673  34.6664083  34.3880113   7.8261673  35.4454083
  33.7520113   7.3781673  35.3454083  33.1890113  11.0351673  31.6734083
  33.8170113  10.4861673  31.4174083  33.1280113  11.6001673  31.0114083
  33.2730113  11.0381673  31.5374083  27.6410113  11.1161673  17.6654083
  28.3250113  10.6021673  17.4964083  27.2240113  11.1621673  16.9004083
  27.6800113  11.0471673  17.5274083  22.3230113  12.2661673  28.9694083
  22.0250113  12.8581673  29.5364083  22.3780113  12.7081673  28.2204083
  22.2870113  12.4191673  28.9424083  20.3020113  11.2161673  32.3674083
  19.4960113  10.9261673  32.5344083  20.2130113  12.0841673  32.3734083
  20.1700113  11.3011673  32.3924083  24.8390113   8.6891673  28.4604083
  25.3150113   9.0631673  29.0884083  24.0160113   8.8231673  28.7194083
  24.7880113   8.7641673  28.5914083  21.5490113   4.2921673  31.2014083
  21.7100113   3.5481673  31.6284083  21.5040113   4.0431673  30.3664083
  21.5660113   4.1451673  31.1414083  24.1030113  16.0821673  23.6884083
  24.6490113  16.7611673  23.7424083  23.7530113  16.1641673  22.8934083
  24.1320113  16.1951673  23.5784083  22.2860113  14.3101673  27.0774083
  21.6620113  14.8921673  26.8954083  22.5340113  14.0241673  26.2914083
  22.2300113  14.3541673  26.9344083  26.5950113  10.9441673  34.0664083
  27.3520113  11.2301673  33.7404083  26.0480113  10.9961673  33.3884083
  26.6260113  10.9941673  33.9174083  30.5040113  13.4941673  32.5704083
  30.8500113  13.7641673  33.3244083  30.7980113  14.0761673  31.9904083
  30.5990113  13.6201673  32.5964083  32.3670113   5.6401673  17.9094083
  32.7450113   6.3171673  17.5094083  31.5250113   5.8641673  17.9404083
  32.2980113   5.7731673  17.8544083  23.8800113   9.0861673  16.9924083
  23.0750113   8.9091673  16.7074083  23.8470113   9.9371673  17.1844083
  23.7560113   9.1851673  16.9794083  19.8100113   5.1531673  27.1424083
  20.2500113   5.0501673  26.3964083  20.3550113   4.8401673  27.7474083
  19.9550113   5.0921673  27.1214083  27.8260113   4.2551673  32.7344083
  27.1780113   4.7251673  33.0824083  28.3910113   4.1661673  33.3934083
  27.8140113   4.3111673  32.8834083  27.5140113   5.7921673  29.0324083
  27.8160113   6.2121673  29.7354083  27.5500113   4.9521673  29.2644083
  27.5640113   5.7301673  29.1704083  24.9390113  15.9591673  32.9574083
  25.4170113  15.3591673  32.5414083  24.5880113  15.5161673  33.6224083
  24.9580113  15.8051673  32.9944083  30.0620113   5.2391673  21.2844083
  30.2690113   5.0381673  22.1084083  30.8180113   5.5071673  20.9424083
  30.2040113   5.2491673  21.3554083  31.5270113   9.2661673  21.1384083
  32.0030113   8.5371673  21.0904083  30.7060113   8.9801673  21.0624083
  31.4760113   9.1161673  21.1194083  24.9980113  11.1781673  31.9774083
  24.2030113  11.1141673  32.3284083  25.0690113  12.0251673  31.7824083
  24.8910113  11.2931673  32.0004083  20.8280113  17.3851673  27.2944083
  20.8390113  17.4441673  28.1644083  20.4030113  16.6381673  27.1444083
  20.7670113  17.2831673  27.4004083  18.9860113   3.2801673  20.4494083
  19.1120113   2.9511673  19.6514083  18.1740113   3.0311673  20.6484083
  18.8850113   3.1951673  20.3614083  27.7430113  10.4331673  23.4934083
  27.8190113  10.7741673  24.2924083  27.9120113   9.5861673  23.6144083
  27.7790113  10.3581673  23.6294083  25.2650113   9.7071673  23.0584083
  24.9670113   9.3921673  23.8154083  25.9600113  10.1801673  23.2934083
  25.3240113   9.7301673  23.2054083  25.4870113  13.8251673  31.0854083
  26.1740113  13.7111673  31.6104083  25.6210113  14.6161673  30.7414083
  25.6080113  13.9251673  31.1124083  33.6630113   6.4341673  32.8964083
  32.8080113   6.3121673  33.0224083  33.8160113   6.0391673  32.1334083
  33.5590113   6.3571673  32.8024083  28.1760113   7.0991673  31.4724083
  27.9210113   6.3801673  31.8944083  28.9970113   7.2151673  31.7424083
  28.2600113   7.0101673  31.5744083  17.5920113  16.8831673  32.7364083
  16.9380113  16.3141673  32.8344083  17.2170113  17.6561673  32.8874083
  17.4400113  16.9131673  32.7734083  26.1100113   8.2891673  34.6594083
  26.4330113   8.9751673  34.2274083  25.4060113   8.6121673  35.0614083
  26.0530113   8.4381673  34.6544083  29.1940113  16.6631673  25.5884083
  28.7430113  17.3061673  25.9674083  29.9020113  16.5841673  26.0934083
  29.2320113  16.7461673  25.7194083  25.8950113  11.7531673  28.5184083
  25.2010113  12.1551673  28.8614083  26.5720113  12.1861673  28.8574083
  25.8920113  11.8761673  28.6194083  31.2720113  14.3461673  35.0984083
  32.0480113  13.9561673  35.1814083  30.8030113  14.0101673  35.7534083
  31.3170113  14.2391673  35.2074083  18.9630113   5.2911673  30.8654083
  19.3380113   5.9101673  30.3784083  19.6370113   4.8171673  31.1504083
  19.1180113   5.3131673  30.8354083  16.7380113   3.7391673  30.1404083
  16.8150113   3.5701673  29.2874083  17.4840113   4.1451673  30.3374083
  16.8590113   3.7741673  30.0434083  32.2970113   6.3791673  20.5804083
  32.4000113   6.3211673  19.7164083  33.0380113   6.0471673  20.8984083
  32.4220113   6.3221673  20.4994083  26.2170113  13.3441673  21.6874083
  26.0120113  14.1771673  21.5284083  25.4420113  12.9621673  21.8094083
  26.0720113  13.4111673  21.6824083  31.3990113   6.5251673  29.9364083
  31.3970113   5.6621673  30.0604083  31.4660113   6.8491673  30.7434083
  31.4090113   6.4451673  30.0734083  16.1350113   8.9651673  30.3644083
  16.4550113   9.1841673  29.5834083  16.0350113   8.1001673  30.3094083
  16.1670113   8.8701673  30.2414083  17.5910113   4.9011673  16.9824083
  16.9190113   4.9151673  17.5384083  17.6860113   4.0531673  16.7984083
  17.5060113   4.7781673  17.0374083  21.5790113  13.6061673  18.0964083
  22.0200113  13.6861673  18.8444083  20.7740113  13.3901673  18.3544083
  21.5250113  13.5861673  18.2454083  29.8700113   2.0311673  27.3724083
  30.7250113   2.1301673  27.5174083  29.5010113   2.5841673  27.9374083
  29.9420113   2.1281673  27.4774083  20.8980113   8.2571673  31.7494083
  20.5020113   9.0311673  31.8244083  20.4920113   7.8841673  31.0734083
  20.7800113   8.3161673  31.6604083  30.1740113   7.3111673  25.8634083
  30.8400113   7.8521673  26.0234083  29.8290113   7.6221673  25.1244083
  30.2210113   7.4371673  25.7784083  30.4870113  15.3771673  21.6704083
  30.3130113  14.7231673  22.2204083  31.2000113  15.1061673  21.2474083
  30.5670113  15.2401673  21.6894083  18.9080113  12.6761673  18.6974083
  18.6640113  12.3691673  19.4774083  18.8750113  11.9731673  18.1814083
  18.8670113  12.5271673  18.7364083  21.7270113  10.9211673  17.4404083
  20.9090113  10.6531673  17.5804083  21.6990113  11.7731673  17.6254083
  21.6020113  11.0081673  17.4884083  28.1620113  12.8301673  29.3614083
  28.3680113  13.1311673  30.1534083  28.1010113  13.5521673  28.8764083
  28.1830113  12.9811673  29.4064083  27.6960113  17.0441673  33.6074083
  26.9430113  17.0261673  33.1664083  27.8640113  17.8961673  33.6914083
  27.6100113  17.1671673  33.5544083  22.9330113   6.3111673  32.7774083
  22.6110113   5.7351673  32.2074083  22.5740113   7.0661673  32.5314083
  22.8330113   6.3371673  32.6574083  32.9740113  11.4691673  28.8194083
  32.9420113  10.6071673  28.6844083  32.2810113  11.7711673  28.3854083
  32.8670113  11.3861673  28.7354083  31.0790113  14.7291673  27.6164083
  31.6060113  14.6461673  26.9254083  30.6880113  13.9511673  27.6704083
  31.0990113  14.6021673  27.5224083  18.9610113  15.0501673  34.3854083
  19.5560113  15.4811673  34.8574083  18.5970113  15.6741673  33.8964083
  18.9950113  15.2061673  34.3824083  26.9520113   5.9811673  24.3174083
  27.5030113   5.3741673  24.6174083  26.5270113   6.2441673  25.0324083
  26.9710113   5.9301673  24.4664083  17.2000113   4.6311673  23.8034083
  16.8320113   4.9331673  24.5344083  17.7340113   4.0021673  24.0874083
  17.2240113   4.5831673  23.9534083  16.8880113  13.0391673  31.3144083
  16.3140113  13.4551673  31.8234083  17.6210113  13.5041673  31.4094083
  16.9120113  13.1691673  31.4034083  28.9220113   7.8121673  20.8794083
  28.9900113   6.9621673  21.0604083  28.0990113   7.8981673  20.6014083
  28.8100113   7.6991673  20.8654083  18.6740113  16.3061673  20.0894083
  18.5290113  16.4621673  19.2434083  19.5400113  16.3851673  20.1674083
  18.7810113  16.3411673  19.9764083  22.8410113   8.7031673  19.8174083
  22.9410113   8.8421673  18.9624083  23.6590113   8.6431673  20.1134083
  22.9760113   8.7141673  19.7344083  32.0010113  16.7671673  17.2974083
  32.6380113  16.6331673  17.8784083  31.6600113  15.9731673  17.1804083
  32.0450113  16.6301673  17.3654083  32.1960113   9.1851673  34.0304083
  32.8300113   9.0151673  34.6044083  32.6130113   9.5881673  33.3784083
  32.3510113   9.2201673  34.0194083  28.0760113  13.0321673  19.6194083
  27.8250113  12.9041673  20.4454083  27.7590113  12.3371673  19.1984083
  27.9920113  12.9111673  19.6794083  32.8210113   3.7491673  34.7684083
  32.6250113   4.3931673  35.3234083  32.0990113   3.2591673  34.7604083
  32.6860113   3.7721673  34.8494083  32.7200113   4.6901673  27.7394083
  31.8870113   4.9401673  27.6674083  32.6640113   3.8501673  27.9684083
  32.5890113   4.6031673  27.7624083  29.6070113   9.2961673  35.3854083
  30.4780113   9.2601673  35.3494083  29.3880113   9.7161673  34.6534083
  29.7040113   9.3521673  35.2724083  19.3610113  15.1211673  26.5664083
  19.2820113  14.3111673  26.2504083  18.9170113  15.6081673  25.9944083
  19.2840113  15.0731673  26.4354083  24.9620113  11.2401673  19.0494083
  25.6790113  10.8931673  18.6934083  24.9280113  12.0401673  18.7014083
  25.0630113  11.3071673  18.9454083  16.9330113  17.3651673  30.1474083
  17.4260113  17.3091673  30.8654083  17.1210113  16.6321673  29.7124083
  17.0340113  17.2481673  30.1894083  26.1800113   6.7971673   7.9591673
  25.6560113   7.3931673   8.3221673  26.5770113   6.4291673   8.6431673
  26.1610113   6.8311673   8.1141673  16.0490113  10.9371673   3.4151673
  15.6080113  11.0551673   4.1581673  15.7660113  10.1621673   3.1301673
  15.9420113  10.8401673   3.4831673  28.8510113   7.8641673   4.6351673
  28.9310113   7.8681673   3.7661673  28.2670113   7.2321673   4.7841673
  28.7760113   7.7711673   4.5291673  18.5580113  11.6331673   2.4941673
  19.1660113  11.4631673   3.0971673  17.8070113  11.4931673   2.9151673
  18.5370113  11.5871673   2.6451673  15.9890113  13.6721673   9.6701673
  16.1180113  13.3921673  10.4861673  15.3790113  13.1311673   9.3611673
  15.9180113  13.5511673   9.7451673  22.5630113  11.1971673  14.7371673
  22.3270113  11.1941673  15.5771673  21.8150113  11.0491673  14.3131673
  22.4170113  11.1741673  14.7981673  17.4350113   8.1931673   3.8721673
  16.9730113   7.8011673   3.2451673  18.1350113   7.6801673   3.9641673
  17.4700113   8.0601673   3.7931673  21.9430113   3.8031673   9.2191673
  22.6210113   3.8211673   8.6701673  21.8980113   2.9671673   9.4641673
  22.0360113   3.6821673   9.1741673  22.5450113  14.3891673  12.0001673
  22.6830113  15.1491673  11.5931673  23.3360113  14.0241673  12.0271673
  22.6820113  14.4481673  11.9441673  19.4360113   6.2931673   3.8951673
  20.2530113   6.1061673   4.1381673  18.9590113   5.6791673   4.2911673
  19.4860113   6.1751673   3.9901673  23.6400113  12.2741673   6.5051673
  23.9880113  11.4751673   6.5351673  24.3050113  12.7781673   6.2501673
  23.7900113  12.2301673   6.4721673  23.6970113  11.7231673   2.7161673
  24.0280113  11.0791673   3.2021673  23.9370113  11.5121673   1.9051673
  23.7810113  11.5971673   2.6681673  25.6650113   5.8541673  14.0551673
  24.8170113   5.7551673  13.8771673  25.6940113   6.5991673  14.5091673
  25.5440113   5.9501673  14.0961673  15.8910113   5.9541673   6.8851673
  15.6350113   6.7851673   6.8101673  15.2270113   5.5711673   7.3021673
  15.7550113   6.0201673   6.9361673  15.8010113  15.6641673   4.7851673
  15.2090113  16.2221673   4.4721673  16.2270113  15.3951673   4.0731673
  15.7770113  15.7061673   4.6341673  21.6410113  13.5081673   2.2651673
  21.0620113  13.2331673   2.8571673  22.2650113  12.8991673   2.2901673
  21.6480113  13.3781673   2.3561673  25.9520113  16.1881673   1.7771673
  26.1660113  16.7151673   2.4391673  26.7190113  16.0141673   1.3981673
  26.0970113  16.2401673   1.8191673  22.2260113   2.9041673  16.6741673
  22.3430113   2.4501673  15.9381673  22.5140113   3.7021673  16.4711673
  22.2860113   2.9551673  16.5351673  17.3460113  14.3341673   2.7161673
  18.0020113  13.7591673   2.7311673  17.7350113  15.0831673   2.4951673
  17.5010113  14.3591673   2.6861673  33.0790113   3.4281673   3.9781673
  32.7330113   4.1061673   4.4041673  32.4430113   2.8301673   3.9941673
  32.9340113   3.4401673   4.0431673  28.3910113  16.1981673  10.0821673
  29.1350113  16.6541673  10.0721673  28.2700113  15.9841673   9.2451673
  28.4830113  16.2341673   9.9571673  17.9590113   2.5011673  15.6581673
  17.1810113   2.1111673  15.5861673  18.4500113   2.0891673  15.0671673
  17.9160113   2.3821673  15.5601673  18.1640113  12.8211673   6.2161673
  18.5870113  12.4651673   5.5421673  18.4880113  12.3991673   6.9081673
  18.2740113  12.7061673   6.2191673  21.3950113  15.6731673   5.5121673
  22.2390113  15.7771673   5.3171673  21.0980113  16.4911673   5.5801673
  21.4760113  15.8091673   5.4931673  25.2020113   5.0701673   3.5991673
  25.4890113   4.8381673   2.8091673  25.9340113   5.1491673   4.0681673
  25.3520113   5.0471673   3.5521673  20.3930113  16.8921673  11.2521673
  20.6850113  16.8251673  12.0721673  19.7670113  16.2871673  11.2071673
  20.3440113  16.7931673  11.3671673  15.3070113   3.0491673  13.2441673
  15.3030113   3.6361673  13.8901673  15.9010113   3.3611673  12.6871673
  15.3940113   3.1821673  13.2571673  27.6450113  13.3831673  13.7861673
  27.6110113  13.7651673  14.5701673  28.4990113  13.3411673  13.6151673
  27.7660113  13.4331673  13.8771673  16.2440113   2.6441673   2.1591673
  16.1300113   1.7801673   2.1901673  15.7690113   2.9381673   2.8291673
  16.1570113   2.5601673   2.2621673  18.3860113  15.0541673  10.3741673
  17.6880113  14.5461673  10.5001673  18.6460113  14.8491673   9.5661673
  18.3210113  14.9491673  10.2731673  26.0970113  16.5471673  11.2841673
  26.8650113  16.4671673  10.8781673  25.5140113  16.4261673  10.6461673
  26.1240113  16.5171673  11.1301673  32.3740113  17.1501673   4.1851673
  31.9190113  17.8671673   4.3861673  31.7600113  16.5791673   3.9431673
  32.2160113  17.1721673   4.1791673  24.1460113   3.1601673   5.3171673
  24.2200113   3.7281673   4.6591673  24.2670113   3.6521673   6.0271673
  24.1740113   3.3171673   5.3251673  29.3710113  12.9951673   3.7291673
  30.0720113  12.5131673   3.9181673  28.7110113  12.4261673   3.7741673
  29.3770113  12.8401673   3.7631673  19.7470113  13.9051673  12.9411673
  20.5880113  13.9681673  12.7191673  19.7100113  14.3021673  13.7171673
  19.8660113  13.9731673  13.0231673  21.7100113   9.4161673   7.6901673
  21.8820113   9.2061673   8.5191673  21.0550113   8.8821673   7.4741673
  21.6390113   9.3061673   7.7811673  27.9380113   3.3301673  11.2051673
  27.8430113   3.6491673  12.0111673  27.3450113   2.6911673  11.1671673
  27.8360113   3.2821673  11.3191673  22.4600113   9.3541673  10.2801673
  22.5130113  10.2011673  10.4821673  22.1750113   8.9841673  11.0171673
  22.4260113   9.4241673  10.4181673  28.6370113  10.0491673   9.4101673
  28.1230113   9.6371673   9.9811673  28.5110113  10.8931673   9.5911673
  28.5430113  10.1131673   9.5211673  15.2810113  13.7251673  16.4911673
  16.0370113  14.0741673  16.7491673  15.4580113  12.8721673  16.4341673
  15.4190113  13.6501673  16.5211673  31.6580113   3.5101673  12.3491673
  32.4300113   3.2851673  12.6861673  31.1830113   3.7271673  13.0491673
  31.7020113   3.5091673  12.5021673  19.2020113   2.7931673   5.3191673
  19.4740113   2.3631673   4.6111673  19.0260113   2.1571673   5.8901673
  19.2160113   2.6361673   5.2991673  19.0260113  10.2201673   4.8681673
  19.8770113  10.1401673   4.6951673  18.6690113   9.5381673   4.4561673
  19.0990113  10.1071673   4.7811673  17.7930113  16.9451673   6.1051673
  17.1200113  16.4471673   5.8601673  18.1960113  17.1301673   5.3541673
  17.7530113  16.8991673   5.9581673  17.3430113   3.8951673   8.4011673
  18.1860113   4.1151673   8.3581673  16.9540113   4.4681673   7.8701673
  17.4100113   4.0121673   8.3161673  34.1240113  14.9971673  13.7911673
  33.4420113  15.3071673  13.3441673  33.7550113  14.5391673  14.4361673
  33.9680113  14.9751673  13.8201673  21.3940113  10.2271673   3.1031673
  22.1070113  10.7221673   3.1931673  21.6160113   9.6601673   2.4771673
  21.5320113  10.2161673   3.0241673  15.5500113  11.8701673   6.4231673
  14.8830113  12.3581673   6.6991673  16.2300113  12.4151673   6.4521673
  15.5520113  12.0221673   6.4681673  23.1970113   5.5801673  16.5191673
  22.7130113   6.1571673  16.9611673  23.1690113   5.8751673  15.6981673
  23.1210113   5.7091673  16.4631673  34.2950113   6.2641673  11.1311673
  34.5100113   5.4641673  10.8551673  33.4450113   6.3241673  10.9421673
  34.2010113   6.1551673  11.0621673  25.9170113  13.9301673   5.4301673
  25.3940113  14.5641673   5.1371673  26.2270113  13.5661673   4.7011673
  25.8850113  13.9701673   5.2791673  19.9920113  11.7181673   8.1901673
  20.4590113  12.0071673   8.8681673  20.5640113  11.2401673   7.7361673
  20.1460113  11.6901673   8.2231673  28.4280113   3.7321673   5.9271673
  28.7720113   3.8841673   6.7141673  27.9750113   2.9941673   6.0401673
  28.4120113   3.6451673   6.0601673  16.5580113   9.3881673   6.7341673
  16.9890113   9.2591673   5.9871673  16.3530113  10.2361673   6.7081673
  16.5910113   9.4941673   6.6201673  31.9580113  15.3791673  11.8811673
  31.2870113  15.8931673  12.0991673  32.0210113  15.4791673  11.0171673
  31.8680113  15.4701673  11.7861673  20.6420113  12.9041673   5.0161673
  20.7680113  13.7471673   5.2031673  21.3100113  12.5051673   5.4121673
  20.7600113  12.9701673   5.1021673  18.7720113   6.3871673  14.8781673
  18.2360113   5.8811673  15.3461673  18.7920113   5.9971673  14.0981673
  18.6950113   6.2541673  14.8321673  19.4240113   7.6141673   6.6171673
  18.6430113   7.5551673   6.2341673  19.4960113   6.8621673   7.0541673
  19.3190113   7.4951673   6.6251673  19.8540113   7.3511673  10.0851673
  19.8790113   6.6761673   9.5341673  19.2080113   7.8471673   9.7731673
  19.7630113   7.3241673   9.9581673  29.7490113   5.0641673   8.4811673
  29.0870113   5.3921673   8.9441673  29.9360113   5.6981673   7.9121673
  29.6790113   5.2061673   8.4651673  23.9540113  16.1281673   9.4771673
  23.6770113  15.4871673   8.9541673  23.7460113  16.8541673   9.0391673
  23.8830113  16.1411673   9.3351673  27.9420113   3.0331673   1.9921673
  28.4320113   3.7501673   1.9151673  27.1520113   3.2941673   1.7291673
  27.8980113   3.1771673   1.9421673  17.6530113   8.7061673  15.6441673
  17.6160113   9.2071673  14.9301673  17.9840113   7.9541673  15.3491673
  17.6960113   8.6681673  15.4951673  29.2560113  10.9111673  13.9021673
  29.7400113  11.6291673  14.0001673  29.6500113  10.4841673  13.2511673
  29.3860113  10.9541673  13.8201673  23.5520113  13.7561673  15.0791673
  23.9060113  13.5781673  15.8561673  23.1160113  13.0271673  14.8801673
  23.5400113  13.6221673  15.1651673  24.5240113   4.5031673   7.7171673
  25.0040113   5.2021673   7.9251673  24.8970113   3.8561673   8.1681673
  24.6500113   4.5111673   7.8141673  31.6850113  11.5421673   3.9721673
  32.0410113  11.1921673   4.6871673  31.6770113  10.8811673   3.4021673
  31.7370113  11.3921673   3.9931673  27.7300113  14.6081673   7.8161673
  27.1270113  14.3121673   7.2591673  28.2750113  15.0601673   7.3071673
  27.7210113  14.6311673   7.6581673  27.7430113  11.4591673   7.2161673
  26.9460113  11.6831673   7.4901673  28.0010113  10.8651673   7.8011673
  27.6630113  11.4041673   7.3431673  31.0030113   9.4571673  12.0621673
  31.0580113   9.5821673  11.2001673  31.7560113   9.7771673  12.3641673
  31.1220113   9.5221673  11.9791673  27.1940113  14.8061673  16.3391673
  27.3580113  15.0891673  17.1481673  27.4570113  15.4671673  15.8341673
  27.2570113  14.9461673  16.3841673  26.7340113   9.2631673  11.6621673
  26.5790113   9.8731673  12.2661673  27.2680113   8.7051673  12.0681673
  26.7900113   9.2711673  11.8111673  25.1180113   7.6631673   2.3201673
  25.1770113   8.3131673   2.8991673  24.9290113   6.9671673   2.8111673
  25.0990113   7.6561673   2.4781673  30.3440113  11.9921673   8.1891673
  29.8650113  12.2901673   7.5231673  29.9880113  11.2161673   8.3671673
  30.2210113  11.9211673   8.1171673  24.3410113   9.7101673   6.7511673
  23.4940113   9.5161673   6.8321673  24.6650113   9.5451673   7.5441673
  24.2630113   9.6571673   6.8801673  18.1890113   9.4031673   9.0671673
  18.9110113   9.8911673   9.0301673  17.9190113   9.3731673   8.2381673
  18.2560113   9.4711673   8.9391673  21.4190113   4.5741673   5.8021673
  22.2650113   4.3841673   5.9001673  21.0490113   3.7971673   5.6641673
  21.4890113   4.4311673   5.7961673  16.2400113   5.9121673   2.4571673
  16.7290113   5.6201673   3.1181673  16.3690113   5.3191673   1.8301673
  16.3310113   5.7811673   2.4621673  31.2750113   8.9341673   9.3081673
  31.2680113   8.1581673   9.7061673  30.4340113   9.1681673   9.3011673
  31.1500113   8.8541673   9.3661673  17.5840113  10.4551673  13.3451673
  17.1630113   9.9371673  12.7841673  17.2320113  11.2411673  13.2021673
  17.4700113  10.4951673  13.2411673  32.5310113   9.0051673   6.7451673
  32.2450113   9.4061673   7.4651673  33.3910113   8.9431673   6.8721673
  32.6160113   9.0551673   6.8701673  30.1930113   2.9291673  15.2851673
  29.6680113   3.3881673  15.8091673  29.8320113   2.1341673  15.2791673
  30.0620113   2.8791673  15.3611673  15.7000113   1.7771673   7.1891673
  15.7440113   2.1211673   6.3881673  16.4550113   2.0141673   7.5561673
  15.8180113   1.8631673   7.1251673  33.6620113  14.6381673   7.2741673
  33.9520113  14.8951673   6.4931673  34.3570113  14.7341673   7.7931673
  33.8080113  14.6901673   7.2351673  28.6850113   6.4981673  15.3611673
  28.7580113   6.6021673  16.2241673  28.0510113   7.0561673  15.1401673
  28.6020113   6.5961673  15.4561673  30.9530113   6.8171673  13.7261673
  31.2720113   7.6031673  13.9291673  30.5830113   6.5471673  14.4691673
  30.9460113   6.8931673  13.8661673  30.7490113   5.0751673   4.9151673
  30.0040113   4.7521673   5.2331673  30.7510113   5.9011673   5.1951673
  30.6390113   5.1491673   5.0031673  33.6510113   7.3591673  16.4611673
  33.5990113   7.0181673  15.6601673  34.3880113   7.8261673  16.4391673
  33.7520113   7.3781673  16.3391673  33.1890113  11.0351673  12.6671673
  33.8170113  10.4861673  12.4111673  33.1280113  11.6001673  12.0051673
  33.2730113  11.0381673  12.5311673  22.3230113  12.2661673   9.9631673
  22.0250113  12.8581673  10.5301673  22.3780113  12.7081673   9.2141673
  22.2870113  12.4191673   9.9361673  20.3020113  11.2161673  13.3611673
  19.4960113  10.9261673  13.5281673  20.2130113  12.0841673  13.3671673
  20.1700113  11.3011673  13.3861673  24.8390113   8.6891673   9.4541673
  25.3150113   9.0631673  10.0821673  24.0160113   8.8231673   9.7131673
  24.7880113   8.7641673   9.5851673  21.5490113   4.2921673  12.1951673
  21.7100113   3.5481673  12.6221673  21.5040113   4.0431673  11.3601673
  21.5660113   4.1451673  12.1351673  24.1030113  16.0821673   4.6821673
  24.6490113  16.7611673   4.7361673  23.7530113  16.1641673   3.8871673
  24.1320113  16.1951673   4.5721673  22.2860113  14.3101673   8.0711673
  21.6620113  14.8921673   7.8891673  22.5340113  14.0241673   7.2851673
  22.2300113  14.3541673   7.9281673  26.5950113  10.9441673  15.0601673
  27.3520113  11.2301673  14.7341673  26.0480113  10.9961673  14.3821673
  26.6260113  10.9941673  14.9111673  30.5040113  13.4941673  13.5641673
  30.8500113  13.7641673  14.3181673  30.7980113  14.0761673  12.9841673
  30.5990113  13.6201673  13.5901673  19.8100113   5.1531673   8.1361673
  20.2500113   5.0501673   7.3901673  20.3550113   4.8401673   8.7411673
  19.9550113   5.0921673   8.1151673  27.8260113   4.2551673  13.7281673
  27.1780113   4.7251673  14.0761673  28.3910113   4.1661673  14.3871673
  27.8140113   4.3111673  13.8771673  27.5140113   5.7921673  10.0261673
  27.8160113   6.2121673  10.7291673  27.5500113   4.9521673  10.2581673
  27.5640113   5.7301673  10.1641673  24.9390113  15.9591673  13.9511673
  25.4170113  15.3591673  13.5351673  24.5880113  15.5161673  14.6161673
  24.9580113  15.8051673  13.9881673  30.0620113   5.2391673   2.2781673
  30.2690113   5.0381673   3.1021673  30.8180113   5.5071673   1.9361673
  30.2040113   5.2491673   2.3491673  31.5270113   9.2661673   2.1321673
  32.0030113   8.5371673   2.0841673  30.7060113   8.9801673   2.0561673
  31.4760113   9.1161673   2.1131673  24.9980113  11.1781673  12.9711673
  24.2030113  11.1141673  13.3221673  25.0690113  12.0251673  12.7761673
  24.8910113  11.2931673  12.9941673  20.8280113  17.3851673   8.2881673
  20.8390113  17.4441673   9.1581673  20.4030113  16.6381673   8.1381673
  20.7670113  17.2831673   8.3941673  27.7430113  10.4331673   4.4871673
  27.8190113  10.7741673   5.2861673  27.9120113   9.5861673   4.6081673
  27.7790113  10.3581673   4.6231673  25.2650113   9.7071673   4.0521673
  24.9670113   9.3921673   4.8091673  25.9600113  10.1801673   4.2871673
  25.3240113   9.7301673   4.1991673  25.4870113  13.8251673  12.0791673
  26.1740113  13.7111673  12.6041673  25.6210113  14.6161673  11.7351673
  25.6080113  13.9251673  12.1061673  33.6630113   6.4341673  13.8901673
  32.8080113   6.3121673  14.0161673  33.8160113   6.0391673  13.1271673
  33.5590113   6.3571673  13.7961673  28.1760113   7.0991673  12.4661673
  27.9210113   6.3801673  12.8881673  28.9970113   7.2151673  12.7361673
  28.2600113   7.0101673  12.5681673  17.5920113  16.8831673  13.7301673
  16.9380113  16.3141673  13.8281673  17.2170113  17.6561673  13.8811673
  17.4400113  16.9131673  13.7671673  26.1100113   8.2891673  15.6531673
  26.4330113   8.9751673  15.2211673  25.4060113   8.6121673  16.0551673
  26.0530113   8.4381673  15.6481673  29.1940113  16.6631673   6.5821673
  28.7430113  17.3061673   6.9611673  29.9020113  16.5841673   7.0871673
  29.2320113  16.7461673   6.7131673  25.8950113  11.7531673   9.5121673
  25.2010113  12.1551673   9.8551673  26.5720113  12.1861673   9.8511673
  25.8920113  11.8761673   9.6131673  31.2720113  14.3461673  16.0921673
  32.0480113  13.9561673  16.1751673  30.8030113  14.0101673  16.7471673
  31.3170113  14.2391673  16.2011673  18.9630113   5.2911673  11.8591673
  19.3380113   5.9101673  11.3721673  19.6370113   4.8171673  12.1441673
  19.1180113   5.3131673  11.8291673  16.7380113   3.7391673  11.1341673
  16.8150113   3.5701673  10.2811673  17.4840113   4.1451673  11.3311673
  16.8590113   3.7741673  11.0371673  26.2170113  13.3441673   2.6811673
  26.0120113  14.1771673   2.5221673  25.4420113  12.9621673   2.8031673
  26.0720113  13.4111673   2.6761673  31.3990113   6.5251673  10.9301673
  31.3970113   5.6621673  11.0541673  31.4660113   6.8491673  11.7371673
  31.4090113   6.4451673  11.0671673  16.1350113   8.9651673  11.3581673
  16.4550113   9.1841673  10.5771673  16.0350113   8.1001673  11.3031673
  16.1670113   8.8701673  11.2351673  29.8700113   2.0311673   8.3661673
  30.7250113   2.1301673   8.5111673  29.5010113   2.5841673   8.9311673
  29.9420113   2.1281673   8.4711673  20.8980113   8.2571673  12.7431673
  20.5020113   9.0311673  12.8181673  20.4920113   7.8841673  12.0671673
  20.7800113   8.3161673  12.6541673  30.1740113   7.3111673   6.8571673
  30.8400113   7.8521673   7.0171673  29.8290113   7.6221673   6.1181673
  30.2210113   7.4371673   6.7721673  30.4870113  15.3771673   2.6641673
  30.3130113  14.7231673   3.2141673  31.2000113  15.1061673   2.2411673
  30.5670113  15.2401673   2.6831673  28.1620113  12.8301673  10.3551673
  28.3680113  13.1311673  11.1471673  28.1010113  13.5521673   9.8701673
  28.1830113  12.9811673  10.4001673  27.6960113  17.0441673  14.6011673
  26.9430113  17.0261673  14.1601673  27.8640113  17.8961673  14.6851673
  27.6100113  17.1671673  14.5481673  22.9330113   6.3111673  13.7711673
  22.6110113   5.7351673  13.2011673  22.5740113   7.0661673  13.5251673
  22.8330113   6.3371673  13.6511673  32.9740113  11.4691673   9.8131673
  32.9420113  10.6071673   9.6781673  32.2810113  11.7711673   9.3791673
  32.8670113  11.3861673   9.7291673  21.3680113  16.6671673  14.0191673
  21.4090113  16.7931673  14.8821673  22.0190113  16.1071673  13.8631673
  21.4700113  16.6031673  14.1241673  31.0790113  14.7291673   8.6101673
  31.6060113  14.6461673   7.9191673  30.6880113  13.9511673   8.6641673
  31.0990113  14.6021673   8.5161673  18.9610113  15.0501673  15.3791673
  19.5560113  15.4811673  15.8511673  18.5970113  15.6741673  14.8901673
  18.9950113  15.2061673  15.3761673  26.9520113   5.9811673   5.3111673
  27.5030113   5.3741673   5.6111673  26.5270113   6.2441673   6.0261673
  26.9710113   5.9301673   5.4601673  17.2000113   4.6311673   4.7971673
  16.8320113   4.9331673   5.5281673  17.7340113   4.0021673   5.0811673
  17.2240113   4.5831673   4.9471673  16.8880113  13.0391673  12.3081673
  16.3140113  13.4551673  12.8171673  17.6210113  13.5041673  12.4031673
  16.9120113  13.1691673  12.3971673  28.9220113   7.8121673   1.8731673
  28.9900113   6.9621673   2.0541673  28.0990113   7.8981673   1.5951673
  28.8100113   7.6991673   1.8591673  32.1960113   9.1851673  15.0241673
  32.8300113   9.0151673  15.5981673  32.6130113   9.5881673  14.3721673
  32.3510113   9.2201673  15.0131673  32.8210113   3.7491673  15.7621673
  32.6250113   4.3931673  16.3171673  32.0990113   3.2591673  15.7541673
  32.6860113   3.7721673  15.8431673  32.7200113   4.6901673   8.7331673
  31.8870113   4.9401673   8.6611673  32.6640113   3.8501673   8.9621673
  32.5890113   4.6031673   8.7561673  29.6070113   9.2961673  16.3791673
  30.4780113   9.2601673  16.3431673  29.3880113   9.7161673  15.6471673
  29.7040113   9.3521673  16.2661673  19.3610113  15.1211673   7.5601673
  19.2820113  14.3111673   7.2441673  18.9170113  15.6081673   6.9881673
  19.2840113  15.0731673   7.4291673  16.9330113  17.3651673  11.1411673
  17.4260113  17.3091673  11.8591673  17.1210113  16.6321673  10.7061673
  17.0340113  17.2481673  11.1831673   7.5061673  55.3154913  79.3131313
   7.2611673  55.8034913  78.6331313   8.3691673  55.2424913  79.2131313
   7.5971673  55.3764913  79.1981313   7.3151673  62.2314913  83.9841313
   6.7911673  62.8274913  84.3471313   7.7121673  61.8634913  84.6681313
   7.2961673  62.2654913  84.1391313  13.4591673  69.6724913  76.9551313
  14.1601673  69.1534913  76.9511313  12.8721673  69.2274913  76.4861313
  13.4761673  69.5294913  76.8851313   9.9861673  63.2984913  80.6601313
  10.0661673  63.3024913  79.7911313   9.4021673  62.6664913  80.8091313
   9.9111673  63.2054913  80.5541313   3.9751673  56.4024913  78.4681313
   3.9051673  57.0794913  77.9221313   4.7161673  56.0144913  78.2191313
   4.0741673  56.4454913  78.3501313   3.0781673  59.2374913  85.2441313
   3.7561673  59.2554913  84.6951313   3.0331673  58.4014913  85.4891313
   3.1711673  59.1164913  85.1991313   4.7751673  67.7084913  82.5301313
   5.1231673  66.9094913  82.5601313   5.4401673  68.2124913  82.2751313
   4.9251673  67.6644913  82.4971313   4.8321673  67.1574913  78.7411313
   5.1631673  66.5134913  79.2271313   5.0721673  66.9464913  77.9301313
   4.9161673  67.0314913  78.6931313   4.1471673  55.9634913  81.4091313
   4.2201673  56.8234913  81.5381313   4.1091673  55.8884913  80.5411313
   4.1521673  56.0794913  81.3001313   8.8201673  58.8894913  73.7081313
   8.3701673  59.5704913  74.0151313   8.9341673  58.3854913  74.4111313
   8.7711673  58.9154913  73.8571313   2.7761673  68.9424913  78.2901313
   2.1971673  68.6674913  78.8821313   3.4001673  68.3334913  78.3151313
   2.7831673  68.8124913  78.3811313  14.2141673  58.8624913  80.0031313
  13.8681673  59.5404913  80.4291313  13.5781673  58.2644913  80.0191313
  14.0691673  58.8744913  80.0681313   6.3371673  60.5044913  79.6241313
   6.6241673  60.2724913  78.8341313   7.0691673  60.5834913  80.0931313
   6.4871673  60.4814913  79.5771313   7.0591673  60.8434913  74.7451313
   7.3401673  61.6314913  74.9941313   6.2831673  61.0084913  74.3821313
   6.9861673  60.9844913  74.7281313  13.8891673  57.1854913  85.3721313
  14.6461673  57.2574913  84.9441313  13.9521673  56.4124913  85.7711313
  14.0101673  57.0824913  85.3671313   5.9181673  69.0144913  74.5611313
   5.7371673  69.5594913  75.2181313   6.6841673  69.3044913  74.2601313
   6.0041673  69.1384913  74.6141313   9.4251673  56.9104913  75.6151313
   9.9651673  56.2284913  75.6911313   9.4871673  57.3084913  76.3891313
   9.5141673  56.8684913  75.7411313   6.6831673  59.2864913  76.9291313
   6.1751673  58.6244913  76.6751313   6.7351673  59.7904913  76.2191313
   6.6161673  59.2634913  76.7871313   6.6831673  56.2274913  76.8201313
   6.2281673  55.8254913  76.1941313   7.4561673  56.3824913  76.4451313
   6.7301673  56.1914913  76.6721313   5.2811673  58.5944913  81.3421313
   5.3551673  59.1624913  80.6841313   5.4021673  59.0864913  82.0521313
   5.3091673  58.7514913  81.3501313  10.5061673  68.4294913  79.7541313
  11.2071673  67.9474913  79.9431313   9.8461673  67.8604913  79.7991313
  10.5121673  68.2744913  79.7881313   2.8451673  64.8504913  83.7151313
   3.0171673  64.6404913  84.5441313   2.1901673  64.3164913  83.4991313
   2.7741673  64.7404913  83.8061313   9.0731673  58.7644913  87.2301313
   8.9781673  59.0834913  88.0361313   8.4801673  58.1254913  87.1921313
   8.9711673  58.7164913  87.3441313   3.5951673  64.7884913  86.3051313
   3.6481673  65.6354913  86.5071313   3.3101673  64.4184913  87.0421313
   3.5611673  64.8584913  86.4431313   9.7721673  65.4834913  85.4351313
   9.2581673  65.0714913  86.0061313   9.6461673  66.3274913  85.6161313
   9.6781673  65.5474913  85.5461313  10.3291673  54.7084913  80.0661313
  10.3781673  54.3904913  80.8771313  10.6521673  54.0644913  79.5731313
  10.3841673  54.5664913  80.1131313  13.0251673  65.9224913  75.5621313
  13.1441673  65.6354913  76.3771313  13.8321673  65.9434913  75.2321313
  13.1611673  65.8834913  75.6341313  10.9201673  62.4594913  75.1471313
  10.7001673  63.1904913  74.7251313  10.4721673  62.5104913  75.8941313
  10.8211673  62.5744913  75.1951313   2.5291673  65.6614913  79.1281313
   3.2421673  66.1564913  79.2181313   2.7511673  65.0944913  78.5021313
   2.6671673  65.6504913  79.0491313  15.1071673  57.3204913  74.6001313
  14.4451673  56.7524913  74.6231313  14.9141673  57.8324913  73.9201313
  14.9811673  57.3124913  74.5031313  15.4301673  61.6984913  87.1561313
  15.6451673  60.8984913  86.8801313  14.5801673  61.7584913  86.9671313
  15.3361673  61.5894913  87.0871313  13.1091673  56.8784913  76.8791313
  13.8551673  56.4714913  77.0781313  13.3721673  57.5934913  76.4541313
  13.2581673  56.9244913  76.8461313   7.0521673  69.3644913  81.4551313
   6.5291673  69.9984913  81.1621313   7.3621673  69.0004913  80.7261313
   7.0201673  69.4044913  81.3041313   9.5631673  59.1664913  81.9521313
   9.9071673  59.3184913  82.7391313   9.1101673  58.4284913  82.0651313
   9.5471673  59.0794913  82.0851313   4.0391673  58.3864913  76.4091313
   4.0371673  58.2694913  75.5441313   3.8581673  59.2344913  76.5011313
   4.0121673  58.4944913  76.2951313   1.7771673  68.3384913  81.0411313
   1.9031673  69.1814913  81.2281313   2.4451673  67.9394913  81.4371313
   1.8951673  68.4044913  81.1271313  10.8841673  60.4984913  84.5061313
  10.2221673  60.8264913  84.9691313  11.0711673  61.1324913  83.9371313
  10.8141673  60.6404913  84.4901313   7.5291673  56.4044913  87.9351313
   7.6781673  55.5794913  87.6921313   7.9081673  56.4594913  88.7191313
   7.6071673  56.2904913  88.0151313   9.0771673  58.4674913  78.0171313
   9.5671673  59.1844913  77.9401313   8.2871673  58.7284913  77.7541313
   9.0331673  58.6114913  77.9671313   5.6591673  59.9374913  83.7421313
   6.1391673  60.6364913  83.9501313   6.0321673  59.2904913  84.1931313
   5.7851673  59.9454913  83.8391313   7.8481673  63.1064913  76.0161313
   7.8401673  63.8284913  75.5261313   7.2091673  63.2414913  76.5931313
   7.7531673  63.2334913  76.0291313  12.8201673  66.9764913  79.9971313
  13.1761673  66.6264913  80.7121313  12.8121673  66.3154913  79.4271313
  12.8721673  66.8264913  80.0181313   8.8651673  70.0424913  83.8411313
   8.2621673  69.7464913  83.2841313   9.4101673  70.4944913  83.3321313
   8.8561673  70.0654913  83.6831313   8.8781673  66.8934913  83.2411313
   8.0811673  67.1174913  83.5151313   9.1361673  66.2994913  83.8261313
   8.7981673  66.8384913  83.3681313  12.1381673  64.8914913  88.0871313
  12.1931673  65.0164913  87.2251313  12.8911673  65.2114913  88.3891313
  12.2571673  64.9564913  88.0041313   7.8691673  64.6974913  87.6871313
   7.7141673  65.3074913  88.2911313   8.4031673  64.1394913  88.0931313
   7.9251673  64.7054913  87.8361313   6.2531673  63.0974913  78.3451313
   6.3121673  63.7474913  78.9241313   6.0641673  62.4014913  78.8361313
   6.2341673  63.0904913  78.5031313  11.4791673  67.4264913  84.2141313
  11.0001673  67.7244913  83.5481313  11.1231673  66.6504913  84.3921313
  11.3561673  67.3554913  84.1421313   5.4761673  65.1444913  82.7761313
   4.6291673  64.9504913  82.8571313   5.8001673  64.9794913  83.5691313
   5.3981673  65.0914913  82.9051313   2.5541673  60.0084913  81.8271313
   3.4001673  59.8184913  81.9251313   2.1841673  59.2314913  81.6891313
   2.6241673  59.8654913  81.8211313  12.4101673  64.3684913  85.3331313
  12.4031673  63.5924913  85.7311313  11.5691673  64.6024913  85.3261313
  12.2851673  64.2884913  85.3911313  13.6661673  64.4394913  82.7701313
  13.3801673  64.8404913  83.4901313  14.5261673  64.3774913  82.8971313
  13.7511673  64.4894913  82.8951313   3.3551673  61.2414913  76.6781313
   3.6271673  62.0674913  76.7451313   2.4921673  61.3164913  76.5821313
   3.2681673  61.3744913  76.6731313  14.7971673  70.0724913  83.2991313
  15.0871673  70.3294913  82.5181313  15.4921673  70.1684913  83.8181313
  14.9431673  70.1244913  83.2601313  11.4021673  68.6754913  75.2811313
  11.7361673  67.8694913  75.3161313  10.6471673  68.6034913  75.7111313
  11.3401673  68.5454913  75.3501313  11.8841673  60.5094913  80.9401313
  11.1391673  60.1864913  81.2581313  11.8861673  61.3354913  81.2201313
  11.7741673  60.5834913  81.0281313  14.3241673  66.4694913  88.6921313
  14.9521673  65.9204913  88.4361313  14.2631673  67.0344913  88.0301313
  14.4081673  66.4724913  88.5561313   8.7761673  66.5504913  74.6841313
   9.4601673  66.0364913  74.5151313   8.3591673  66.5964913  73.9191313
   8.8151673  66.4814913  74.5461313   3.4581673  67.7004913  85.9881313
   3.1601673  68.2924913  86.5551313   3.5131673  68.1424913  85.2391313
   3.4221673  67.8534913  85.9611313  10.7961673  56.8394913  88.4011313
  11.5401673  57.2914913  88.3381313  10.2301673  57.3094913  87.9321313
  10.8231673  56.9764913  88.3231313   5.9741673  64.1234913  85.4791313
   6.4501673  64.4974913  86.1071313   5.1511673  64.2574913  85.7381313
   5.9231673  64.1984913  85.6101313   2.6841673  59.7264913  88.2201313
   2.8451673  58.9824913  88.6471313   2.6391673  59.4774913  87.3851313
   2.7011673  59.5794913  88.1601313  12.0811673  54.8194913  86.0711313
  11.8011673  55.6444913  86.0271313  12.7971673  54.8724913  86.5671313
  12.1461673  54.9494913  86.1381313   4.4361673  55.5344913  88.1001313
   5.1411673  55.8544913  87.6981313   4.6771673  54.7274913  88.3271313
   4.5751673  55.4624913  88.0741313   3.4211673  69.7444913  84.0961313
   2.7971673  70.3264913  83.9141313   3.6691673  69.4584913  83.3101313
   3.3651673  69.7884913  83.9531313  13.5021673  61.0744913  74.9281313
  13.8801673  61.7514913  74.5281313  12.6601673  61.2984913  74.9591313
  13.4331673  61.2074913  74.8731313   5.0151673  64.5204913  74.0111313
   4.2101673  64.3434913  73.7261313   4.9821673  65.3714913  74.2031313
   4.8911673  64.6194913  73.9981313   8.6491673  61.2264913  86.0511313
   8.9511673  61.6464913  86.7541313   8.6851673  60.3864913  86.2831313
   8.6991673  61.1644913  86.1891313  11.1971673  60.6734913  78.3031313
  11.4041673  60.4724913  79.1271313  11.9531673  60.9414913  77.9611313
  11.3391673  60.6834913  78.3741313   4.4921673  55.5724913  84.2081313
   3.6661673  55.4234913  84.4451313   4.4521673  55.6074913  83.3371313
   4.3641673  55.5554913  84.1141313  12.2191673  56.7564913  79.7771313
  11.5051673  56.2854913  79.9481313  12.0571673  57.0974913  78.9911313
  12.0901673  56.7374913  79.6861313  12.6621673  64.7004913  78.1571313
  13.1381673  63.9714913  78.1091313  11.8411673  64.4144913  78.0811313
  12.6111673  64.5504913  78.1381313   8.8781673  65.8674913  80.5121313
   8.9541673  66.2084913  81.3111313   9.0471673  65.0204913  80.6331313
   8.9141673  65.7924913  80.6481313   6.4001673  65.1414913  80.0771313
   6.1021673  64.8264913  80.8341313   7.0951673  65.6144913  80.3121313
   6.4591673  65.1644913  80.2241313   6.6221673  69.2594913  88.1041313
   7.3091673  69.1454913  88.6291313   6.7561673  70.0504913  87.7601313
   6.7431673  69.3594913  88.1311313   9.3111673  62.5334913  88.4911313
   9.0561673  61.8144913  88.9131313  10.1321673  62.6494913  88.7611313
   9.3951673  62.4444913  88.5931313   7.0301673  67.1874913  85.5371313
   6.3361673  67.5894913  85.8801313   7.7071673  67.6204913  85.8761313
   7.0271673  67.3104913  85.6381313  13.4321673  61.8134913  77.5991313
  13.5351673  61.7554913  76.7351313  14.1731673  61.4814913  77.9171313
  13.5571673  61.7564913  77.5181313   7.3521673  68.7784913  78.7061313
   7.1471673  69.6114913  78.5471313   6.5771673  68.3964913  78.8281313
   7.2071673  68.8454913  78.7011313  12.5341673  61.9594913  86.9551313
  12.5321673  61.0964913  87.0791313  12.6011673  62.2834913  87.7621313
  12.5441673  61.8794913  87.0921313   7.4071673  56.9494913  81.5911313
   6.7071673  57.4674913  81.5351313   7.4451673  56.5694913  80.8071313
   7.3091673  56.9704913  81.4671313   2.7141673  69.0404913  75.1151313
   3.1551673  69.1204913  75.8631313   1.9091673  68.8244913  75.3731313
   2.6601673  69.0204913  75.2641313  11.0051673  57.4654913  84.3911313
  11.8601673  57.5644913  84.5361313  10.6361673  58.0184913  84.9561313
  11.0771673  57.5624913  84.4961313  11.3091673  62.7454913  82.8821313
  11.9751673  63.2864913  83.0421313  10.9641673  63.0564913  82.1431313
  11.3561673  62.8714913  82.7971313   2.8621673  66.3554913  74.4591313
   2.0441673  66.0874913  74.5991313   2.8341673  67.2074913  74.6441313
   2.7371673  66.4424913  74.5071313  14.4801673  55.3034913  87.5471313
  14.4281673  55.2594913  88.4171313  15.1671673  54.8004913  87.3571313
  14.5741673  55.2234913  87.6471313   6.5651673  57.4164913  84.5921313
   5.8281673  56.9624913  84.7051313   7.1361673  57.0144913  85.1151313
   6.5401673  57.2894913  84.6861313   9.2971673  68.2644913  86.3801313
   9.5031673  68.5654913  87.1721313   9.2361673  68.9864913  85.8951313
   9.3181673  68.4154913  86.4251313   4.8641673  54.9974913  74.4231313
   4.9421673  55.2444913  73.5901313   4.1211673  55.3744913  74.6811313
   4.7661673  55.0894913  74.3381313  14.1091673  66.9034913  85.8381313
  14.0771673  66.0414913  85.7031313  13.4161673  67.2054913  85.4041313
  14.0021673  66.8204913  85.7541313  12.2141673  70.1634913  84.6351313
  12.7411673  70.0804913  83.9441313  11.8231673  69.3854913  84.6891313
  12.2341673  70.0364913  84.5411313   8.7281673  55.6074913  83.8431313
   9.3981673  56.1514913  83.9701313   8.2251673  56.0314913  83.2701313
   8.7531673  55.7504913  83.7771313   8.0871673  61.4154913  81.3361313
   8.6381673  60.8084913  81.6361313   7.6621673  61.6784913  82.0511313
   8.1061673  61.3644913  81.4851313  10.0571673  63.2464913  77.8981313
  10.1251673  62.3964913  78.0791313   9.2341673  63.3324913  77.6201313
   9.9451673  63.1334913  77.8841313   3.9761673  64.1374913  76.8361313
   4.0761673  64.2764913  75.9811313   4.7941673  64.0774913  77.1321313
   4.1111673  64.1484913  76.7531313   9.2111673  68.4664913  76.6381313
   8.9601673  68.3384913  77.4641313   8.8941673  67.7714913  76.2171313
   9.1271673  68.3454913  76.6981313  13.8551673  60.1244913  84.7581313
  13.0221673  60.3744913  84.6861313  13.7991673  59.2844913  84.9871313
  13.7241673  60.0374913  84.7811313   6.0971673  66.6744913  76.0681313
   6.8141673  66.3274913  75.7121313   6.0631673  67.4744913  75.7201313
   6.1981673  66.7414913  75.9641313   7.5061673  55.3154913  60.3068903
   7.2611673  55.8034913  59.6268903   8.3691673  55.2424913  60.2068903
   7.5971673  55.3764913  60.1918903   7.3151673  62.2314913  64.9778903
   6.7911673  62.8274913  65.3408903   7.7121673  61.8634913  65.6618903
   7.2961673  62.2654913  65.1328903  13.4591673  69.6724913  57.9488903
  14.1601673  69.1534913  57.9448903  12.8721673  69.2274913  57.4798903
  13.4761673  69.5294913  57.8788903   9.9861673  63.2984913  61.6538903
  10.0661673  63.3024913  60.7848903   9.4021673  62.6664913  61.8028903
   9.9111673  63.2054913  61.5478903   3.9751673  56.4024913  59.4618903
   3.9051673  57.0794913  58.9158903   4.7161673  56.0144913  59.2128903
   4.0741673  56.4454913  59.3438903   3.6981673  66.6314913  71.7558903
   3.4621673  66.6284913  72.5958903   2.9501673  66.4834913  71.3318903
   3.5521673  66.6084913  71.8168903   3.0781673  59.2374913  66.2378903
   3.7561673  59.2554913  65.6888903   3.0331673  58.4014913  66.4828903
   3.1711673  59.1164913  66.1928903   4.7751673  67.7084913  63.5238903
   5.1231673  66.9094913  63.5538903   5.4401673  68.2124913  63.2688903
   4.9251673  67.6644913  63.4908903   4.8321673  67.1574913  59.7348903
   5.1631673  66.5134913  60.2208903   5.0721673  66.9464913  58.9238903
   4.9161673  67.0314913  59.6868903   6.8001673  61.2884913  71.0738903
   5.9521673  61.1894913  70.8958903   6.8291673  62.0334913  71.5278903
   6.6791673  61.3844913  71.1148903  11.3581673  54.2484913  70.1878903
  11.2001673  55.0174913  69.8058903  10.5861673  54.0284913  70.5318903
  11.2201673  54.3294913  70.1828903   4.1471673  55.9634913  62.4028903
   4.2201673  56.8234913  62.5318903   4.1091673  55.8884913  61.5348903
   4.1521673  56.0794913  62.2938903   8.8201673  58.8894913  54.7018903
   8.3701673  59.5704913  55.0088903   8.9341673  58.3854913  55.4048903
   8.7711673  58.9154913  54.8508903   2.7761673  68.9424913  59.2838903
   2.1971673  68.6674913  59.8758903   3.4001673  68.3334913  59.3088903
   2.7831673  68.8124913  59.3748903   3.3611673  58.3384913  73.6928903
   3.4781673  57.8844913  72.9568903   3.6491673  59.1364913  73.4898903
   3.4211673  58.3894913  73.5538903  14.2141673  58.8624913  60.9968903
  13.8681673  59.5404913  61.4228903  13.5781673  58.2644913  61.0128903
  14.0691673  58.8744913  61.0618903   5.7431673  55.5784913  71.8448903
   5.9211673  54.7694913  71.5698903   5.6001673  56.0194913  71.1058903
   5.7481673  55.5244913  71.6948903   6.3371673  60.5044913  60.6178903
   6.6241673  60.2724913  59.8278903   7.0691673  60.5834913  61.0868903
   6.4871673  60.4814913  60.5708903   7.0591673  60.8434913  55.7388903
   7.3401673  61.6314913  55.9878903   6.2831673  61.0084913  55.3758903
   6.9861673  60.9844913  55.7218903  13.8891673  57.1854913  66.3658903
  14.6461673  57.2574913  65.9378903  13.9521673  56.4124913  66.7648903
  14.0101673  57.0824913  66.3608903   8.7801673  68.8174913  70.8048903
   8.7461673  69.1994913  71.5888903   9.6341673  68.7754913  70.6338903
   8.9011673  68.8674913  70.8958903   5.9181673  69.0144913  55.5548903
   5.7371673  69.5594913  56.2118903   6.6841673  69.3044913  55.2538903
   6.0041673  69.1384913  55.6078903   9.4251673  56.9104913  56.6088903
   9.9651673  56.2284913  56.6848903   9.4871673  57.3084913  57.3828903
   9.5141673  56.8684913  56.7348903   6.6831673  59.2864913  57.9228903
   6.1751673  58.6244913  57.6688903   6.7351673  59.7904913  57.2128903
   6.6161673  59.2634913  57.7808903   6.6831673  56.2274913  57.8138903
   6.2281673  55.8254913  57.1878903   7.4561673  56.3824913  57.4388903
   6.7301673  56.1914913  57.6658903   5.2811673  58.5944913  62.3358903
   5.3551673  59.1624913  61.6778903   5.4021673  59.0864913  63.0458903
   5.3091673  58.7514913  62.3438903  10.5061673  68.4294913  60.7478903
  11.2071673  67.9474913  60.9368903   9.8461673  67.8604913  60.7928903
  10.5121673  68.2744913  60.7818903   2.8451673  64.8504913  64.7088903
   3.0171673  64.6404913  65.5378903   2.1901673  64.3164913  64.4928903
   2.7741673  64.7404913  64.7998903   9.0731673  58.7644913  68.2238903
   8.9781673  59.0834913  69.0298903   8.4801673  58.1254913  68.1858903
   8.9711673  58.7164913  68.3378903   3.5951673  64.7884913  67.2988903
   3.6481673  65.6354913  67.5008903   3.3101673  64.4184913  68.0358903
   3.5611673  64.8584913  67.4368903   9.7721673  65.4834913  66.4288903
   9.2581673  65.0714913  66.9998903   9.6461673  66.3274913  66.6098903
   9.6781673  65.5474913  66.5398903  10.3291673  54.7084913  61.0598903
  10.3781673  54.3904913  61.8708903  10.6521673  54.0644913  60.5668903
  10.3841673  54.5664913  61.1068903  12.7931673  58.9444913  69.3678903
  13.5651673  58.7194913  69.7048903  12.3181673  59.1614913  70.0678903
  12.8371673  58.9434913  69.5208903  13.0251673  65.9224913  56.5558903
  13.1441673  65.6354913  57.3708903  13.8321673  65.9434913  56.2258903
  13.1611673  65.8834913  56.6278903  10.9201673  62.4594913  56.1408903
  10.7001673  63.1904913  55.7188903  10.4721673  62.5104913  56.8878903
  10.8211673  62.5744913  56.1888903   2.5291673  65.6614913  60.1218903
   3.2421673  66.1564913  60.2118903   2.7511673  65.0944913  59.4958903
   2.6671673  65.6504913  60.0428903  15.1071673  57.3204913  55.5938903
  14.4451673  56.7524913  55.6168903  14.9141673  57.8324913  54.9138903
  14.9811673  57.3124913  55.4968903   4.3321673  61.0144913  73.5378903
   3.8481673  61.5914913  73.9798903   4.3041673  61.3094913  72.7168903
   4.2561673  61.1434913  73.4818903  15.4301673  61.6984913  68.1498903
  15.6451673  60.8984913  67.8738903  14.5801673  61.7584913  67.9608903
  15.3361673  61.5894913  68.0808903  13.1091673  56.8784913  57.8728903
  13.8551673  56.4714913  58.0718903  13.3721673  57.5934913  57.4478903
  13.2581673  56.9244913  57.8398903   7.0521673  69.3644913  62.4488903
   6.5291673  69.9984913  62.1558903   7.3621673  69.0004913  61.7198903
   7.0201673  69.4044913  62.2978903   9.5631673  59.1664913  62.9458903
   9.9071673  59.3184913  63.7328903   9.1101673  58.4284913  63.0588903
   9.5471673  59.0794913  63.0788903   4.0391673  58.3864913  57.4028903
   4.0371673  58.2694913  56.5378903   3.8581673  59.2344913  57.4948903
   4.0121673  58.4944913  57.2888903   1.7771673  68.3384913  62.0348903
   1.9031673  69.1814913  62.2218903   2.4451673  67.9394913  62.4308903
   1.8951673  68.4044913  62.1208903  10.8841673  60.4984913  65.4998903
  10.2221673  60.8264913  65.9628903  11.0711673  61.1324913  64.9308903
  10.8141673  60.6404913  65.4838903   7.5291673  56.4044913  68.9288903
   7.6781673  55.5794913  68.6858903   7.9081673  56.4594913  69.7128903
   7.6071673  56.2904913  69.0088903   9.0771673  58.4674913  59.0108903
   9.5671673  59.1844913  58.9338903   8.2871673  58.7284913  58.7478903
   9.0331673  58.6114913  58.9608903  10.3911673  66.3454913  70.9208903
  10.8751673  67.0634913  71.0188903  10.7851673  65.9184913  70.2698903
  10.5211673  66.3884913  70.8388903   4.6871673  69.1904913  72.0978903
   5.0411673  69.0124913  72.8748903   4.2511673  68.4614913  71.8988903
   4.6751673  69.0564913  72.1838903   5.6591673  59.9374913  64.7358903
   6.1391673  60.6364913  64.9438903   6.0321673  59.2904913  65.1868903
   5.7851673  59.9454913  64.8328903   7.8481673  63.1064913  57.0098903
   7.8401673  63.8284913  56.5198903   7.2091673  63.2414913  57.5868903
   7.7531673  63.2334913  57.0228903  12.8201673  66.9764913  60.9908903
  13.1761673  66.6264913  61.7058903  12.8121673  66.3154913  60.4208903
  12.8721673  66.8264913  61.0118903   8.8651673  70.0424913  64.8348903
   8.2621673  69.7464913  64.2778903   9.4101673  70.4944913  64.3258903
   8.8561673  70.0654913  64.6768903   8.8781673  66.8934913  64.2348903
   8.0811673  67.1174913  64.5088903   9.1361673  66.2994913  64.8198903
   8.7981673  66.8384913  64.3618903  12.1381673  64.8914913  69.0808903
  12.1931673  65.0164913  68.2188903  12.8911673  65.2114913  69.3828903
  12.2571673  64.9564913  68.9978903  13.1701673  55.1894913  72.0678903
  12.5331673  54.7894913  71.6258903  13.1961673  54.7584913  72.8258903
  13.0801673  55.0674913  72.1138903   7.8691673  64.6974913  68.6808903
   7.7141673  65.3074913  69.2848903   8.4031673  64.1394913  69.0868903
   7.9251673  64.7054913  68.8298903   6.2531673  63.0974913  59.3388903
   6.3121673  63.7474913  59.9178903   6.0641673  62.4014913  59.8298903
   6.2341673  63.0904913  59.4968903  11.4791673  67.4264913  65.2078903
  11.0001673  67.7244913  64.5418903  11.1231673  66.6504913  65.3858903
  11.3561673  67.3554913  65.1358903   5.4761673  65.1444913  63.7698903
   4.6291673  64.9504913  63.8508903   5.8001673  64.9794913  64.5628903
   5.3981673  65.0914913  63.8988903   2.5541673  60.0084913  62.8208903
   3.4001673  59.8184913  62.9188903   2.1841673  59.2314913  62.6828903
   2.6241673  59.8654913  62.8148903  12.4101673  64.3684913  66.3268903
  12.4031673  63.5924913  66.7248903  11.5691673  64.6024913  66.3198903
  12.2851673  64.2884913  66.3848903  13.6661673  64.4394913  63.7638903
  13.3801673  64.8404913  64.4838903  14.5261673  64.3774913  63.8908903
  13.7511673  64.4894913  63.8888903   3.3551673  61.2414913  57.6718903
   3.6271673  62.0674913  57.7388903   2.4921673  61.3164913  57.5758903
   3.2681673  61.3744913  57.6668903  11.3281673  58.3634913  72.3038903
  10.8031673  58.8224913  72.8278903  10.9671673  57.5684913  72.2978903
  11.1971673  58.3134913  72.3798903  14.7971673  70.0724913  64.2928903
  15.0871673  70.3294913  63.5118903  15.4921673  70.1684913  64.8118903
  14.9431673  70.1244913  64.2538903   9.8201673  61.9324913  72.3798903
   9.8931673  62.0364913  73.2428903   9.1861673  62.4904913  72.1588903
   9.7371673  62.0304913  72.4748903  12.0881673  62.2514913  70.7448903
  12.4071673  63.0374913  70.9478903  11.7181673  61.9814913  71.4878903
  12.0811673  62.3274913  70.8848903  11.4021673  68.6754913  56.2748903
  11.7361673  67.8694913  56.3098903  10.6471673  68.6034913  56.7048903
  11.3401673  68.5454913  56.3438903  11.8841673  60.5094913  61.9338903
  11.1391673  60.1864913  62.2518903  11.8861673  61.3354913  62.2138903
  11.7741673  60.5834913  62.0218903  14.7861673  62.7934913  73.4798903
  14.7341673  62.4524913  72.6788903  15.5231673  63.2604913  73.4578903
  14.8871673  62.8124913  73.3578903  14.3241673  66.4694913  69.6858903
  14.9521673  65.9204913  69.4298903  14.2631673  67.0344913  69.0238903
  14.4081673  66.4724913  69.5498903   8.7761673  66.5504913  55.6778903
   9.4601673  66.0364913  55.5088903   8.3591673  66.5964913  54.9128903
   8.8151673  66.4814913  55.5398903   3.4581673  67.7004913  66.9818903
   3.1601673  68.2924913  67.5488903   3.5131673  68.1424913  66.2328903
   3.4221673  67.8534913  66.9548903  10.7961673  56.8394913  69.3948903
  11.5401673  57.2914913  69.3318903  10.2301673  57.3094913  68.9258903
  10.8231673  56.9764913  69.3168903   5.9741673  64.1234913  66.4728903
   6.4501673  64.4974913  67.1008903   5.1511673  64.2574913  66.7318903
   5.9231673  64.1984913  66.6038903   2.6841673  59.7264913  69.2138903
   2.8451673  58.9824913  69.6408903   2.6391673  59.4774913  68.3788903
   2.7011673  59.5794913  69.1538903  12.0811673  54.8194913  67.0648903
  11.8011673  55.6444913  67.0208903  12.7971673  54.8724913  67.5608903
  12.1461673  54.9494913  67.1318903   4.4361673  55.5344913  69.0938903
   5.1411673  55.8544913  68.6918903   4.6771673  54.7274913  69.3208903
   4.5751673  55.4624913  69.0678903   3.4211673  69.7444913  65.0898903
   2.7971673  70.3264913  64.9078903   3.6691673  69.4584913  64.3038903
   3.3651673  69.7884913  64.9468903   7.7301673  66.3784913  72.0788903
   8.4871673  66.6644913  71.7528903   7.1831673  66.4304913  71.4008903
   7.7611673  66.4284913  71.9298903  11.6391673  68.9284913  70.5828903
  11.9851673  69.1984913  71.3368903  11.9331673  69.5104913  70.0028903
  11.7341673  69.0544913  70.6088903  13.5021673  61.0744913  55.9218903
  13.8801673  61.7514913  55.5218903  12.6601673  61.2984913  55.9528903
  13.4331673  61.2074913  55.8668903   5.0151673  64.5204913  55.0048903
   4.2101673  64.3434913  54.7198903   4.9821673  65.3714913  55.1968903
   4.8911673  64.6194913  54.9918903   8.9611673  59.6894913  70.7468903
   8.3131673  60.1594913  71.0948903   9.5261673  59.6004913  71.4058903
   8.9491673  59.7454913  70.8958903   8.6491673  61.2264913  67.0448903
   8.9511673  61.6464913  67.7478903   8.6851673  60.3864913  67.2768903
   8.6991673  61.1644913  67.1828903  11.1971673  60.6734913  59.2968903
  11.4041673  60.4724913  60.1208903  11.9531673  60.9414913  58.9548903
  11.3391673  60.6834913  59.3678903   4.4921673  55.5724913  65.2018903
   3.6661673  55.4234913  65.4388903   4.4521673  55.6074913  64.3308903
   4.3641673  55.5554913  65.1078903  12.2191673  56.7564913  60.7708903
  11.5051673  56.2854913  60.9418903  12.0571673  57.0974913  59.9848903
  12.0901673  56.7374913  60.6798903  12.6621673  64.7004913  59.1508903
  13.1381673  63.9714913  59.1028903  11.8411673  64.4144913  59.0748903
  12.6111673  64.5504913  59.1318903   6.1331673  66.6124913  69.9898903
   5.3381673  66.5484913  70.3408903   6.2041673  67.4594913  69.7948903
   6.0261673  66.7274913  70.0128903   8.8781673  65.8674913  61.5058903
   8.9541673  66.2084913  62.3048903   9.0471673  65.0204913  61.6268903
   8.9141673  65.7924913  61.6418903   6.4001673  65.1414913  61.0708903
   6.1021673  64.8264913  61.8278903   7.0951673  65.6144913  61.3058903
   6.4591673  65.1644913  61.2178903   6.6221673  69.2594913  69.0978903
   7.3091673  69.1454913  69.6228903   6.7561673  70.0504913  68.7538903
   6.7431673  69.3594913  69.1248903  14.7981673  61.8684913  70.9088903
  13.9431673  61.7464913  71.0348903  14.9511673  61.4734913  70.1458903
  14.6941673  61.7914913  70.8148903   9.3111673  62.5334913  69.4848903
   9.0561673  61.8144913  69.9068903  10.1321673  62.6494913  69.7548903
   9.3951673  62.4444913  69.5868903   7.2451673  63.7234913  72.6718903
   7.5681673  64.4094913  72.2398903   6.5411673  64.0464913  73.0738903
   7.1881673  63.8724913  72.6668903   7.0301673  67.1874913  66.5308903
   6.3361673  67.5894913  66.8738903   7.7071673  67.6204913  66.8698903
   7.0271673  67.3104913  66.6318903  12.4071673  69.7804913  73.1108903
  13.1831673  69.3904913  73.1938903  11.9381673  69.4444913  73.7658903
  12.4521673  69.6734913  73.2198903  13.4321673  61.8134913  58.5928903
  13.5351673  61.7554913  57.7288903  14.1731673  61.4814913  58.9108903
  13.5571673  61.7564913  58.5118903   7.3521673  68.7784913  59.6998903
   7.1471673  69.6114913  59.5408903   6.5771673  68.3964913  59.8218903
   7.2071673  68.8454913  59.6948903  12.5341673  61.9594913  67.9488903
  12.5321673  61.0964913  68.0728903  12.6011673  62.2834913  68.7558903
  12.5441673  61.8794913  68.0858903   8.4131673  56.7594913  71.7308903
   8.5051673  57.4714913  72.2248903   7.7761673  56.3144913  72.1278903
   8.3321673  56.7984913  71.8628903   7.4071673  56.9494913  62.5848903
   6.7071673  57.4674913  62.5288903   7.4451673  56.5694913  61.8008903
   7.3091673  56.9704913  62.4608903   2.7141673  69.0404913  56.1088903
   3.1551673  69.1204913  56.8568903   1.9091673  68.8244913  56.3668903
   2.6601673  69.0204913  56.2578903  11.0051673  57.4654913  65.3848903
  11.8601673  57.5644913  65.5298903  10.6361673  58.0184913  65.9498903
  11.0771673  57.5624913  65.4898903  11.3091673  62.7454913  63.8758903
  11.9751673  63.2864913  64.0358903  10.9641673  63.0564913  63.1368903
  11.3561673  62.8714913  63.7908903   2.8621673  66.3554913  55.4528903
   2.0441673  66.0874913  55.5928903   2.8341673  67.2074913  55.6378903
   2.7371673  66.4424913  55.5008903  14.4801673  55.3034913  68.5408903
  14.4281673  55.2594913  69.4108903  15.1671673  54.8004913  68.3508903
  14.5741673  55.2234913  68.6408903   6.5651673  57.4164913  65.5858903
   5.8281673  56.9624913  65.6988903   7.1361673  57.0144913  66.1088903
   6.5401673  57.2894913  65.6798903   9.2971673  68.2644913  67.3738903
   9.5031673  68.5654913  68.1658903   9.2361673  68.9864913  66.8888903
   9.3181673  68.4154913  67.4188903   4.0681673  61.7454913  70.7898903
   3.7461673  61.1694913  70.2198903   3.7091673  62.5004913  70.5438903
   3.9681673  61.7714913  70.6698903   4.8641673  54.9974913  55.4168903
   4.9421673  55.2444913  54.5838903   4.1211673  55.3744913  55.6748903
   4.7661673  55.0894913  55.3318903  14.1091673  66.9034913  66.8318903
  14.0771673  66.0414913  66.6968903  13.4161673  67.2054913  66.3978903
  14.0021673  66.8204913  66.7478903  12.2141673  70.1634913  65.6288903
  12.7411673  70.0804913  64.9378903  11.8231673  69.3854913  65.6828903
  12.2341673  70.0364913  65.5348903   8.7281673  55.6074913  64.8368903
   9.3981673  56.1514913  64.9638903   8.2251673  56.0314913  64.2638903
   8.7531673  55.7504913  64.7708903   8.0871673  61.4154913  62.3298903
   8.6381673  60.8084913  62.6298903   7.6621673  61.6784913  63.0448903
   8.1061673  61.3644913  62.4788903  10.0571673  63.2464913  58.8918903
  10.1251673  62.3964913  59.0728903   9.2341673  63.3324913  58.6138903
   9.9451673  63.1334913  58.8778903   3.9761673  64.1374913  57.8298903
   4.0761673  64.2764913  56.9748903   4.7941673  64.0774913  58.1258903
   4.1111673  64.1484913  57.7468903  13.3311673  64.6194913  72.0428903
  13.9651673  64.4494913  72.6168903  13.7481673  65.0224913  71.3908903
  13.4861673  64.6544913  72.0318903   9.2111673  68.4664913  57.6318903
   8.9601673  68.3384913  58.4578903   8.8941673  67.7714913  57.2108903
   9.1271673  68.3454913  57.6918903  13.9561673  59.1834913  72.7808903
  13.7601673  59.8274913  73.3358903  13.2341673  58.6934913  72.7728903
  13.8211673  59.2064913  72.8618903  13.8551673  60.1244913  65.7518903
  13.0221673  60.3744913  65.6798903  13.7991673  59.2844913  65.9808903
  13.7241673  60.0374913  65.7748903   3.1151673  57.1124913  70.9458903
   3.3491673  56.5364913  70.3328903   2.2731673  56.9314913  71.0868903
   3.0251673  57.0004913  70.8758903  10.7421673  64.7304913  73.3978903
  11.6131673  64.6944913  73.3618903  10.5231673  65.1504913  72.6658903
  10.8391673  64.7864913  73.2848903   6.0971673  66.6744913  57.0618903
   6.8141673  66.3274913  56.7058903   6.0631673  67.4744913  56.7138903
   6.1981673  66.7414913  56.9578903   7.5061673  55.3154913  41.3006493
   7.2611673  55.8034913  40.6206493   8.3691673  55.2424913  41.2006493
   7.5971673  55.3764913  41.1856493   7.3151673  62.2314913  45.9716493
   6.7911673  62.8274913  46.3346493   7.7121673  61.8634913  46.6556493
   7.2961673  62.2654913  46.1266493  13.4591673  69.6724913  38.9426493
  14.1601673  69.1534913  38.9386493  12.8721673  69.2274913  38.4736493
  13.4761673  69.5294913  38.8726493   9.9861673  63.2984913  42.6476493
  10.0661673  63.3024913  41.7786493   9.4021673  62.6664913  42.7966493
   9.9111673  63.2054913  42.5416493   3.9751673  56.4024913  40.4556493
   3.9051673  57.0794913  39.9096493   4.7161673  56.0144913  40.2066493
   4.0741673  56.4454913  40.3376493   3.6981673  66.6314913  52.7496493
   3.4621673  66.6284913  53.5896493   2.9501673  66.4834913  52.3256493
   3.5521673  66.6084913  52.8106493   3.0781673  59.2374913  47.2316493
   3.7561673  59.2554913  46.6826493   3.0331673  58.4014913  47.4766493
   3.1711673  59.1164913  47.1866493   4.7751673  67.7084913  44.5176493
   5.1231673  66.9094913  44.5476493   5.4401673  68.2124913  44.2626493
   4.9251673  67.6644913  44.4846493   4.8321673  67.1574913  40.7286493
   5.1631673  66.5134913  41.2146493   5.0721673  66.9464913  39.9176493
   4.9161673  67.0314913  40.6806493   6.8001673  61.2884913  52.0676493
   5.9521673  61.1894913  51.8896493   6.8291673  62.0334913  52.5216493
   6.6791673  61.3844913  52.1086493  11.3581673  54.2484913  51.1816493
  11.2001673  55.0174913  50.7996493  10.5861673  54.0284913  51.5256493
  11.2201673  54.3294913  51.1766493   4.1471673  55.9634913  43.3966493
   4.2201673  56.8234913  43.5256493   4.1091673  55.8884913  42.5286493
   4.1521673  56.0794913  43.2876493   8.8201673  58.8894913  35.6956493
   8.3701673  59.5704913  36.0026493   8.9341673  58.3854913  36.3986493
   8.7711673  58.9154913  35.8446493   2.7761673  68.9424913  40.2776493
   2.1971673  68.6674913  40.8696493   3.4001673  68.3334913  40.3026493
   2.7831673  68.8124913  40.3686493   3.3611673  58.3384913  54.6866493
   3.4781673  57.8844913  53.9506493   3.6491673  59.1364913  54.4836493
   3.4211673  58.3894913  54.5476493  14.2141673  58.8624913  41.9906493
  13.8681673  59.5404913  42.4166493  13.5781673  58.2644913  42.0066493
  14.0691673  58.8744913  42.0556493   5.7431673  55.5784913  52.8386493
   5.9211673  54.7694913  52.5636493   5.6001673  56.0194913  52.0996493
   5.7481673  55.5244913  52.6886493   6.3371673  60.5044913  41.6116493
   6.6241673  60.2724913  40.8216493   7.0691673  60.5834913  42.0806493
   6.4871673  60.4814913  41.5646493   7.0591673  60.8434913  36.7326493
   7.3401673  61.6314913  36.9816493   6.2831673  61.0084913  36.3696493
   6.9861673  60.9844913  36.7156493  13.8891673  57.1854913  47.3596493
  14.6461673  57.2574913  46.9316493  13.9521673  56.4124913  47.7586493
  14.0101673  57.0824913  47.3546493   8.7801673  68.8174913  51.7986493
   8.7461673  69.1994913  52.5826493   9.6341673  68.7754913  51.6276493
   8.9011673  68.8674913  51.8896493   5.9181673  69.0144913  36.5486493
   5.7371673  69.5594913  37.2056493   6.6841673  69.3044913  36.2476493
   6.0041673  69.1384913  36.6016493   9.4251673  56.9104913  37.6026493
   9.9651673  56.2284913  37.6786493   9.4871673  57.3084913  38.3766493
   9.5141673  56.8684913  37.7286493   6.6831673  59.2864913  38.9166493
   6.1751673  58.6244913  38.6626493   6.7351673  59.7904913  38.2066493
   6.6161673  59.2634913  38.7746493   6.6831673  56.2274913  38.8076493
   6.2281673  55.8254913  38.1816493   7.4561673  56.3824913  38.4326493
   6.7301673  56.1914913  38.6596493   5.2811673  58.5944913  43.3296493
   5.3551673  59.1624913  42.6716493   5.4021673  59.0864913  44.0396493
   5.3091673  58.7514913  43.3376493  10.5061673  68.4294913  41.7416493
  11.2071673  67.9474913  41.9306493   9.8461673  67.8604913  41.7866493
  10.5121673  68.2744913  41.7756493   2.8451673  64.8504913  45.7026493
   3.0171673  64.6404913  46.5316493   2.1901673  64.3164913  45.4866493
   2.7741673  64.7404913  45.7936493   9.0731673  58.7644913  49.2176493
   8.9781673  59.0834913  50.0236493   8.4801673  58.1254913  49.1796493
   8.9711673  58.7164913  49.3316493   3.5951673  64.7884913  48.2926493
   3.6481673  65.6354913  48.4946493   3.3101673  64.4184913  49.0296493
   3.5611673  64.8584913  48.4306493   9.7721673  65.4834913  47.4226493
   9.2581673  65.0714913  47.9936493   9.6461673  66.3274913  47.6036493
   9.6781673  65.5474913  47.5336493  10.3291673  54.7084913  42.0536493
  10.3781673  54.3904913  42.8646493  10.6521673  54.0644913  41.5606493
  10.3841673  54.5664913  42.1006493  12.7931673  58.9444913  50.3616493
  13.5651673  58.7194913  50.6986493  12.3181673  59.1614913  51.0616493
  12.8371673  58.9434913  50.5146493  13.0251673  65.9224913  37.5496493
  13.1441673  65.6354913  38.3646493  13.8321673  65.9434913  37.2196493
  13.1611673  65.8834913  37.6216493  10.9201673  62.4594913  37.1346493
  10.7001673  63.1904913  36.7126493  10.4721673  62.5104913  37.8816493
  10.8211673  62.5744913  37.1826493   2.5291673  65.6614913  41.1156493
   3.2421673  66.1564913  41.2056493   2.7511673  65.0944913  40.4896493
   2.6671673  65.6504913  41.0366493  15.1071673  57.3204913  36.5876493
  14.4451673  56.7524913  36.6106493  14.9141673  57.8324913  35.9076493
  14.9811673  57.3124913  36.4906493   4.3321673  61.0144913  54.5316493
   3.8481673  61.5914913  54.9736493   4.3041673  61.3094913  53.7106493
   4.2561673  61.1434913  54.4756493  15.4301673  61.6984913  49.1436493
  15.6451673  60.8984913  48.8676493  14.5801673  61.7584913  48.9546493
  15.3361673  61.5894913  49.0746493  13.1091673  56.8784913  38.8666493
  13.8551673  56.4714913  39.0656493  13.3721673  57.5934913  38.4416493
  13.2581673  56.9244913  38.8336493   7.0521673  69.3644913  43.4426493
   6.5291673  69.9984913  43.1496493   7.3621673  69.0004913  42.7136493
   7.0201673  69.4044913  43.2916493   9.5631673  59.1664913  43.9396493
   9.9071673  59.3184913  44.7266493   9.1101673  58.4284913  44.0526493
   9.5471673  59.0794913  44.0726493   4.0391673  58.3864913  38.3966493
   4.0371673  58.2694913  37.5316493   3.8581673  59.2344913  38.4886493
   4.0121673  58.4944913  38.2826493   1.7771673  68.3384913  43.0286493
   1.9031673  69.1814913  43.2156493   2.4451673  67.9394913  43.4246493
   1.8951673  68.4044913  43.1146493  10.8841673  60.4984913  46.4936493
  10.2221673  60.8264913  46.9566493  11.0711673  61.1324913  45.9246493
  10.8141673  60.6404913  46.4776493   7.5291673  56.4044913  49.9226493
   7.6781673  55.5794913  49.6796493   7.9081673  56.4594913  50.7066493
   7.6071673  56.2904913  50.0026493   9.0771673  58.4674913  40.0046493
   9.5671673  59.1844913  39.9276493   8.2871673  58.7284913  39.7416493
   9.0331673  58.6114913  39.9546493  10.3911673  66.3454913  51.9146493
  10.8751673  67.0634913  52.0126493  10.7851673  65.9184913  51.2636493
  10.5211673  66.3884913  51.8326493   4.6871673  69.1904913  53.0916493
   5.0411673  69.0124913  53.8686493   4.2511673  68.4614913  52.8926493
   4.6751673  69.0564913  53.1776493   5.6591673  59.9374913  45.7296493
   6.1391673  60.6364913  45.9376493   6.0321673  59.2904913  46.1806493
   5.7851673  59.9454913  45.8266493   7.8481673  63.1064913  38.0036493
   7.8401673  63.8284913  37.5136493   7.2091673  63.2414913  38.5806493
   7.7531673  63.2334913  38.0166493  12.8201673  66.9764913  41.9846493
  13.1761673  66.6264913  42.6996493  12.8121673  66.3154913  41.4146493
  12.8721673  66.8264913  42.0056493   8.8651673  70.0424913  45.8286493
   8.2621673  69.7464913  45.2716493   9.4101673  70.4944913  45.3196493
   8.8561673  70.0654913  45.6706493   8.8781673  66.8934913  45.2286493
   8.0811673  67.1174913  45.5026493   9.1361673  66.2994913  45.8136493
   8.7981673  66.8384913  45.3556493  12.1381673  64.8914913  50.0746493
  12.1931673  65.0164913  49.2126493  12.8911673  65.2114913  50.3766493
  12.2571673  64.9564913  49.9916493  13.1701673  55.1894913  53.0616493
  12.5331673  54.7894913  52.6196493  13.1961673  54.7584913  53.8196493
  13.0801673  55.0674913  53.1076493   7.8691673  64.6974913  49.6746493
   7.7141673  65.3074913  50.2786493   8.4031673  64.1394913  50.0806493
   7.9251673  64.7054913  49.8236493   6.2531673  63.0974913  40.3326493
   6.3121673  63.7474913  40.9116493   6.0641673  62.4014913  40.8236493
   6.2341673  63.0904913  40.4906493  11.4791673  67.4264913  46.2016493
  11.0001673  67.7244913  45.5356493  11.1231673  66.6504913  46.3796493
  11.3561673  67.3554913  46.1296493   5.4761673  65.1444913  44.7636493
   4.6291673  64.9504913  44.8446493   5.8001673  64.9794913  45.5566493
   5.3981673  65.0914913  44.8926493   2.5541673  60.0084913  43.8146493
   3.4001673  59.8184913  43.9126493   2.1841673  59.2314913  43.6766493
   2.6241673  59.8654913  43.8086493  12.4101673  64.3684913  47.3206493
  12.4031673  63.5924913  47.7186493  11.5691673  64.6024913  47.3136493
  12.2851673  64.2884913  47.3786493  13.6661673  64.4394913  44.7576493
  13.3801673  64.8404913  45.4776493  14.5261673  64.3774913  44.8846493
  13.7511673  64.4894913  44.8826493   3.3551673  61.2414913  38.6656493
   3.6271673  62.0674913  38.7326493   2.4921673  61.3164913  38.5696493
   3.2681673  61.3744913  38.6606493  11.3281673  58.3634913  53.2976493
  10.8031673  58.8224913  53.8216493  10.9671673  57.5684913  53.2916493
  11.1971673  58.3134913  53.3736493  14.7971673  70.0724913  45.2866493
  15.0871673  70.3294913  44.5056493  15.4921673  70.1684913  45.8056493
  14.9431673  70.1244913  45.2476493   9.8201673  61.9324913  53.3736493
   9.8931673  62.0364913  54.2366493   9.1861673  62.4904913  53.1526493
   9.7371673  62.0304913  53.4686493  12.0881673  62.2514913  51.7386493
  12.4071673  63.0374913  51.9416493  11.7181673  61.9814913  52.4816493
  12.0811673  62.3274913  51.8786493  11.4021673  68.6754913  37.2686493
  11.7361673  67.8694913  37.3036493  10.6471673  68.6034913  37.6986493
  11.3401673  68.5454913  37.3376493  11.8841673  60.5094913  42.9276493
  11.1391673  60.1864913  43.2456493  11.8861673  61.3354913  43.2076493
  11.7741673  60.5834913  43.0156493  14.7861673  62.7934913  54.4736493
  14.7341673  62.4524913  53.6726493  15.5231673  63.2604913  54.4516493
  14.8871673  62.8124913  54.3516493  14.3241673  66.4694913  50.6796493
  14.9521673  65.9204913  50.4236493  14.2631673  67.0344913  50.0176493
  14.4081673  66.4724913  50.5436493   8.7761673  66.5504913  36.6716493
   9.4601673  66.0364913  36.5026493   8.3591673  66.5964913  35.9066493
   8.8151673  66.4814913  36.5336493   3.4581673  67.7004913  47.9756493
   3.1601673  68.2924913  48.5426493   3.5131673  68.1424913  47.2266493
   3.4221673  67.8534913  47.9486493  10.7961673  56.8394913  50.3886493
  11.5401673  57.2914913  50.3256493  10.2301673  57.3094913  49.9196493
  10.8231673  56.9764913  50.3106493   5.9741673  64.1234913  47.4666493
   6.4501673  64.4974913  48.0946493   5.1511673  64.2574913  47.7256493
   5.9231673  64.1984913  47.5976493   2.6841673  59.7264913  50.2076493
   2.8451673  58.9824913  50.6346493   2.6391673  59.4774913  49.3726493
   2.7011673  59.5794913  50.1476493  12.0811673  54.8194913  48.0586493
  11.8011673  55.6444913  48.0146493  12.7971673  54.8724913  48.5546493
  12.1461673  54.9494913  48.1256493   4.4361673  55.5344913  50.0876493
   5.1411673  55.8544913  49.6856493   4.6771673  54.7274913  50.3146493
   4.5751673  55.4624913  50.0616493   3.4211673  69.7444913  46.0836493
   2.7971673  70.3264913  45.9016493   3.6691673  69.4584913  45.2976493
   3.3651673  69.7884913  45.9406493   7.7301673  66.3784913  53.0726493
   8.4871673  66.6644913  52.7466493   7.1831673  66.4304913  52.3946493
   7.7611673  66.4284913  52.9236493  11.6391673  68.9284913  51.5766493
  11.9851673  69.1984913  52.3306493  11.9331673  69.5104913  50.9966493
  11.7341673  69.0544913  51.6026493  13.5021673  61.0744913  36.9156493
  13.8801673  61.7514913  36.5156493  12.6601673  61.2984913  36.9466493
  13.4331673  61.2074913  36.8606493   5.0151673  64.5204913  35.9986493
   4.2101673  64.3434913  35.7136493   4.9821673  65.3714913  36.1906493
   4.8911673  64.6194913  35.9856493   8.9611673  59.6894913  51.7406493
   8.3131673  60.1594913  52.0886493   9.5261673  59.6004913  52.3996493
   8.9491673  59.7454913  51.8896493   8.6491673  61.2264913  48.0386493
   8.9511673  61.6464913  48.7416493   8.6851673  60.3864913  48.2706493
   8.6991673  61.1644913  48.1766493  11.1971673  60.6734913  40.2906493
  11.4041673  60.4724913  41.1146493  11.9531673  60.9414913  39.9486493
  11.3391673  60.6834913  40.3616493   4.4921673  55.5724913  46.1956493
   3.6661673  55.4234913  46.4326493   4.4521673  55.6074913  45.3246493
   4.3641673  55.5554913  46.1016493  12.2191673  56.7564913  41.7646493
  11.5051673  56.2854913  41.9356493  12.0571673  57.0974913  40.9786493
  12.0901673  56.7374913  41.6736493  12.6621673  64.7004913  40.1446493
  13.1381673  63.9714913  40.0966493  11.8411673  64.4144913  40.0686493
  12.6111673  64.5504913  40.1256493   6.1331673  66.6124913  50.9836493
   5.3381673  66.5484913  51.3346493   6.2041673  67.4594913  50.7886493
   6.0261673  66.7274913  51.0066493   8.8781673  65.8674913  42.4996493
   8.9541673  66.2084913  43.2986493   9.0471673  65.0204913  42.6206493
   8.9141673  65.7924913  42.6356493   6.4001673  65.1414913  42.0646493
   6.1021673  64.8264913  42.8216493   7.0951673  65.6144913  42.2996493
   6.4591673  65.1644913  42.2116493   6.6221673  69.2594913  50.0916493
   7.3091673  69.1454913  50.6166493   6.7561673  70.0504913  49.7476493
   6.7431673  69.3594913  50.1186493  14.7981673  61.8684913  51.9026493
  13.9431673  61.7464913  52.0286493  14.9511673  61.4734913  51.1396493
  14.6941673  61.7914913  51.8086493   9.3111673  62.5334913  50.4786493
   9.0561673  61.8144913  50.9006493  10.1321673  62.6494913  50.7486493
   9.3951673  62.4444913  50.5806493   7.2451673  63.7234913  53.6656493
   7.5681673  64.4094913  53.2336493   6.5411673  64.0464913  54.0676493
   7.1881673  63.8724913  53.6606493   7.0301673  67.1874913  47.5246493
   6.3361673  67.5894913  47.8676493   7.7071673  67.6204913  47.8636493
   7.0271673  67.3104913  47.6256493  12.4071673  69.7804913  54.1046493
  13.1831673  69.3904913  54.1876493  11.9381673  69.4444913  54.7596493
  12.4521673  69.6734913  54.2136493  13.4321673  61.8134913  39.5866493
  13.5351673  61.7554913  38.7226493  14.1731673  61.4814913  39.9046493
  13.5571673  61.7564913  39.5056493   7.3521673  68.7784913  40.6936493
   7.1471673  69.6114913  40.5346493   6.5771673  68.3964913  40.8156493
   7.2071673  68.8454913  40.6886493  12.5341673  61.9594913  48.9426493
  12.5321673  61.0964913  49.0666493  12.6011673  62.2834913  49.7496493
  12.5441673  61.8794913  49.0796493   8.4131673  56.7594913  52.7246493
   8.5051673  57.4714913  53.2186493   7.7761673  56.3144913  53.1216493
   8.3321673  56.7984913  52.8566493   7.4071673  56.9494913  43.5786493
   6.7071673  57.4674913  43.5226493   7.4451673  56.5694913  42.7946493
   7.3091673  56.9704913  43.4546493   2.7141673  69.0404913  37.1026493
   3.1551673  69.1204913  37.8506493   1.9091673  68.8244913  37.3606493
   2.6601673  69.0204913  37.2516493  11.0051673  57.4654913  46.3786493
  11.8601673  57.5644913  46.5236493  10.6361673  58.0184913  46.9436493
  11.0771673  57.5624913  46.4836493  11.3091673  62.7454913  44.8696493
  11.9751673  63.2864913  45.0296493  10.9641673  63.0564913  44.1306493
  11.3561673  62.8714913  44.7846493   2.8621673  66.3554913  36.4466493
   2.0441673  66.0874913  36.5866493   2.8341673  67.2074913  36.6316493
   2.7371673  66.4424913  36.4946493  14.4801673  55.3034913  49.5346493
  14.4281673  55.2594913  50.4046493  15.1671673  54.8004913  49.3446493
  14.5741673  55.2234913  49.6346493   6.5651673  57.4164913  46.5796493
   5.8281673  56.9624913  46.6926493   7.1361673  57.0144913  47.1026493
   6.5401673  57.2894913  46.6736493   9.2971673  68.2644913  48.3676493
   9.5031673  68.5654913  49.1596493   9.2361673  68.9864913  47.8826493
   9.3181673  68.4154913  48.4126493   4.0681673  61.7454913  51.7836493
   3.7461673  61.1694913  51.2136493   3.7091673  62.5004913  51.5376493
   3.9681673  61.7714913  51.6636493   4.8641673  54.9974913  36.4106493
   4.9421673  55.2444913  35.5776493   4.1211673  55.3744913  36.6686493
   4.7661673  55.0894913  36.3256493  14.1091673  66.9034913  47.8256493
  14.0771673  66.0414913  47.6906493  13.4161673  67.2054913  47.3916493
  14.0021673  66.8204913  47.7416493  12.2141673  70.1634913  46.6226493
  12.7411673  70.0804913  45.9316493  11.8231673  69.3854913  46.6766493
  12.2341673  70.0364913  46.5286493   8.7281673  55.6074913  45.8306493
   9.3981673  56.1514913  45.9576493   8.2251673  56.0314913  45.2576493
   8.7531673  55.7504913  45.7646493   8.0871673  61.4154913  43.3236493
   8.6381673  60.8084913  43.6236493   7.6621673  61.6784913  44.0386493
   8.1061673  61.3644913  43.4726493  10.0571673  63.2464913  39.8856493
  10.1251673  62.3964913  40.0666493   9.2341673  63.3324913  39.6076493
   9.9451673  63.1334913  39.8716493   3.9761673  64.1374913  38.8236493
   4.0761673  64.2764913  37.9686493   4.7941673  64.0774913  39.1196493
   4.1111673  64.1484913  38.7406493  13.3311673  64.6194913  53.0366493
  13.9651673  64.4494913  53.6106493  13.7481673  65.0224913  52.3846493
  13.4861673  64.6544913  53.0256493   9.2111673  68.4664913  38.6256493
   8.9601673  68.3384913  39.4516493   8.8941673  67.7714913  38.2046493
   9.1271673  68.3454913  38.6856493  13.9561673  59.1834913  53.7746493
  13.7601673  59.8274913  54.3296493  13.2341673  58.6934913  53.7666493
  13.8211673  59.2064913  53.8556493  13.8551673  60.1244913  46.7456493
  13.0221673  60.3744913  46.6736493  13.7991673  59.2844913  46.9746493
  13.7241673  60.0374913  46.7686493   3.1151673  57.1124913  51.9396493
   3.3491673  56.5364913  51.3266493   2.2731673  56.9314913  52.0806493
   3.0251673  57.0004913  51.8696493  10.7421673  64.7304913  54.3916493
  11.6131673  64.6944913  54.3556493  10.5231673  65.1504913  53.6596493
  10.8391673  64.7864913  54.2786493   6.0971673  66.6744913  38.0556493
   6.8141673  66.3274913  37.6996493   6.0631673  67.4744913  37.7076493
   6.1981673  66.7414913  37.9516493   7.5061673  55.3154913  22.2944083
   7.2611673  55.8034913  21.6144083   8.3691673  55.2424913  22.1944083
   7.5971673  55.3764913  22.1794083   7.3151673  62.2314913  26.9654083
   6.7911673  62.8274913  27.3284083   7.7121673  61.8634913  27.6494083
   7.2961673  62.2654913  27.1204083  13.4591673  69.6724913  19.9364083
  14.1601673  69.1534913  19.9324083  12.8721673  69.2274913  19.4674083
  13.4761673  69.5294913  19.8664083   9.9861673  63.2984913  23.6414083
  10.0661673  63.3024913  22.7724083   9.4021673  62.6664913  23.7904083
   9.9111673  63.2054913  23.5354083   3.9751673  56.4024913  21.4494083
   3.9051673  57.0794913  20.9034083   4.7161673  56.0144913  21.2004083
   4.0741673  56.4454913  21.3314083   3.6981673  66.6314913  33.7434083
   3.4621673  66.6284913  34.5834083   2.9501673  66.4834913  33.3194083
   3.5521673  66.6084913  33.8044083   3.0781673  59.2374913  28.2254083
   3.7561673  59.2554913  27.6764083   3.0331673  58.4014913  28.4704083
   3.1711673  59.1164913  28.1804083   4.7751673  67.7084913  25.5114083
   5.1231673  66.9094913  25.5414083   5.4401673  68.2124913  25.2564083
   4.9251673  67.6644913  25.4784083   4.8321673  67.1574913  21.7224083
   5.1631673  66.5134913  22.2084083   5.0721673  66.9464913  20.9114083
   4.9161673  67.0314913  21.6744083   6.8001673  61.2884913  33.0614083
   5.9521673  61.1894913  32.8834083   6.8291673  62.0334913  33.5154083
   6.6791673  61.3844913  33.1024083  11.3581673  54.2484913  32.1754083
  11.2001673  55.0174913  31.7934083  10.5861673  54.0284913  32.5194083
  11.2201673  54.3294913  32.1704083   4.1471673  55.9634913  24.3904083
   4.2201673  56.8234913  24.5194083   4.1091673  55.8884913  23.5224083
   4.1521673  56.0794913  24.2814083   8.8201673  58.8894913  16.6894083
   8.3701673  59.5704913  16.9964083   8.9341673  58.3854913  17.3924083
   8.7711673  58.9154913  16.8384083   2.7761673  68.9424913  21.2714083
   2.1971673  68.6674913  21.8634083   3.4001673  68.3334913  21.2964083
   2.7831673  68.8124913  21.3624083   3.3611673  58.3384913  35.6804083
   3.4781673  57.8844913  34.9444083   3.6491673  59.1364913  35.4774083
   3.4211673  58.3894913  35.5414083  14.2141673  58.8624913  22.9844083
  13.8681673  59.5404913  23.4104083  13.5781673  58.2644913  23.0004083
  14.0691673  58.8744913  23.0494083   5.7431673  55.5784913  33.8324083
   5.9211673  54.7694913  33.5574083   5.6001673  56.0194913  33.0934083
   5.7481673  55.5244913  33.6824083   6.3371673  60.5044913  22.6054083
   6.6241673  60.2724913  21.8154083   7.0691673  60.5834913  23.0744083
   6.4871673  60.4814913  22.5584083   7.0591673  60.8434913  17.7264083
   7.3401673  61.6314913  17.9754083   6.2831673  61.0084913  17.3634083
   6.9861673  60.9844913  17.7094083  13.8891673  57.1854913  28.3534083
  14.6461673  57.2574913  27.9254083  13.9521673  56.4124913  28.7524083
  14.0101673  57.0824913  28.3484083   8.7801673  68.8174913  32.7924083
   8.7461673  69.1994913  33.5764083   9.6341673  68.7754913  32.6214083
   8.9011673  68.8674913  32.8834083   5.9181673  69.0144913  17.5424083
   5.7371673  69.5594913  18.1994083   6.6841673  69.3044913  17.2414083
   6.0041673  69.1384913  17.5954083   9.4251673  56.9104913  18.5964083
   9.9651673  56.2284913  18.6724083   9.4871673  57.3084913  19.3704083
   9.5141673  56.8684913  18.7224083   6.6831673  59.2864913  19.9104083
   6.1751673  58.6244913  19.6564083   6.7351673  59.7904913  19.2004083
   6.6161673  59.2634913  19.7684083   6.6831673  56.2274913  19.8014083
   6.2281673  55.8254913  19.1754083   7.4561673  56.3824913  19.4264083
   6.7301673  56.1914913  19.6534083   5.2811673  58.5944913  24.3234083
   5.3551673  59.1624913  23.6654083   5.4021673  59.0864913  25.0334083
   5.3091673  58.7514913  24.3314083  10.5061673  68.4294913  22.7354083
  11.2071673  67.9474913  22.9244083   9.8461673  67.8604913  22.7804083
  10.5121673  68.2744913  22.7694083   2.8451673  64.8504913  26.6964083
   3.0171673  64.6404913  27.5254083   2.1901673  64.3164913  26.4804083
   2.7741673  64.7404913  26.7874083   9.0731673  58.7644913  30.2114083
   8.9781673  59.0834913  31.0174083   8.4801673  58.1254913  30.1734083
   8.9711673  58.7164913  30.3254083   3.5951673  64.7884913  29.2864083
   3.6481673  65.6354913  29.4884083   3.3101673  64.4184913  30.0234083
   3.5611673  64.8584913  29.4244083   9.7721673  65.4834913  28.4164083
   9.2581673  65.0714913  28.9874083   9.6461673  66.3274913  28.5974083
   9.6781673  65.5474913  28.5274083  10.3291673  54.7084913  23.0474083
  10.3781673  54.3904913  23.8584083  10.6521673  54.0644913  22.5544083
  10.3841673  54.5664913  23.0944083  12.7931673  58.9444913  31.3554083
  13.5651673  58.7194913  31.6924083  12.3181673  59.1614913  32.0554083
  12.8371673  58.9434913  31.5084083  13.0251673  65.9224913  18.5434083
  13.1441673  65.6354913  19.3584083  13.8321673  65.9434913  18.2134083
  13.1611673  65.8834913  18.6154083  10.9201673  62.4594913  18.1284083
  10.7001673  63.1904913  17.7064083  10.4721673  62.5104913  18.8754083
  10.8211673  62.5744913  18.1764083   2.5291673  65.6614913  22.1094083
   3.2421673  66.1564913  22.1994083   2.7511673  65.0944913  21.4834083
   2.6671673  65.6504913  22.0304083  15.1071673  57.3204913  17.5814083
  14.4451673  56.7524913  17.6044083  14.9141673  57.8324913  16.9014083
  14.9811673  57.3124913  17.4844083   4.3321673  61.0144913  35.5254083
   3.8481673  61.5914913  35.9674083   4.3041673  61.3094913  34.7044083
   4.2561673  61.1434913  35.4694083  15.4301673  61.6984913  30.1374083
  15.6451673  60.8984913  29.8614083  14.5801673  61.7584913  29.9484083
  15.3361673  61.5894913  30.0684083  13.1091673  56.8784913  19.8604083
  13.8551673  56.4714913  20.0594083  13.3721673  57.5934913  19.4354083
  13.2581673  56.9244913  19.8274083   7.0521673  69.3644913  24.4364083
   6.5291673  69.9984913  24.1434083   7.3621673  69.0004913  23.7074083
   7.0201673  69.4044913  24.2854083   9.5631673  59.1664913  24.9334083
   9.9071673  59.3184913  25.7204083   9.1101673  58.4284913  25.0464083
   9.5471673  59.0794913  25.0664083   4.0391673  58.3864913  19.3904083
   4.0371673  58.2694913  18.5254083   3.8581673  59.2344913  19.4824083
   4.0121673  58.4944913  19.2764083   1.7771673  68.3384913  24.0224083
   1.9031673  69.1814913  24.2094083   2.4451673  67.9394913  24.4184083
   1.8951673  68.4044913  24.1084083  10.8841673  60.4984913  27.4874083
  10.2221673  60.8264913  27.9504083  11.0711673  61.1324913  26.9184083
  10.8141673  60.6404913  27.4714083   7.5291673  56.4044913  30.9164083
   7.6781673  55.5794913  30.6734083   7.9081673  56.4594913  31.7004083
   7.6071673  56.2904913  30.9964083   9.0771673  58.4674913  20.9984083
   9.5671673  59.1844913  20.9214083   8.2871673  58.7284913  20.7354083
   9.0331673  58.6114913  20.9484083  10.3911673  66.3454913  32.9084083
  10.8751673  67.0634913  33.0064083  10.7851673  65.9184913  32.2574083
  10.5211673  66.3884913  32.8264083   4.6871673  69.1904913  34.0854083
   5.0411673  69.0124913  34.8624083   4.2511673  68.4614913  33.8864083
   4.6751673  69.0564913  34.1714083   5.6591673  59.9374913  26.7234083
   6.1391673  60.6364913  26.9314083   6.0321673  59.2904913  27.1744083
   5.7851673  59.9454913  26.8204083   7.8481673  63.1064913  18.9974083
   7.8401673  63.8284913  18.5074083   7.2091673  63.2414913  19.5744083
   7.7531673  63.2334913  19.0104083  12.8201673  66.9764913  22.9784083
  13.1761673  66.6264913  23.6934083  12.8121673  66.3154913  22.4084083
  12.8721673  66.8264913  22.9994083   8.8651673  70.0424913  26.8224083
   8.2621673  69.7464913  26.2654083   9.4101673  70.4944913  26.3134083
   8.8561673  70.0654913  26.6644083   8.8781673  66.8934913  26.2224083
   8.0811673  67.1174913  26.4964083   9.1361673  66.2994913  26.8074083
   8.7981673  66.8384913  26.3494083  12.1381673  64.8914913  31.0684083
  12.1931673  65.0164913  30.2064083  12.8911673  65.2114913  31.3704083
  12.2571673  64.9564913  30.9854083  13.1701673  55.1894913  34.0554083
  12.5331673  54.7894913  33.6134083  13.1961673  54.7584913  34.8134083
  13.0801673  55.0674913  34.1014083   7.8691673  64.6974913  30.6684083
   7.7141673  65.3074913  31.2724083   8.4031673  64.1394913  31.0744083
   7.9251673  64.7054913  30.8174083   6.2531673  63.0974913  21.3264083
   6.3121673  63.7474913  21.9054083   6.0641673  62.4014913  21.8174083
   6.2341673  63.0904913  21.4844083  11.4791673  67.4264913  27.1954083
  11.0001673  67.7244913  26.5294083  11.1231673  66.6504913  27.3734083
  11.3561673  67.3554913  27.1234083   5.4761673  65.1444913  25.7574083
   4.6291673  64.9504913  25.8384083   5.8001673  64.9794913  26.5504083
   5.3981673  65.0914913  25.8864083   2.5541673  60.0084913  24.8084083
   3.4001673  59.8184913  24.9064083   2.1841673  59.2314913  24.6704083
   2.6241673  59.8654913  24.8024083  12.4101673  64.3684913  28.3144083
  12.4031673  63.5924913  28.7124083  11.5691673  64.6024913  28.3074083
  12.2851673  64.2884913  28.3724083  13.6661673  64.4394913  25.7514083
  13.3801673  64.8404913  26.4714083  14.5261673  64.3774913  25.8784083
  13.7511673  64.4894913  25.8764083   3.3551673  61.2414913  19.6594083
   3.6271673  62.0674913  19.7264083   2.4921673  61.3164913  19.5634083
   3.2681673  61.3744913  19.6544083  11.3281673  58.3634913  34.2914083
  10.8031673  58.8224913  34.8154083  10.9671673  57.5684913  34.2854083
  11.1971673  58.3134913  34.3674083  14.7971673  70.0724913  26.2804083
  15.0871673  70.3294913  25.4994083  15.4921673  70.1684913  26.7994083
  14.9431673  70.1244913  26.2414083   9.8201673  61.9324913  34.3674083
   9.8931673  62.0364913  35.2304083   9.1861673  62.4904913  34.1464083
   9.7371673  62.0304913  34.4624083  12.0881673  62.2514913  32.7324083
  12.4071673  63.0374913  32.9354083  11.7181673  61.9814913  33.4754083
  12.0811673  62.3274913  32.8724083  11.4021673  68.6754913  18.2624083
  11.7361673  67.8694913  18.2974083  10.6471673  68.6034913  18.6924083
  11.3401673  68.5454913  18.3314083  11.8841673  60.5094913  23.9214083
  11.1391673  60.1864913  24.2394083  11.8861673  61.3354913  24.2014083
  11.7741673  60.5834913  24.0094083  14.7861673  62.7934913  35.4674083
  14.7341673  62.4524913  34.6664083  15.5231673  63.2604913  35.4454083
  14.8871673  62.8124913  35.3454083  14.3241673  66.4694913  31.6734083
  14.9521673  65.9204913  31.4174083  14.2631673  67.0344913  31.0114083
  14.4081673  66.4724913  31.5374083   8.7761673  66.5504913  17.6654083
   9.4601673  66.0364913  17.4964083   8.3591673  66.5964913  16.9004083
   8.8151673  66.4814913  17.5274083   3.4581673  67.7004913  28.9694083
   3.1601673  68.2924913  29.5364083   3.5131673  68.1424913  28.2204083
   3.4221673  67.8534913  28.9424083  10.7961673  56.8394913  31.3824083
  11.5401673  57.2914913  31.3194083  10.2301673  57.3094913  30.9134083
  10.8231673  56.9764913  31.3044083   5.9741673  64.1234913  28.4604083
   6.4501673  64.4974913  29.0884083   5.1511673  64.2574913  28.7194083
   5.9231673  64.1984913  28.5914083   2.6841673  59.7264913  31.2014083
   2.8451673  58.9824913  31.6284083   2.6391673  59.4774913  30.3664083
   2.7011673  59.5794913  31.1414083  12.0811673  54.8194913  29.0524083
  11.8011673  55.6444913  29.0084083  12.7971673  54.8724913  29.5484083
  12.1461673  54.9494913  29.1194083   4.4361673  55.5344913  31.0814083
   5.1411673  55.8544913  30.6794083   4.6771673  54.7274913  31.3084083
   4.5751673  55.4624913  31.0554083   3.4211673  69.7444913  27.0774083
   2.7971673  70.3264913  26.8954083   3.6691673  69.4584913  26.2914083
   3.3651673  69.7884913  26.9344083   7.7301673  66.3784913  34.0664083
   8.4871673  66.6644913  33.7404083   7.1831673  66.4304913  33.3884083
   7.7611673  66.4284913  33.9174083  11.6391673  68.9284913  32.5704083
  11.9851673  69.1984913  33.3244083  11.9331673  69.5104913  31.9904083
  11.7341673  69.0544913  32.5964083  13.5021673  61.0744913  17.9094083
  13.8801673  61.7514913  17.5094083  12.6601673  61.2984913  17.9404083
  13.4331673  61.2074913  17.8544083   5.0151673  64.5204913  16.9924083
   4.2101673  64.3434913  16.7074083   4.9821673  65.3714913  17.1844083
   4.8911673  64.6194913  16.9794083   8.9611673  59.6894913  32.7344083
   8.3131673  60.1594913  33.0824083   9.5261673  59.6004913  33.3934083
   8.9491673  59.7454913  32.8834083   8.6491673  61.2264913  29.0324083
   8.9511673  61.6464913  29.7354083   8.6851673  60.3864913  29.2644083
   8.6991673  61.1644913  29.1704083  11.1971673  60.6734913  21.2844083
  11.4041673  60.4724913  22.1084083  11.9531673  60.9414913  20.9424083
  11.3391673  60.6834913  21.3554083   4.4921673  55.5724913  27.1894083
   3.6661673  55.4234913  27.4264083   4.4521673  55.6074913  26.3184083
   4.3641673  55.5554913  27.0954083  12.2191673  56.7564913  22.7584083
  11.5051673  56.2854913  22.9294083  12.0571673  57.0974913  21.9724083
  12.0901673  56.7374913  22.6674083  12.6621673  64.7004913  21.1384083
  13.1381673  63.9714913  21.0904083  11.8411673  64.4144913  21.0624083
  12.6111673  64.5504913  21.1194083   6.1331673  66.6124913  31.9774083
   5.3381673  66.5484913  32.3284083   6.2041673  67.4594913  31.7824083
   6.0261673  66.7274913  32.0004083   8.8781673  65.8674913  23.4934083
   8.9541673  66.2084913  24.2924083   9.0471673  65.0204913  23.6144083
   8.9141673  65.7924913  23.6294083   6.4001673  65.1414913  23.0584083
   6.1021673  64.8264913  23.8154083   7.0951673  65.6144913  23.2934083
   6.4591673  65.1644913  23.2054083   6.6221673  69.2594913  31.0854083
   7.3091673  69.1454913  31.6104083   6.7561673  70.0504913  30.7414083
   6.7431673  69.3594913  31.1124083  14.7981673  61.8684913  32.8964083
  13.9431673  61.7464913  33.0224083  14.9511673  61.4734913  32.1334083
  14.6941673  61.7914913  32.8024083   9.3111673  62.5334913  31.4724083
   9.0561673  61.8144913  31.8944083  10.1321673  62.6494913  31.7424083
   9.3951673  62.4444913  31.5744083   7.2451673  63.7234913  34.6594083
   7.5681673  64.4094913  34.2274083   6.5411673  64.0464913  35.0614083
   7.1881673  63.8724913  34.6544083   7.0301673  67.1874913  28.5184083
   6.3361673  67.5894913  28.8614083   7.7071673  67.6204913  28.8574083
   7.0271673  67.3104913  28.6194083  12.4071673  69.7804913  35.0984083
  13.1831673  69.3904913  35.1814083  11.9381673  69.4444913  35.7534083
  12.4521673  69.6734913  35.2074083  13.4321673  61.8134913  20.5804083
  13.5351673  61.7554913  19.7164083  14.1731673  61.4814913  20.8984083
  13.5571673  61.7564913  20.4994083   7.3521673  68.7784913  21.6874083
   7.1471673  69.6114913  21.5284083   6.5771673  68.3964913  21.8094083
   7.2071673  68.8454913  21.6824083  12.5341673  61.9594913  29.9364083
  12.5321673  61.0964913  30.0604083  12.6011673  62.2834913  30.7434083
  12.5441673  61.8794913  30.0734083   8.4131673  56.7594913  33.7184083
   8.5051673  57.4714913  34.2124083   7.7761673  56.3144913  34.1154083
   8.3321673  56.7984913  33.8504083   7.4071673  56.9494913  24.5724083
   6.7071673  57.4674913  24.5164083   7.4451673  56.5694913  23.7884083
   7.3091673  56.9704913  24.4484083   2.7141673  69.0404913  18.0964083
   3.1551673  69.1204913  18.8444083   1.9091673  68.8244913  18.3544083
   2.6601673  69.0204913  18.2454083  11.0051673  57.4654913  27.3724083
  11.8601673  57.5644913  27.5174083  10.6361673  58.0184913  27.9374083
  11.0771673  57.5624913  27.4774083  11.3091673  62.7454913  25.8634083
  11.9751673  63.2864913  26.0234083  10.9641673  63.0564913  25.1244083
  11.3561673  62.8714913  25.7784083   2.8621673  66.3554913  17.4404083
   2.0441673  66.0874913  17.5804083   2.8341673  67.2074913  17.6254083
   2.7371673  66.4424913  17.4884083  14.4801673  55.3034913  30.5284083
  14.4281673  55.2594913  31.3984083  15.1671673  54.8004913  30.3384083
  14.5741673  55.2234913  30.6284083   6.5651673  57.4164913  27.5734083
   5.8281673  56.9624913  27.6864083   7.1361673  57.0144913  28.0964083
   6.5401673  57.2894913  27.6674083   9.2971673  68.2644913  29.3614083
   9.5031673  68.5654913  30.1534083   9.2361673  68.9864913  28.8764083
   9.3181673  68.4154913  29.4064083   4.0681673  61.7454913  32.7774083
   3.7461673  61.1694913  32.2074083   3.7091673  62.5004913  32.5314083
   3.9681673  61.7714913  32.6574083   4.8641673  54.9974913  17.4044083
   4.9421673  55.2444913  16.5714083   4.1211673  55.3744913  17.6624083
   4.7661673  55.0894913  17.3194083  14.1091673  66.9034913  28.8194083
  14.0771673  66.0414913  28.6844083  13.4161673  67.2054913  28.3854083
  14.0021673  66.8204913  28.7354083  12.2141673  70.1634913  27.6164083
  12.7411673  70.0804913  26.9254083  11.8231673  69.3854913  27.6704083
  12.2341673  70.0364913  27.5224083   8.7281673  55.6074913  26.8244083
   9.3981673  56.1514913  26.9514083   8.2251673  56.0314913  26.2514083
   8.7531673  55.7504913  26.7584083   8.0871673  61.4154913  24.3174083
   8.6381673  60.8084913  24.6174083   7.6621673  61.6784913  25.0324083
   8.1061673  61.3644913  24.4664083  10.0571673  63.2464913  20.8794083
  10.1251673  62.3964913  21.0604083   9.2341673  63.3324913  20.6014083
   9.9451673  63.1334913  20.8654083   3.9761673  64.1374913  19.8174083
   4.0761673  64.2764913  18.9624083   4.7941673  64.0774913  20.1134083
   4.1111673  64.1484913  19.7344083  13.3311673  64.6194913  34.0304083
  13.9651673  64.4494913  34.6044083  13.7481673  65.0224913  33.3784083
  13.4861673  64.6544913  34.0194083   9.2111673  68.4664913  19.6194083
   8.9601673  68.3384913  20.4454083   8.8941673  67.7714913  19.1984083
   9.1271673  68.3454913  19.6794083  13.9561673  59.1834913  34.7684083
  13.7601673  59.8274913  35.3234083  13.2341673  58.6934913  34.7604083
  13.8211673  59.2064913  34.8494083  13.8551673  60.1244913  27.7394083
  13.0221673  60.3744913  27.6674083  13.7991673  59.2844913  27.9684083
  13.7241673  60.0374913  27.7624083   3.1151673  57.1124913  32.9334083
   3.3491673  56.5364913  32.3204083   2.2731673  56.9314913  33.0744083
   3.0251673  57.0004913  32.8634083  10.7421673  64.7304913  35.3854083
  11.6131673  64.6944913  35.3494083  10.5231673  65.1504913  34.6534083
  10.8391673  64.7864913  35.2724083   6.0971673  66.6744913  19.0494083
   6.8141673  66.3274913  18.6934083   6.0631673  67.4744913  18.7014083
   6.1981673  66.7414913  18.9454083   7.5061673  55.3154913   3.2881673
   7.2611673  55.8034913   2.6081673   8.3691673  55.2424913   3.1881673
   7.5971673  55.3764913   3.1731673   7.3151673  62.2314913   7.9591673
   6.7911673  62.8274913   8.3221673   7.7121673  61.8634913   8.6431673
   7.2961673  62.2654913   8.1141673   9.9861673  63.2984913   4.6351673
  10.0661673  63.3024913   3.7661673   9.4021673  62.6664913   4.7841673
   9.9111673  63.2054913   4.5291673   3.9751673  56.4024913   2.4431673
   3.9051673  57.0794913   1.8971673   4.7161673  56.0144913   2.1941673
   4.0741673  56.4454913   2.3251673   3.6981673  66.6314913  14.7371673
   3.4621673  66.6284913  15.5771673   2.9501673  66.4834913  14.3131673
   3.5521673  66.6084913  14.7981673   3.0781673  59.2374913   9.2191673
   3.7561673  59.2554913   8.6701673   3.0331673  58.4014913   9.4641673
   3.1711673  59.1164913   9.1741673   4.7751673  67.7084913   6.5051673
   5.1231673  66.9094913   6.5351673   5.4401673  68.2124913   6.2501673
   4.9251673  67.6644913   6.4721673   4.8321673  67.1574913   2.7161673
   5.1631673  66.5134913   3.2021673   5.0721673  66.9464913   1.9051673
   4.9161673  67.0314913   2.6681673   6.8001673  61.2884913  14.0551673
   5.9521673  61.1894913  13.8771673   6.8291673  62.0334913  14.5091673
   6.6791673  61.3844913  14.0961673  11.3581673  54.2484913  13.1691673
  11.2001673  55.0174913  12.7871673  10.5861673  54.0284913  13.5131673
  11.2201673  54.3294913  13.1641673   4.1471673  55.9634913   5.3841673
   4.2201673  56.8234913   5.5131673   4.1091673  55.8884913   4.5161673
   4.1521673  56.0794913   5.2751673   2.7761673  68.9424913   2.2651673
   2.1971673  68.6674913   2.8571673   3.4001673  68.3334913   2.2901673
   2.7831673  68.8124913   2.3561673   3.3611673  58.3384913  16.6741673
   3.4781673  57.8844913  15.9381673   3.6491673  59.1364913  16.4711673
   3.4211673  58.3894913  16.5351673  14.2141673  58.8624913   3.9781673
  13.8681673  59.5404913   4.4041673  13.5781673  58.2644913   3.9941673
  14.0691673  58.8744913   4.0431673   5.7431673  55.5784913  14.8261673
   5.9211673  54.7694913  14.5511673   5.6001673  56.0194913  14.0871673
   5.7481673  55.5244913  14.6761673   6.3371673  60.5044913   3.5991673
   6.6241673  60.2724913   2.8091673   7.0691673  60.5834913   4.0681673
   6.4871673  60.4814913   3.5521673  13.8891673  57.1854913   9.3471673
  14.6461673  57.2574913   8.9191673  13.9521673  56.4124913   9.7461673
  14.0101673  57.0824913   9.3421673   8.7801673  68.8174913  13.7861673
   8.7461673  69.1994913  14.5701673   9.6341673  68.7754913  13.6151673
   8.9011673  68.8674913  13.8771673   5.2811673  58.5944913   5.3171673
   5.3551673  59.1624913   4.6591673   5.4021673  59.0864913   6.0271673
   5.3091673  58.7514913   5.3251673  10.5061673  68.4294913   3.7291673
  11.2071673  67.9474913   3.9181673   9.8461673  67.8604913   3.7741673
  10.5121673  68.2744913   3.7631673   2.8451673  64.8504913   7.6901673
   3.0171673  64.6404913   8.5191673   2.1901673  64.3164913   7.4741673
   2.7741673  64.7404913   7.7811673   9.0731673  58.7644913  11.2051673
   8.9781673  59.0834913  12.0111673   8.4801673  58.1254913  11.1671673
   8.9711673  58.7164913  11.3191673   3.5951673  64.7884913  10.2801673
   3.6481673  65.6354913  10.4821673   3.3101673  64.4184913  11.0171673
   3.5611673  64.8584913  10.4181673   9.7721673  65.4834913   9.4101673
   9.2581673  65.0714913   9.9811673   9.6461673  66.3274913   9.5911673
   9.6781673  65.5474913   9.5211673  10.3291673  54.7084913   4.0411673
  10.3781673  54.3904913   4.8521673  10.6521673  54.0644913   3.5481673
  10.3841673  54.5664913   4.0881673  12.7931673  58.9444913  12.3491673
  13.5651673  58.7194913  12.6861673  12.3181673  59.1614913  13.0491673
  12.8371673  58.9434913  12.5021673   2.5291673  65.6614913   3.1031673
   3.2421673  66.1564913   3.1931673   2.7511673  65.0944913   2.4771673
   2.6671673  65.6504913   3.0241673   4.3321673  61.0144913  16.5191673
   3.8481673  61.5914913  16.9611673   4.3041673  61.3094913  15.6981673
   4.2561673  61.1434913  16.4631673  15.4301673  61.6984913  11.1311673
  15.6451673  60.8984913  10.8551673  14.5801673  61.7584913  10.9421673
  15.3361673  61.5894913  11.0621673   7.0521673  69.3644913   5.4301673
   6.5291673  69.9984913   5.1371673   7.3621673  69.0004913   4.7011673
   7.0201673  69.4044913   5.2791673   9.5631673  59.1664913   5.9271673
   9.9071673  59.3184913   6.7141673   9.1101673  58.4284913   6.0401673
   9.5471673  59.0794913   6.0601673   1.7771673  68.3384913   5.0161673
   1.9031673  69.1814913   5.2031673   2.4451673  67.9394913   5.4121673
   1.8951673  68.4044913   5.1021673  10.8841673  60.4984913   8.4811673
  10.2221673  60.8264913   8.9441673  11.0711673  61.1324913   7.9121673
  10.8141673  60.6404913   8.4651673   7.5291673  56.4044913  11.9101673
   7.6781673  55.5794913  11.6671673   7.9081673  56.4594913  12.6941673
   7.6071673  56.2904913  11.9901673   9.0771673  58.4674913   1.9921673
   9.5671673  59.1844913   1.9151673   8.2871673  58.7284913   1.7291673
   9.0331673  58.6114913   1.9421673  10.3911673  66.3454913  13.9021673
  10.8751673  67.0634913  14.0001673  10.7851673  65.9184913  13.2511673
  10.5211673  66.3884913  13.8201673   4.6871673  69.1904913  15.0791673
   5.0411673  69.0124913  15.8561673   4.2511673  68.4614913  14.8801673
   4.6751673  69.0564913  15.1651673   5.6591673  59.9374913   7.7171673
   6.1391673  60.6364913   7.9251673   6.0321673  59.2904913   8.1681673
   5.7851673  59.9454913   7.8141673  12.8201673  66.9764913   3.9721673
  13.1761673  66.6264913   4.6871673  12.8121673  66.3154913   3.4021673
  12.8721673  66.8264913   3.9931673   8.8651673  70.0424913   7.8161673
   8.2621673  69.7464913   7.2591673   9.4101673  70.4944913   7.3071673
   8.8561673  70.0654913   7.6581673   8.8781673  66.8934913   7.2161673
   8.0811673  67.1174913   7.4901673   9.1361673  66.2994913   7.8011673
   8.7981673  66.8384913   7.3431673  12.1381673  64.8914913  12.0621673
  12.1931673  65.0164913  11.2001673  12.8911673  65.2114913  12.3641673
  12.2571673  64.9564913  11.9791673  13.1701673  55.1894913  15.0491673
  12.5331673  54.7894913  14.6071673  13.1961673  54.7584913  15.8071673
  13.0801673  55.0674913  15.0951673   7.8691673  64.6974913  11.6621673
   7.7141673  65.3074913  12.2661673   8.4031673  64.1394913  12.0681673
   7.9251673  64.7054913  11.8111673   6.2531673  63.0974913   2.3201673
   6.3121673  63.7474913   2.8991673   6.0641673  62.4014913   2.8111673
   6.2341673  63.0904913   2.4781673  11.4791673  67.4264913   8.1891673
  11.0001673  67.7244913   7.5231673  11.1231673  66.6504913   8.3671673
  11.3561673  67.3554913   8.1171673   5.4761673  65.1444913   6.7511673
   4.6291673  64.9504913   6.8321673   5.8001673  64.9794913   7.5441673
   5.3981673  65.0914913   6.8801673   2.5541673  60.0084913   5.8021673
   3.4001673  59.8184913   5.9001673   2.1841673  59.2314913   5.6641673
   2.6241673  59.8654913   5.7961673  12.4101673  64.3684913   9.3081673
  12.4031673  63.5924913   9.7061673  11.5691673  64.6024913   9.3011673
  12.2851673  64.2884913   9.3661673  13.6661673  64.4394913   6.7451673
  13.3801673  64.8404913   7.4651673  14.5261673  64.3774913   6.8721673
  13.7511673  64.4894913   6.8701673  11.3281673  58.3634913  15.2851673
  10.8031673  58.8224913  15.8091673  10.9671673  57.5684913  15.2791673
  11.1971673  58.3134913  15.3611673  14.7971673  70.0724913   7.2741673
  15.0871673  70.3294913   6.4931673  15.4921673  70.1684913   7.7931673
  14.9431673  70.1244913   7.2351673   9.8201673  61.9324913  15.3611673
   9.8931673  62.0364913  16.2241673   9.1861673  62.4904913  15.1401673
   9.7371673  62.0304913  15.4561673  12.0881673  62.2514913  13.7261673
  12.4071673  63.0374913  13.9291673  11.7181673  61.9814913  14.4691673
  12.0811673  62.3274913  13.8661673  11.8841673  60.5094913   4.9151673
  11.1391673  60.1864913   5.2331673  11.8861673  61.3354913   5.1951673
  11.7741673  60.5834913   5.0031673  14.7861673  62.7934913  16.4611673
  14.7341673  62.4524913  15.6601673  15.5231673  63.2604913  16.4391673
  14.8871673  62.8124913  16.3391673  14.3241673  66.4694913  12.6671673
  14.9521673  65.9204913  12.4111673  14.2631673  67.0344913  12.0051673
  14.4081673  66.4724913  12.5311673   3.4581673  67.7004913   9.9631673
   3.1601673  68.2924913  10.5301673   3.5131673  68.1424913   9.2141673
   3.4221673  67.8534913   9.9361673  10.7961673  56.8394913  12.3761673
  11.5401673  57.2914913  12.3131673  10.2301673  57.3094913  11.9071673
  10.8231673  56.9764913  12.2981673   5.9741673  64.1234913   9.4541673
   6.4501673  64.4974913  10.0821673   5.1511673  64.2574913   9.7131673
   5.9231673  64.1984913   9.5851673   2.6841673  59.7264913  12.1951673
   2.8451673  58.9824913  12.6221673   2.6391673  59.4774913  11.3601673
   2.7011673  59.5794913  12.1351673  12.0811673  54.8194913  10.0461673
  11.8011673  55.6444913  10.0021673  12.7971673  54.8724913  10.5421673
  12.1461673  54.9494913  10.1131673   4.4361673  55.5344913  12.0751673
   5.1411673  55.8544913  11.6731673   4.6771673  54.7274913  12.3021673
   4.5751673  55.4624913  12.0491673   3.4211673  69.7444913   8.0711673
   2.7971673  70.3264913   7.8891673   3.6691673  69.4584913   7.2851673
   3.3651673  69.7884913   7.9281673   7.7301673  66.3784913  15.0601673
   8.4871673  66.6644913  14.7341673   7.1831673  66.4304913  14.3821673
   7.7611673  66.4284913  14.9111673  11.6391673  68.9284913  13.5641673
  11.9851673  69.1984913  14.3181673  11.9331673  69.5104913  12.9841673
  11.7341673  69.0544913  13.5901673   8.9611673  59.6894913  13.7281673
   8.3131673  60.1594913  14.0761673   9.5261673  59.6004913  14.3871673
   8.9491673  59.7454913  13.8771673   8.6491673  61.2264913  10.0261673
   8.9511673  61.6464913  10.7291673   8.6851673  60.3864913  10.2581673
   8.6991673  61.1644913  10.1641673  11.1971673  60.6734913   2.2781673
  11.4041673  60.4724913   3.1021673  11.9531673  60.9414913   1.9361673
  11.3391673  60.6834913   2.3491673   4.4921673  55.5724913   8.1831673
   3.6661673  55.4234913   8.4201673   4.4521673  55.6074913   7.3121673
   4.3641673  55.5554913   8.0891673  12.2191673  56.7564913   3.7521673
  11.5051673  56.2854913   3.9231673  12.0571673  57.0974913   2.9661673
  12.0901673  56.7374913   3.6611673  12.6621673  64.7004913   2.1321673
  13.1381673  63.9714913   2.0841673  11.8411673  64.4144913   2.0561673
  12.6111673  64.5504913   2.1131673   6.1331673  66.6124913  12.9711673
   5.3381673  66.5484913  13.3221673   6.2041673  67.4594913  12.7761673
   6.0261673  66.7274913  12.9941673   8.8781673  65.8674913   4.4871673
   8.9541673  66.2084913   5.2861673   9.0471673  65.0204913   4.6081673
   8.9141673  65.7924913   4.6231673   6.4001673  65.1414913   4.0521673
   6.1021673  64.8264913   4.8091673   7.0951673  65.6144913   4.2871673
   6.4591673  65.1644913   4.1991673   6.6221673  69.2594913  12.0791673
   7.3091673  69.1454913  12.6041673   6.7561673  70.0504913  11.7351673
   6.7431673  69.3594913  12.1061673  14.7981673  61.8684913  13.8901673
  13.9431673  61.7464913  14.0161673  14.9511673  61.4734913  13.1271673
  14.6941673  61.7914913  13.7961673   9.3111673  62.5334913  12.4661673
   9.0561673  61.8144913  12.8881673  10.1321673  62.6494913  12.7361673
   9.3951673  62.4444913  12.5681673   7.2451673  63.7234913  15.6531673
   7.5681673  64.4094913  15.2211673   6.5411673  64.0464913  16.0551673
   7.1881673  63.8724913  15.6481673   7.0301673  67.1874913   9.5121673
   6.3361673  67.5894913   9.8551673   7.7071673  67.6204913   9.8511673
   7.0271673  67.3104913   9.6131673  12.4071673  69.7804913  16.0921673
  13.1831673  69.3904913  16.1751673  11.9381673  69.4444913  16.7471673
  12.4521673  69.6734913  16.2011673   7.3521673  68.7784913   2.6811673
   7.1471673  69.6114913   2.5221673   6.5771673  68.3964913   2.8031673
   7.2071673  68.8454913   2.6761673  12.5341673  61.9594913  10.9301673
  12.5321673  61.0964913  11.0541673  12.6011673  62.2834913  11.7371673
  12.5441673  61.8794913  11.0671673   8.4131673  56.7594913  14.7121673
   8.5051673  57.4714913  15.2061673   7.7761673  56.3144913  15.1091673
   8.3321673  56.7984913  14.8441673   7.4071673  56.9494913   5.5661673
   6.7071673  57.4674913   5.5101673   7.4451673  56.5694913   4.7821673
   7.3091673  56.9704913   5.4421673  11.0051673  57.4654913   8.3661673
  11.8601673  57.5644913   8.5111673  10.6361673  58.0184913   8.9311673
  11.0771673  57.5624913   8.4711673  11.3091673  62.7454913   6.8571673
  11.9751673  63.2864913   7.0171673  10.9641673  63.0564913   6.1181673
  11.3561673  62.8714913   6.7721673  14.4801673  55.3034913  11.5221673
  14.4281673  55.2594913  12.3921673  15.1671673  54.8004913  11.3321673
  14.5741673  55.2234913  11.6221673   6.5651673  57.4164913   8.5671673
   5.8281673  56.9624913   8.6801673   7.1361673  57.0144913   9.0901673
   6.5401673  57.2894913   8.6611673   9.2971673  68.2644913  10.3551673
   9.5031673  68.5654913  11.1471673   9.2361673  68.9864913   9.8701673
   9.3181673  68.4154913  10.4001673   4.0681673  61.7454913  13.7711673
   3.7461673  61.1694913  13.2011673   3.7091673  62.5004913  13.5251673
   3.9681673  61.7714913  13.6511673  14.1091673  66.9034913   9.8131673
  14.0771673  66.0414913   9.6781673  13.4161673  67.2054913   9.3791673
  14.0021673  66.8204913   9.7291673  12.2141673  70.1634913   8.6101673
  12.7411673  70.0804913   7.9191673  11.8231673  69.3854913   8.6641673
  12.2341673  70.0364913   8.5161673   8.7281673  55.6074913   7.8181673
   9.3981673  56.1514913   7.9451673   8.2251673  56.0314913   7.2451673
   8.7531673  55.7504913   7.7521673   8.0871673  61.4154913   5.3111673
   8.6381673  60.8084913   5.6111673   7.6621673  61.6784913   6.0261673
   8.1061673  61.3644913   5.4601673  10.0571673  63.2464913   1.8731673
  10.1251673  62.3964913   2.0541673   9.2341673  63.3324913   1.5951673
   9.9451673  63.1334913   1.8591673  13.3311673  64.6194913  15.0241673
  13.9651673  64.4494913  15.5981673  13.7481673  65.0224913  14.3721673
  13.4861673  64.6544913  15.0131673  13.9561673  59.1834913  15.7621673
  13.7601673  59.8274913  16.3171673  13.2341673  58.6934913  15.7541673
  13.8211673  59.2064913  15.8431673  13.8551673  60.1244913   8.7331673
  13.0221673  60.3744913   8.6611673  13.7991673  59.2844913   8.9621673
  13.7241673  60.0374913   8.7561673   3.1151673  57.1124913  13.9271673
   3.3491673  56.5364913  13.3141673   2.2731673  56.9314913  14.0681673
   3.0251673  57.0004913  13.8571673  10.7421673  64.7304913  16.3791673
  11.6131673  64.6944913  16.3431673  10.5231673  65.1504913  15.6471673
  10.8391673  64.7864913  16.2661673   7.5061673  36.8373833  79.3131313
   7.2611673  37.3253833  78.6331313   8.3691673  36.7643833  79.2131313
   7.5971673  36.8983833  79.1981313   7.3151673  43.7533833  83.9841313
   6.7911673  44.3493833  84.3471313   7.7121673  43.3853833  84.6681313
   7.2961673  43.7873833  84.1391313  13.4591673  51.1943833  76.9551313
  14.1601673  50.6753833  76.9511313  12.8721673  50.7493833  76.4861313
  13.4761673  51.0513833  76.8851313   9.9861673  44.8203833  80.6601313
  10.0661673  44.8243833  79.7911313   9.4021673  44.1883833  80.8091313
   9.9111673  44.7273833  80.5541313   3.9751673  37.9243833  78.4681313
   3.9051673  38.6013833  77.9221313   4.7161673  37.5363833  78.2191313
   4.0741673  37.9673833  78.3501313   3.0781673  40.7593833  85.2441313
   3.7561673  40.7773833  84.6951313   3.0331673  39.9233833  85.4891313
   3.1711673  40.6383833  85.1991313   3.6801673  51.3453833  88.0251313
   3.8181673  52.1053833  87.6181313   4.4711673  50.9803833  88.0521313
   3.8171673  51.4043833  87.9691313   4.7751673  49.2303833  82.5301313
   5.1231673  48.4313833  82.5601313   5.4401673  49.7343833  82.2751313
   4.9251673  49.1863833  82.4971313   4.8321673  48.6793833  78.7411313
   5.1631673  48.0353833  79.2271313   5.0721673  48.4683833  77.9301313
   4.9161673  48.5533833  78.6931313   4.1471673  37.4853833  81.4091313
   4.2201673  38.3453833  81.5381313   4.1091673  37.4103833  80.5411313
   4.1521673  37.6013833  81.3001313   8.8201673  40.4113833  73.7081313
   8.3701673  41.0923833  74.0151313   8.9341673  39.9073833  74.4111313
   8.7711673  40.4373833  73.8571313   2.7761673  50.4643833  78.2901313
   2.1971673  50.1893833  78.8821313   3.4001673  49.8553833  78.3151313
   2.7831673  50.3343833  78.3811313   8.9191673  52.7523833  75.8121313
   9.6461673  53.2243833  75.9141313   9.1481673  51.9583833  76.0921313
   9.0611673  52.7053833  75.8691313   7.0871673  53.1443833  77.8021313
   7.3011673  53.6713833  78.4641313   7.8541673  52.9703833  77.4231313
   7.2321673  53.1963833  77.8441313  14.2141673  40.3843833  80.0031313
  13.8681673  41.0623833  80.4291313  13.5781673  39.7863833  80.0191313
  14.0691673  40.3963833  80.0681313   9.5261673  53.1543833  86.1071313
  10.2701673  53.6103833  86.0971313   9.4051673  52.9403833  85.2701313
   9.6181673  53.1903833  85.9821313   2.5301673  52.6293833  81.5371313
   3.3741673  52.7333833  81.3421313   2.2331673  53.4473833  81.6051313
   2.6111673  52.7653833  81.5181313   6.3371673  42.0263833  79.6241313
   6.6241673  41.7943833  78.8341313   7.0691673  42.1053833  80.0931313
   6.4871673  42.0033833  79.5771313   7.0591673  42.3653833  74.7451313
   7.3401673  43.1533833  74.9941313   6.2831673  42.5303833  74.3821313
   6.9861673  42.5063833  74.7281313  11.1001673  54.3393833  76.2121313
  11.7651673  54.1913833  75.6671313  11.4601673  54.2563833  77.0021313
  11.2521673  54.3053833  76.2481313  13.8891673  38.7073833  85.3721313
  14.6461673  38.7793833  84.9441313  13.9521673  37.9343833  85.7711313
  14.0101673  38.6043833  85.3671313   5.9181673  50.5363833  74.5611313
   5.7371673  51.0813833  75.2181313   6.6841673  50.8263833  74.2601313
   6.0041673  50.6603833  74.6141313   9.4251673  38.4323833  75.6151313
   9.9651673  37.7503833  75.6911313   9.4871673  38.8303833  76.3891313
   9.5141673  38.3903833  75.7411313   6.6831673  40.8083833  76.9291313
   6.1751673  40.1463833  76.6751313   6.7351673  41.3123833  76.2191313
   6.6161673  40.7853833  76.7871313   7.2321673  53.5033833  87.3091313
   8.0001673  53.4233833  86.9031313   6.6491673  53.3823833  86.6711313
   7.2591673  53.4733833  87.1551313   6.6831673  37.7493833  76.8201313
   6.2281673  37.3473833  76.1941313   7.4561673  37.9043833  76.4451313
   6.7301673  37.7133833  76.6721313  13.5091673  54.1063833  80.2101313
  13.0541673  54.8233833  80.4111313  12.8951673  53.5353833  79.9681313
  13.3511673  54.1283833  80.2041313   5.2811673  40.1163833  81.3421313
   5.3551673  40.6843833  80.6841313   5.4021673  40.6083833  82.0521313
   5.3091673  40.2733833  81.3501313  10.5061673  49.9513833  79.7541313
  11.2071673  49.4693833  79.9431313   9.8461673  49.3823833  79.7991313
  10.5121673  49.7963833  79.7881313   2.8451673  46.3723833  83.7151313
   3.0171673  46.1623833  84.5441313   2.1901673  45.8383833  83.4991313
   2.7741673  46.2623833  83.8061313   9.0731673  40.2863833  87.2301313
   8.9781673  40.6053833  88.0361313   8.4801673  39.6473833  87.1921313
   8.9711673  40.2383833  87.3441313   3.5951673  46.3103833  86.3051313
   3.6481673  47.1573833  86.5071313   3.3101673  45.9403833  87.0421313
   3.5611673  46.3803833  86.4431313   9.7721673  47.0053833  85.4351313
   9.2581673  46.5933833  86.0061313   9.6461673  47.8493833  85.6161313
   9.6781673  47.0693833  85.5461313  10.3291673  36.2303833  80.0661313
  10.3781673  35.9123833  80.8771313  10.6521673  35.5863833  79.5731313
  10.3841673  36.0883833  80.1131313  13.0251673  47.4443833  75.5621313
  13.1441673  47.1573833  76.3771313  13.8321673  47.4653833  75.2321313
  13.1611673  47.4053833  75.6341313  10.9201673  43.9813833  75.1471313
  10.7001673  44.7123833  74.7251313  10.4721673  44.0323833  75.8941313
  10.8211673  44.0963833  75.1951313   2.5291673  47.1833833  79.1281313
   3.2421673  47.6783833  79.2181313   2.7511673  46.6163833  78.5021313
   2.6671673  47.1723833  79.0491313  15.1071673  38.8423833  74.6001313
  14.4451673  38.2743833  74.6231313  14.9141673  39.3543833  73.9201313
  14.9811673  38.8343833  74.5031313  15.4301673  43.2203833  87.1561313
  15.6451673  42.4203833  86.8801313  14.5801673  43.2803833  86.9671313
  15.3361673  43.1113833  87.0871313  13.1091673  38.4003833  76.8791313
  13.8551673  37.9933833  77.0781313  13.3721673  39.1153833  76.4541313
  13.2581673  38.4463833  76.8461313   7.0521673  50.8863833  81.4551313
   6.5291673  51.5203833  81.1621313   7.3621673  50.5223833  80.7261313
   7.0201673  50.9263833  81.3041313   9.5631673  40.6883833  81.9521313
   9.9071673  40.8403833  82.7391313   9.1101673  39.9503833  82.0651313
   9.5471673  40.6013833  82.0851313   4.0391673  39.9083833  76.4091313
   4.0371673  39.7913833  75.5441313   3.8581673  40.7563833  76.5011313
   4.0121673  40.0163833  76.2951313  13.0931673  52.3353833  87.9061313
  12.4221673  52.8493833  88.1241313  13.1561673  52.4353833  87.0421313
  13.0031673  52.4263833  87.8111313   1.7771673  49.8603833  81.0411313
   1.9031673  50.7033833  81.2281313   2.4451673  49.4613833  81.4371313
   1.8951673  49.9263833  81.1271313  10.8841673  42.0203833  84.5061313
  10.2221673  42.3483833  84.9691313  11.0711673  42.6543833  83.9371313
  10.8141673  42.1623833  84.4901313   5.0891673  53.0843833  85.5021313
   4.8121673  52.4433833  84.9791313   4.8811673  53.8103833  85.0641313
   5.0181673  53.0973833  85.3601313   7.5291673  37.9263833  87.9351313
   7.6781673  37.1013833  87.6921313   7.9081673  37.9813833  88.7191313
   7.6071673  37.8123833  88.0151313   9.0771673  39.9893833  78.0171313
   9.5671673  40.7063833  77.9401313   8.2871673  40.2503833  77.7541313
   9.0331673  40.1333833  77.9671313   5.6591673  41.4593833  83.7421313
   6.1391673  42.1583833  83.9501313   6.0321673  40.8123833  84.1931313
   5.7851673  41.4673833  83.8391313   7.8481673  44.6283833  76.0161313
   7.8401673  45.3503833  75.5261313   7.2091673  44.7633833  76.5931313
   7.7531673  44.7553833  76.0291313  12.8201673  48.4983833  79.9971313
  13.1761673  48.1483833  80.7121313  12.8121673  47.8373833  79.4271313
  12.8721673  48.3483833  80.0181313   8.8651673  51.5643833  83.8411313
   8.2621673  51.2683833  83.2841313   9.4101673  52.0163833  83.3321313
   8.8561673  51.5873833  83.6831313   8.8781673  48.4153833  83.2411313
   8.0811673  48.6393833  83.5151313   9.1361673  47.8213833  83.8261313
   8.7981673  48.3603833  83.3681313   2.7701673  53.2273833  77.6891313
   2.6231673  52.4513833  78.0601313   3.4591673  53.0803833  77.1741313
   2.8501673  53.0903833  77.6681313   5.0621673  52.7433833  76.0911313
   5.6841673  52.9063833  76.6811313   5.0981673  53.4343833  75.5591313
   5.1591673  52.8693833  76.1001313  12.1381673  46.4133833  88.0871313
  12.1931673  46.5383833  87.2251313  12.8911673  46.7333833  88.3891313
  12.2571673  46.4783833  88.0041313   7.8691673  46.2193833  87.6871313
   7.7141673  46.8293833  88.2911313   8.4031673  45.6613833  88.0931313
   7.9251673  46.2273833  87.8361313   6.2531673  44.6193833  78.3451313
   6.3121673  45.2693833  78.9241313   6.0641673  43.9233833  78.8361313
   6.2341673  44.6123833  78.5031313  11.4791673  48.9483833  84.2141313
  11.0001673  49.2463833  83.5481313  11.1231673  48.1723833  84.3921313
  11.3561673  48.8773833  84.1421313   5.4761673  46.6663833  82.7761313
   4.6291673  46.4723833  82.8571313   5.8001673  46.5013833  83.5691313
   5.3981673  46.6133833  82.9051313   2.2281673  53.3963833  73.6621313
   2.6671673  52.6993833  73.9501313   2.4351673  54.0203833  74.2351313
   2.3241673  53.3853833  73.7891313   2.5541673  41.5303833  81.8271313
   3.4001673  41.3403833  81.9251313   2.1841673  40.7533833  81.6891313
   2.6241673  41.3873833  81.8211313  15.1711673  53.1143833  76.1541313
  15.8651673  52.6473833  75.9061313  14.6321673  52.5163833  76.4911313
  15.1941673  52.9563833  76.1671313  12.4101673  45.8903833  85.3331313
  12.4031673  45.1143833  85.7311313  11.5691673  46.1243833  85.3261313
  12.2851673  45.8103833  85.3911313  13.6661673  45.9613833  82.7701313
  13.3801673  46.3623833  83.4901313  14.5261673  45.8993833  82.8971313
  13.7511673  46.0113833  82.8951313   3.3551673  42.7633833  76.6781313
   3.6271673  43.5893833  76.7451313   2.4921673  42.8383833  76.5821313
   3.2681673  42.8963833  76.6731313  14.7971673  51.5943833  83.2991313
  15.0871673  51.8513833  82.5181313  15.4921673  51.6903833  83.8181313
  14.9431673  51.6463833  83.2601313  11.4021673  50.1973833  75.2811313
  11.7361673  49.3913833  75.3161313  10.6471673  50.1253833  75.7111313
  11.3401673  50.0673833  75.3501313  11.8841673  42.0313833  80.9401313
  11.1391673  41.7083833  81.2581313  11.8861673  42.8573833  81.2201313
  11.7741673  42.1053833  81.0281313  14.3241673  47.9913833  88.6921313
  14.9521673  47.4423833  88.4361313  14.2631673  48.5563833  88.0301313
  14.4081673  47.9943833  88.5561313   8.7761673  48.0723833  74.6841313
   9.4601673  47.5583833  74.5151313   8.3591673  48.1183833  73.9191313
   8.8151673  48.0033833  74.5461313   3.4581673  49.2223833  85.9881313
   3.1601673  49.8143833  86.5551313   3.5131673  49.6643833  85.2391313
   3.4221673  49.3753833  85.9611313  10.7961673  38.3613833  88.4011313
  11.5401673  38.8133833  88.3381313  10.2301673  38.8313833  87.9321313
  10.8231673  38.4983833  88.3231313   5.9741673  45.6453833  85.4791313
   6.4501673  46.0193833  86.1071313   5.1511673  45.7793833  85.7381313
   5.9231673  45.7203833  85.6101313   2.6841673  41.2483833  88.2201313
   2.8451673  40.5043833  88.6471313   2.6391673  40.9993833  87.3851313
   2.7011673  41.1013833  88.1601313   5.2381673  53.0383833  80.7071313
   5.7841673  53.7173833  80.7611313   4.8881673  53.1203833  79.9121313
   5.2671673  53.1513833  80.5971313  12.0811673  36.3413833  86.0711313
  11.8011673  37.1663833  86.0271313  12.7971673  36.3943833  86.5671313
  12.1461673  36.4713833  86.1381313   4.4361673  37.0563833  88.1001313
   5.1411673  37.3763833  87.6981313   4.6771673  36.2493833  88.3271313
   4.5751673  36.9843833  88.0741313   3.4211673  51.2663833  84.0961313
   2.7971673  51.8483833  83.9141313   3.6691673  50.9803833  83.3101313
   3.3651673  51.3103833  83.9531313  13.5021673  42.5963833  74.9281313
  13.8801673  43.2733833  74.5281313  12.6601673  42.8203833  74.9591313
  13.4331673  42.7293833  74.8731313   5.0151673  46.0423833  74.0111313
   4.2101673  45.8653833  73.7261313   4.9821673  46.8933833  74.2031313
   4.8911673  46.1413833  73.9981313   8.6491673  42.7483833  86.0511313
   8.9511673  43.1683833  86.7541313   8.6851673  41.9083833  86.2831313
   8.6991673  42.6863833  86.1891313  11.1971673  42.1953833  78.3031313
  11.4041673  41.9943833  79.1271313  11.9531673  42.4633833  77.9611313
  11.3391673  42.2053833  78.3741313   4.4921673  37.0943833  84.2081313
   3.6661673  36.9453833  84.4451313   4.4521673  37.1293833  83.3371313
   4.3641673  37.0773833  84.1141313  12.2191673  38.2783833  79.7771313
  11.5051673  37.8073833  79.9481313  12.0571673  38.6193833  78.9911313
  12.0901673  38.2593833  79.6861313  12.6621673  46.2223833  78.1571313
  13.1381673  45.4933833  78.1091313  11.8411673  45.9363833  78.0811313
  12.6111673  46.0723833  78.1381313   8.8781673  47.3893833  80.5121313
   8.9541673  47.7303833  81.3111313   9.0471673  46.5423833  80.6331313
   8.9141673  47.3143833  80.6481313   6.4001673  46.6633833  80.0771313
   6.1021673  46.3483833  80.8341313   7.0951673  47.1363833  80.3121313
   6.4591673  46.6863833  80.2241313   6.6221673  50.7813833  88.1041313
   7.3091673  50.6673833  88.6291313   6.7561673  51.5723833  87.7601313
   6.7431673  50.8813833  88.1311313   9.3111673  44.0553833  88.4911313
   9.0561673  43.3363833  88.9131313  10.1321673  44.1713833  88.7611313
   9.3951673  43.9663833  88.5931313  10.3291673  53.6193833  82.6071313
   9.8781673  54.2623833  82.9861313  11.0371673  53.5403833  83.1121313
  10.3671673  53.7023833  82.7381313   7.0301673  48.7093833  85.5371313
   6.3361673  49.1113833  85.8801313   7.7071673  49.1423833  85.8761313
   7.0271673  48.8323833  85.6381313  13.4321673  43.3353833  77.5991313
  13.5351673  43.2773833  76.7351313  14.1731673  43.0033833  77.9171313
  13.5571673  43.2783833  77.5181313   7.3521673  50.3003833  78.7061313
   7.1471673  51.1333833  78.5471313   6.5771673  49.9183833  78.8281313
   7.2071673  50.3673833  78.7011313  12.5341673  43.4813833  86.9551313
  12.5321673  42.6183833  87.0791313  12.6011673  43.8053833  87.7621313
  12.5441673  43.4013833  87.0921313   7.4071673  38.4713833  81.5911313
   6.7071673  38.9893833  81.5351313   7.4451673  38.0913833  80.8071313
   7.3091673  38.4923833  81.4671313   2.7141673  50.5623833  75.1151313
   3.1551673  50.6423833  75.8631313   1.9091673  50.3463833  75.3731313
   2.6601673  50.5423833  75.2641313  11.0051673  38.9873833  84.3911313
  11.8601673  39.0863833  84.5361313  10.6361673  39.5403833  84.9561313
  11.0771673  39.0843833  84.4961313  11.3091673  44.2673833  82.8821313
  11.9751673  44.8083833  83.0421313  10.9641673  44.5783833  82.1431313
  11.3561673  44.3933833  82.7971313  11.6221673  52.3333833  78.6891313
  11.4481673  51.6793833  79.2391313  12.3351673  52.0623833  78.2661313
  11.7021673  52.1963833  78.7081313   2.8621673  47.8773833  74.4591313
   2.0441673  47.6093833  74.5991313   2.8341673  48.7293833  74.6441313
   2.7371673  47.9643833  74.5071313  14.4801673  36.8253833  87.5471313
  14.4281673  36.7813833  88.4171313  15.1671673  36.3223833  87.3571313
  14.5741673  36.7453833  87.6471313   6.5651673  38.9383833  84.5921313
   5.8281673  38.4843833  84.7051313   7.1361673  38.5363833  85.1151313
   6.5401673  38.8113833  84.6861313   9.2971673  49.7863833  86.3801313
   9.5031673  50.0873833  87.1721313   9.2361673  50.5083833  85.8951313
   9.3181673  49.9373833  86.4251313   4.8641673  36.5193833  74.4231313
   4.9421673  36.7663833  73.5901313   4.1211673  36.8963833  74.6811313
   4.7661673  36.6113833  74.3381313  14.1091673  48.4253833  85.8381313
  14.0771673  47.5633833  85.7031313  13.4161673  48.7273833  85.4041313
  14.0021673  48.3423833  85.7541313  12.2141673  51.6853833  84.6351313
  12.7411673  51.6023833  83.9441313  11.8231673  50.9073833  84.6891313
  12.2341673  51.5583833  84.5411313   8.7281673  37.1293833  83.8431313
   9.3981673  37.6733833  83.9701313   8.2251673  37.5533833  83.2701313
   8.7531673  37.2723833  83.7771313   8.0871673  42.9373833  81.3361313
   8.6381673  42.3303833  81.6361313   7.6621673  43.2003833  82.0511313
   8.1061673  42.8863833  81.4851313  10.0571673  44.7683833  77.8981313
  10.1251673  43.9183833  78.0791313   9.2341673  44.8543833  77.6201313
   9.9451673  44.6553833  77.8841313   3.9761673  45.6593833  76.8361313
   4.0761673  45.7983833  75.9811313   4.7941673  45.5993833  77.1321313
   4.1111673  45.6703833  76.7531313  13.1361673  53.7233833  74.3161313
  13.7731673  53.5893833  74.8971313  12.7951673  52.9293833  74.1991313
  13.1801673  53.5863833  74.3841313   9.2111673  49.9883833  76.6381313
   8.9601673  49.8603833  77.4641313   8.8941673  49.2933833  76.2171313
   9.1271673  49.8673833  76.6981313  13.8551673  41.6463833  84.7581313
  13.0221673  41.8963833  84.6861313  13.7991673  40.8063833  84.9871313
  13.7241673  41.5593833  84.7811313   6.0971673  48.1963833  76.0681313
   6.8141673  47.8493833  75.7121313   6.0631673  48.9963833  75.7201313
   6.1981673  48.2633833  75.9641313   7.5061673  36.8373833  60.3068903
   7.2611673  37.3253833  59.6268903   8.3691673  36.7643833  60.2068903
   7.5971673  36.8983833  60.1918903   7.3151673  43.7533833  64.9778903
   6.7911673  44.3493833  65.3408903   7.7121673  43.3853833  65.6618903
   7.2961673  43.7873833  65.1328903  13.4591673  51.1943833  57.9488903
  14.1601673  50.6753833  57.9448903  12.8721673  50.7493833  57.4798903
  13.4761673  51.0513833  57.8788903   9.9861673  44.8203833  61.6538903
  10.0661673  44.8243833  60.7848903   9.4021673  44.1883833  61.8028903
   9.9111673  44.7273833  61.5478903   3.9751673  37.9243833  59.4618903
   3.9051673  38.6013833  58.9158903   4.7161673  37.5363833  59.2128903
   4.0741673  37.9673833  59.3438903   3.6981673  48.1533833  71.7558903
   3.4621673  48.1503833  72.5958903   2.9501673  48.0053833  71.3318903
   3.5521673  48.1303833  71.8168903   3.0781673  40.7593833  66.2378903
   3.7561673  40.7773833  65.6888903   3.0331673  39.9233833  66.4828903
   3.1711673  40.6383833  66.1928903   3.6801673  51.3453833  69.0188903
   3.8181673  52.1053833  68.6118903   4.4711673  50.9803833  69.0458903
   3.8171673  51.4043833  68.9628903   4.7751673  49.2303833  63.5238903
   5.1231673  48.4313833  63.5538903   5.4401673  49.7343833  63.2688903
   4.9251673  49.1863833  63.4908903   4.8321673  48.6793833  59.7348903
   5.1631673  48.0353833  60.2208903   5.0721673  48.4683833  58.9238903
   4.9161673  48.5533833  59.6868903   6.8001673  42.8103833  71.0738903
   5.9521673  42.7113833  70.8958903   6.8291673  43.5553833  71.5278903
   6.6791673  42.9063833  71.1148903  11.3581673  35.7703833  70.1878903
  11.2001673  36.5393833  69.8058903  10.5861673  35.5503833  70.5318903
  11.2201673  35.8513833  70.1828903   4.1471673  37.4853833  62.4028903
   4.2201673  38.3453833  62.5318903   4.1091673  37.4103833  61.5348903
   4.1521673  37.6013833  62.2938903   8.8201673  40.4113833  54.7018903
   8.3701673  41.0923833  55.0088903   8.9341673  39.9073833  55.4048903
   8.7711673  40.4373833  54.8508903   2.7761673  50.4643833  59.2838903
   2.1971673  50.1893833  59.8758903   3.4001673  49.8553833  59.3088903
   2.7831673  50.3343833  59.3748903   8.9191673  52.7523833  56.8058903
   9.6461673  53.2243833  56.9078903   9.1481673  51.9583833  57.0858903
   9.0611673  52.7053833  56.8628903   7.0871673  53.1443833  58.7958903
   7.3011673  53.6713833  59.4578903   7.8541673  52.9703833  58.4168903
   7.2321673  53.1963833  58.8378903   3.3611673  39.8603833  73.6928903
   3.4781673  39.4063833  72.9568903   3.6491673  40.6583833  73.4898903
   3.4211673  39.9113833  73.5538903  14.2141673  40.3843833  60.9968903
  13.8681673  41.0623833  61.4228903  13.5781673  39.7863833  61.0128903
  14.0691673  40.3963833  61.0618903   9.5261673  53.1543833  67.1008903
  10.2701673  53.6103833  67.0908903   9.4051673  52.9403833  66.2638903
   9.6181673  53.1903833  66.9758903   2.5301673  52.6293833  62.5308903
   3.3741673  52.7333833  62.3358903   2.2331673  53.4473833  62.5988903
   2.6111673  52.7653833  62.5118903   5.7431673  37.1003833  71.8448903
   5.9211673  36.2913833  71.5698903   5.6001673  37.5413833  71.1058903
   5.7481673  37.0463833  71.6948903   6.3371673  42.0263833  60.6178903
   6.6241673  41.7943833  59.8278903   7.0691673  42.1053833  61.0868903
   6.4871673  42.0033833  60.5708903   7.0591673  42.3653833  55.7388903
   7.3401673  43.1533833  55.9878903   6.2831673  42.5303833  55.3758903
   6.9861673  42.5063833  55.7218903  11.1001673  54.3393833  57.2058903
  11.7651673  54.1913833  56.6608903  11.4601673  54.2563833  57.9958903
  11.2521673  54.3053833  57.2418903  13.8891673  38.7073833  66.3658903
  14.6461673  38.7793833  65.9378903  13.9521673  37.9343833  66.7648903
  14.0101673  38.6043833  66.3608903   8.7801673  50.3393833  70.8048903
   8.7461673  50.7213833  71.5888903   9.6341673  50.2973833  70.6338903
   8.9011673  50.3893833  70.8958903   5.9181673  50.5363833  55.5548903
   5.7371673  51.0813833  56.2118903   6.6841673  50.8263833  55.2538903
   6.0041673  50.6603833  55.6078903   9.4251673  38.4323833  56.6088903
   9.9651673  37.7503833  56.6848903   9.4871673  38.8303833  57.3828903
   9.5141673  38.3903833  56.7348903   6.6831673  40.8083833  57.9228903
   6.1751673  40.1463833  57.6688903   6.7351673  41.3123833  57.2128903
   6.6161673  40.7853833  57.7808903   7.2321673  53.5033833  68.3028903
   8.0001673  53.4233833  67.8968903   6.6491673  53.3823833  67.6648903
   7.2591673  53.4733833  68.1488903   6.6831673  37.7493833  57.8138903
   6.2281673  37.3473833  57.1878903   7.4561673  37.9043833  57.4388903
   6.7301673  37.7133833  57.6658903  13.5091673  54.1063833  61.2038903
  13.0541673  54.8233833  61.4048903  12.8951673  53.5353833  60.9618903
  13.3511673  54.1283833  61.1978903   5.2811673  40.1163833  62.3358903
   5.3551673  40.6843833  61.6778903   5.4021673  40.6083833  63.0458903
   5.3091673  40.2733833  62.3438903  10.5061673  49.9513833  60.7478903
  11.2071673  49.4693833  60.9368903   9.8461673  49.3823833  60.7928903
  10.5121673  49.7963833  60.7818903   2.8451673  46.3723833  64.7088903
   3.0171673  46.1623833  65.5378903   2.1901673  45.8383833  64.4928903
   2.7741673  46.2623833  64.7998903   9.0731673  40.2863833  68.2238903
   8.9781673  40.6053833  69.0298903   8.4801673  39.6473833  68.1858903
   8.9711673  40.2383833  68.3378903   3.5951673  46.3103833  67.2988903
   3.6481673  47.1573833  67.5008903   3.3101673  45.9403833  68.0358903
   3.5611673  46.3803833  67.4368903   9.7721673  47.0053833  66.4288903
   9.2581673  46.5933833  66.9998903   9.6461673  47.8493833  66.6098903
   9.6781673  47.0693833  66.5398903  10.3291673  36.2303833  61.0598903
  10.3781673  35.9123833  61.8708903  10.6521673  35.5863833  60.5668903
  10.3841673  36.0883833  61.1068903  12.7931673  40.4663833  69.3678903
  13.5651673  40.2413833  69.7048903  12.3181673  40.6833833  70.0678903
  12.8371673  40.4653833  69.5208903  13.0251673  47.4443833  56.5558903
  13.1441673  47.1573833  57.3708903  13.8321673  47.4653833  56.2258903
  13.1611673  47.4053833  56.6278903  15.2591673  51.9533833  70.8098903
  14.5771673  52.2633833  70.3628903  14.8901673  51.4953833  71.4548903
  15.1031673  51.9313833  70.8388903  10.9201673  43.9813833  56.1408903
  10.7001673  44.7123833  55.7188903  10.4721673  44.0323833  56.8878903
  10.8211673  44.0963833  56.1888903   2.5291673  47.1833833  60.1218903
   3.2421673  47.6783833  60.2118903   2.7511673  46.6163833  59.4958903
   2.6671673  47.1723833  60.0428903  15.1071673  38.8423833  55.5938903
  14.4451673  38.2743833  55.6168903  14.9141673  39.3543833  54.9138903
  14.9811673  38.8343833  55.4968903   4.3321673  42.5363833  73.5378903
   3.8481673  43.1133833  73.9798903   4.3041673  42.8313833  72.7168903
   4.2561673  42.6653833  73.4818903  15.4301673  43.2203833  68.1498903
  15.6451673  42.4203833  67.8738903  14.5801673  43.2803833  67.9608903
  15.3361673  43.1113833  68.0808903  13.1091673  38.4003833  57.8728903
  13.8551673  37.9933833  58.0718903  13.3721673  39.1153833  57.4478903
  13.2581673  38.4463833  57.8398903   7.0521673  50.8863833  62.4488903
   6.5291673  51.5203833  62.1558903   7.3621673  50.5223833  61.7198903
   7.0201673  50.9263833  62.2978903   9.5631673  40.6883833  62.9458903
   9.9071673  40.8403833  63.7328903   9.1101673  39.9503833  63.0588903
   9.5471673  40.6013833  63.0788903   4.0391673  39.9083833  57.4028903
   4.0371673  39.7913833  56.5378903   3.8581673  40.7563833  57.4948903
   4.0121673  40.0163833  57.2888903  13.0931673  52.3353833  68.8998903
  12.4221673  52.8493833  69.1178903  13.1561673  52.4353833  68.0358903
  13.0031673  52.4263833  68.8048903   1.7771673  49.8603833  62.0348903
   1.9031673  50.7033833  62.2218903   2.4451673  49.4613833  62.4308903
   1.8951673  49.9263833  62.1208903  10.8841673  42.0203833  65.4998903
  10.2221673  42.3483833  65.9628903  11.0711673  42.6543833  64.9308903
  10.8141673  42.1623833  65.4838903   5.0891673  53.0843833  66.4958903
   4.8121673  52.4433833  65.9728903   4.8811673  53.8103833  66.0578903
   5.0181673  53.0973833  66.3538903   7.5291673  37.9263833  68.9288903
   7.6781673  37.1013833  68.6858903   7.9081673  37.9813833  69.7128903
   7.6071673  37.8123833  69.0088903   9.0771673  39.9893833  59.0108903
   9.5671673  40.7063833  58.9338903   8.2871673  40.2503833  58.7478903
   9.0331673  40.1333833  58.9608903  10.3911673  47.8673833  70.9208903
  10.8751673  48.5853833  71.0188903  10.7851673  47.4403833  70.2698903
  10.5211673  47.9103833  70.8388903   4.6871673  50.7123833  72.0978903
   5.0411673  50.5343833  72.8748903   4.2511673  49.9833833  71.8988903
   4.6751673  50.5783833  72.1838903   5.6591673  41.4593833  64.7358903
   6.1391673  42.1583833  64.9438903   6.0321673  40.8123833  65.1868903
   5.7851673  41.4673833  64.8328903   7.8481673  44.6283833  57.0098903
   7.8401673  45.3503833  56.5198903   7.2091673  44.7633833  57.5868903
   7.7531673  44.7553833  57.0228903  12.8201673  48.4983833  60.9908903
  13.1761673  48.1483833  61.7058903  12.8121673  47.8373833  60.4208903
  12.8721673  48.3483833  61.0118903   8.8651673  51.5643833  64.8348903
   8.2621673  51.2683833  64.2778903   9.4101673  52.0163833  64.3258903
   8.8561673  51.5873833  64.6768903   8.8781673  48.4153833  64.2348903
   8.0811673  48.6393833  64.5088903   9.1361673  47.8213833  64.8198903
   8.7981673  48.3603833  64.3618903   2.7701673  53.2273833  58.6828903
   2.6231673  52.4513833  59.0538903   3.4591673  53.0803833  58.1678903
   2.8501673  53.0903833  58.6618903   5.0621673  52.7433833  57.0848903
   5.6841673  52.9063833  57.6748903   5.0981673  53.4343833  56.5528903
   5.1591673  52.8693833  57.0938903  12.1381673  46.4133833  69.0808903
  12.1931673  46.5383833  68.2188903  12.8911673  46.7333833  69.3828903
  12.2571673  46.4783833  68.9978903   8.3291673  51.7623833  73.3578903
   8.4931673  52.0453833  74.1668903   8.5921673  52.4233833  72.8528903
   8.3921673  51.9023833  73.4028903  13.1701673  36.7113833  72.0678903
  12.5331673  36.3113833  71.6258903  13.1961673  36.2803833  72.8258903
  13.0801673  36.5893833  72.1138903   7.8691673  46.2193833  68.6808903
   7.7141673  46.8293833  69.2848903   8.4031673  45.6613833  69.0868903
   7.9251673  46.2273833  68.8298903   6.2531673  44.6193833  59.3388903
   6.3121673  45.2693833  59.9178903   6.0641673  43.9233833  59.8298903
   6.2341673  44.6123833  59.4968903  11.4791673  48.9483833  65.2078903
  11.0001673  49.2463833  64.5418903  11.1231673  48.1723833  65.3858903
  11.3561673  48.8773833  65.1358903   5.4761673  46.6663833  63.7698903
   4.6291673  46.4723833  63.8508903   5.8001673  46.5013833  64.5628903
   5.3981673  46.6133833  63.8988903   2.2281673  53.3963833  54.6558903
   2.6671673  52.6993833  54.9438903   2.4351673  54.0203833  55.2288903
   2.3241673  53.3853833  54.7828903   2.5541673  41.5303833  62.8208903
   3.4001673  41.3403833  62.9188903   2.1841673  40.7533833  62.6828903
   2.6241673  41.3873833  62.8148903  15.1711673  53.1143833  57.1478903
  15.8651673  52.6473833  56.8998903  14.6321673  52.5163833  57.4848903
  15.1941673  52.9563833  57.1608903  12.4101673  45.8903833  66.3268903
  12.4031673  45.1143833  66.7248903  11.5691673  46.1243833  66.3198903
  12.2851673  45.8103833  66.3848903  13.6661673  45.9613833  63.7638903
  13.3801673  46.3623833  64.4838903  14.5261673  45.8993833  63.8908903
  13.7511673  46.0113833  63.8888903   3.3551673  42.7633833  57.6718903
   3.6271673  43.5893833  57.7388903   2.4921673  42.8383833  57.5758903
   3.2681673  42.8963833  57.6668903  11.3281673  39.8853833  72.3038903
  10.8031673  40.3443833  72.8278903  10.9671673  39.0903833  72.2978903
  11.1971673  39.8353833  72.3798903  14.7971673  51.5943833  64.2928903
  15.0871673  51.8513833  63.5118903  15.4921673  51.6903833  64.8118903
  14.9431673  51.6463833  64.2538903   9.8201673  43.4543833  72.3798903
   9.8931673  43.5583833  73.2428903   9.1861673  44.0123833  72.1588903
   9.7371673  43.5523833  72.4748903  12.0881673  43.7733833  70.7448903
  12.4071673  44.5593833  70.9478903  11.7181673  43.5033833  71.4878903
  12.0811673  43.8493833  70.8848903  11.4021673  50.1973833  56.2748903
  11.7361673  49.3913833  56.3098903  10.6471673  50.1253833  56.7048903
  11.3401673  50.0673833  56.3438903  11.8841673  42.0313833  61.9338903
  11.1391673  41.7083833  62.2518903  11.8861673  42.8573833  62.2138903
  11.7741673  42.1053833  62.0218903  14.7861673  44.3153833  73.4798903
  14.7341673  43.9743833  72.6788903  15.5231673  44.7823833  73.4578903
  14.8871673  44.3343833  73.3578903  14.3241673  47.9913833  69.6858903
  14.9521673  47.4423833  69.4298903  14.2631673  48.5563833  69.0238903
  14.4081673  47.9943833  69.5498903   8.7761673  48.0723833  55.6778903
   9.4601673  47.5583833  55.5088903   8.3591673  48.1183833  54.9128903
   8.8151673  48.0033833  55.5398903   3.4581673  49.2223833  66.9818903
   3.1601673  49.8143833  67.5488903   3.5131673  49.6643833  66.2328903
   3.4221673  49.3753833  66.9548903  10.7961673  38.3613833  69.3948903
  11.5401673  38.8133833  69.3318903  10.2301673  38.8313833  68.9258903
  10.8231673  38.4983833  69.3168903   5.9741673  45.6453833  66.4728903
   6.4501673  46.0193833  67.1008903   5.1511673  45.7793833  66.7318903
   5.9231673  45.7203833  66.6038903   2.6841673  41.2483833  69.2138903
   2.8451673  40.5043833  69.6408903   2.6391673  40.9993833  68.3788903
   2.7011673  41.1013833  69.1538903   5.2381673  53.0383833  61.7008903
   5.7841673  53.7173833  61.7548903   4.8881673  53.1203833  60.9058903
   5.2671673  53.1513833  61.5908903  12.0811673  36.3413833  67.0648903
  11.8011673  37.1663833  67.0208903  12.7971673  36.3943833  67.5608903
  12.1461673  36.4713833  67.1318903   4.4361673  37.0563833  69.0938903
   5.1411673  37.3763833  68.6918903   4.6771673  36.2493833  69.3208903
   4.5751673  36.9843833  69.0678903   3.4211673  51.2663833  65.0898903
   2.7971673  51.8483833  64.9078903   3.6691673  50.9803833  64.3038903
   3.3651673  51.3103833  64.9468903   7.7301673  47.9003833  72.0788903
   8.4871673  48.1863833  71.7528903   7.1831673  47.9523833  71.4008903
   7.7611673  47.9503833  71.9298903  11.6391673  50.4503833  70.5828903
  11.9851673  50.7203833  71.3368903  11.9331673  51.0323833  70.0028903
  11.7341673  50.5763833  70.6088903  13.5021673  42.5963833  55.9218903
  13.8801673  43.2733833  55.5218903  12.6601673  42.8203833  55.9528903
  13.4331673  42.7293833  55.8668903   5.0151673  46.0423833  55.0048903
   4.2101673  45.8653833  54.7198903   4.9821673  46.8933833  55.1968903
   4.8911673  46.1413833  54.9918903   8.9611673  41.2113833  70.7468903
   8.3131673  41.6813833  71.0948903   9.5261673  41.1223833  71.4058903
   8.9491673  41.2673833  70.8958903   8.6491673  42.7483833  67.0448903
   8.9511673  43.1683833  67.7478903   8.6851673  41.9083833  67.2768903
   8.6991673  42.6863833  67.1828903   6.0741673  52.9153833  70.9698903
   6.5521673  52.3153833  70.5538903   5.7231673  52.4723833  71.6348903
   6.0931673  52.7613833  71.0068903  11.1971673  42.1953833  59.2968903
  11.4041673  41.9943833  60.1208903  11.9531673  42.4633833  58.9548903
  11.3391673  42.2053833  59.3678903   4.4921673  37.0943833  65.2018903
   3.6661673  36.9453833  65.4388903   4.4521673  37.1293833  64.3308903
   4.3641673  37.0773833  65.1078903  12.2191673  38.2783833  60.7708903
  11.5051673  37.8073833  60.9418903  12.0571673  38.6193833  59.9848903
  12.0901673  38.2593833  60.6798903  12.6621673  46.2223833  59.1508903
  13.1381673  45.4933833  59.1028903  11.8411673  45.9363833  59.0748903
  12.6111673  46.0723833  59.1318903   6.1331673  48.1343833  69.9898903
   5.3381673  48.0703833  70.3408903   6.2041673  48.9813833  69.7948903
   6.0261673  48.2493833  70.0128903   8.8781673  47.3893833  61.5058903
   8.9541673  47.7303833  62.3048903   9.0471673  46.5423833  61.6268903
   8.9141673  47.3143833  61.6418903   6.4001673  46.6633833  61.0708903
   6.1021673  46.3483833  61.8278903   7.0951673  47.1363833  61.3058903
   6.4591673  46.6863833  61.2178903   6.6221673  50.7813833  69.0978903
   7.3091673  50.6673833  69.6228903   6.7561673  51.5723833  68.7538903
   6.7431673  50.8813833  69.1248903  14.7981673  43.3903833  70.9088903
  13.9431673  43.2683833  71.0348903  14.9511673  42.9953833  70.1458903
  14.6941673  43.3133833  70.8148903   9.3111673  44.0553833  69.4848903
   9.0561673  43.3363833  69.9068903  10.1321673  44.1713833  69.7548903
   9.3951673  43.9663833  69.5868903   7.2451673  45.2453833  72.6718903
   7.5681673  45.9313833  72.2398903   6.5411673  45.5683833  73.0738903
   7.1881673  45.3943833  72.6668903  10.3291673  53.6193833  63.6008903
   9.8781673  54.2623833  63.9798903  11.0371673  53.5403833  64.1058903
  10.3671673  53.7023833  63.7318903   7.0301673  48.7093833  66.5308903
   6.3361673  49.1113833  66.8738903   7.7071673  49.1423833  66.8698903
   7.0271673  48.8323833  66.6318903  12.4071673  51.3023833  73.1108903
  13.1831673  50.9123833  73.1938903  11.9381673  50.9663833  73.7658903
  12.4521673  51.1953833  73.2198903  13.4321673  43.3353833  58.5928903
  13.5351673  43.2773833  57.7288903  14.1731673  43.0033833  58.9108903
  13.5571673  43.2783833  58.5118903   7.3521673  50.3003833  59.6998903
   7.1471673  51.1333833  59.5408903   6.5771673  49.9183833  59.8218903
   7.2071673  50.3673833  59.6948903  12.5341673  43.4813833  67.9488903
  12.5321673  42.6183833  68.0728903  12.6011673  43.8053833  68.7558903
  12.5441673  43.4013833  68.0858903   8.4131673  38.2813833  71.7308903
   8.5051673  38.9933833  72.2248903   7.7761673  37.8363833  72.1278903
   8.3321673  38.3203833  71.8628903   7.4071673  38.4713833  62.5848903
   6.7071673  38.9893833  62.5288903   7.4451673  38.0913833  61.8008903
   7.3091673  38.4923833  62.4608903   2.7141673  50.5623833  56.1088903
   3.1551673  50.6423833  56.8568903   1.9091673  50.3463833  56.3668903
   2.6601673  50.5423833  56.2578903  11.0051673  38.9873833  65.3848903
  11.8601673  39.0863833  65.5298903  10.6361673  39.5403833  65.9498903
  11.0771673  39.0843833  65.4898903  11.3091673  44.2673833  63.8758903
  11.9751673  44.8083833  64.0358903  10.9641673  44.5783833  63.1368903
  11.3561673  44.3933833  63.7908903  11.6221673  52.3333833  59.6828903
  11.4481673  51.6793833  60.2328903  12.3351673  52.0623833  59.2598903
  11.7021673  52.1963833  59.7018903   2.8621673  47.8773833  55.4528903
   2.0441673  47.6093833  55.5928903   2.8341673  48.7293833  55.6378903
   2.7371673  47.9643833  55.5008903  14.4801673  36.8253833  68.5408903
  14.4281673  36.7813833  69.4108903  15.1671673  36.3223833  68.3508903
  14.5741673  36.7453833  68.6408903   6.5651673  38.9383833  65.5858903
   5.8281673  38.4843833  65.6988903   7.1361673  38.5363833  66.1088903
   6.5401673  38.8113833  65.6798903   9.2971673  49.7863833  67.3738903
   9.5031673  50.0873833  68.1658903   9.2361673  50.5083833  66.8888903
   9.3181673  49.9373833  67.4188903   8.8311673  54.0003833  71.6198903
   8.0781673  53.9823833  71.1788903   8.9991673  54.8523833  71.7038903
   8.7451673  54.1233833  71.5668903   4.0681673  43.2673833  70.7898903
   3.7461673  42.6913833  70.2198903   3.7091673  44.0223833  70.5438903
   3.9681673  43.2933833  70.6698903   4.8641673  36.5193833  55.4168903
   4.9421673  36.7663833  54.5838903   4.1211673  36.8963833  55.6748903
   4.7661673  36.6113833  55.3318903  14.1091673  48.4253833  66.8318903
  14.0771673  47.5633833  66.6968903  13.4161673  48.7273833  66.3978903
  14.0021673  48.3423833  66.7478903   2.5031673  53.6233833  71.0378903
   2.5441673  53.7493833  71.9008903   3.1541673  53.0633833  70.8818903
   2.6051673  53.5593833  71.1428903  12.2141673  51.6853833  65.6288903
  12.7411673  51.6023833  64.9378903  11.8231673  50.9073833  65.6828903
  12.2341673  51.5583833  65.5348903   8.7281673  37.1293833  64.8368903
   9.3981673  37.6733833  64.9638903   8.2251673  37.5533833  64.2638903
   8.7531673  37.2723833  64.7708903   8.0871673  42.9373833  62.3298903
   8.6381673  42.3303833  62.6298903   7.6621673  43.2003833  63.0448903
   8.1061673  42.8863833  62.4788903  10.0571673  44.7683833  58.8918903
  10.1251673  43.9183833  59.0728903   9.2341673  44.8543833  58.6138903
   9.9451673  44.6553833  58.8778903   3.9761673  45.6593833  57.8298903
   4.0761673  45.7983833  56.9748903   4.7941673  45.5993833  58.1258903
   4.1111673  45.6703833  57.7468903  13.1361673  53.7233833  55.3098903
  13.7731673  53.5893833  55.8908903  12.7951673  52.9293833  55.1928903
  13.1801673  53.5863833  55.3778903  13.3311673  46.1413833  72.0428903
  13.9651673  45.9713833  72.6168903  13.7481673  46.5443833  71.3908903
  13.4861673  46.1763833  72.0318903   9.2111673  49.9883833  57.6318903
   8.9601673  49.8603833  58.4578903   8.8941673  49.2933833  57.2108903
   9.1271673  49.8673833  57.6918903  13.9561673  40.7053833  72.7808903
  13.7601673  41.3493833  73.3358903  13.2341673  40.2153833  72.7728903
  13.8211673  40.7283833  72.8618903  13.8551673  41.6463833  65.7518903
  13.0221673  41.8963833  65.6798903  13.7991673  40.8063833  65.9808903
  13.7241673  41.5593833  65.7748903   3.1151673  38.6343833  70.9458903
   3.3491673  38.0583833  70.3328903   2.2731673  38.4533833  71.0868903
   3.0251673  38.5223833  70.8758903  10.7421673  46.2523833  73.3978903
  11.6131673  46.2163833  73.3618903  10.5231673  46.6723833  72.6658903
  10.8391673  46.3083833  73.2848903   6.0971673  48.1963833  57.0618903
   6.8141673  47.8493833  56.7058903   6.0631673  48.9963833  56.7138903
   6.1981673  48.2633833  56.9578903   7.5061673  36.8373833  41.3006493
   7.2611673  37.3253833  40.6206493   8.3691673  36.7643833  41.2006493
   7.5971673  36.8983833  41.1856493   7.3151673  43.7533833  45.9716493
   6.7911673  44.3493833  46.3346493   7.7121673  43.3853833  46.6556493
   7.2961673  43.7873833  46.1266493  13.4591673  51.1943833  38.9426493
  14.1601673  50.6753833  38.9386493  12.8721673  50.7493833  38.4736493
  13.4761673  51.0513833  38.8726493   9.9861673  44.8203833  42.6476493
  10.0661673  44.8243833  41.7786493   9.4021673  44.1883833  42.7966493
   9.9111673  44.7273833  42.5416493   3.9751673  37.9243833  40.4556493
   3.9051673  38.6013833  39.9096493   4.7161673  37.5363833  40.2066493
   4.0741673  37.9673833  40.3376493   3.6981673  48.1533833  52.7496493
   3.4621673  48.1503833  53.5896493   2.9501673  48.0053833  52.3256493
   3.5521673  48.1303833  52.8106493   3.0781673  40.7593833  47.2316493
   3.7561673  40.7773833  46.6826493   3.0331673  39.9233833  47.4766493
   3.1711673  40.6383833  47.1866493   3.6801673  51.3453833  50.0126493
   3.8181673  52.1053833  49.6056493   4.4711673  50.9803833  50.0396493
   3.8171673  51.4043833  49.9566493   4.7751673  49.2303833  44.5176493
   5.1231673  48.4313833  44.5476493   5.4401673  49.7343833  44.2626493
   4.9251673  49.1863833  44.4846493   4.8321673  48.6793833  40.7286493
   5.1631673  48.0353833  41.2146493   5.0721673  48.4683833  39.9176493
   4.9161673  48.5533833  40.6806493   6.8001673  42.8103833  52.0676493
   5.9521673  42.7113833  51.8896493   6.8291673  43.5553833  52.5216493
   6.6791673  42.9063833  52.1086493  11.3581673  35.7703833  51.1816493
  11.2001673  36.5393833  50.7996493  10.5861673  35.5503833  51.5256493
  11.2201673  35.8513833  51.1766493   4.1471673  37.4853833  43.3966493
   4.2201673  38.3453833  43.5256493   4.1091673  37.4103833  42.5286493
   4.1521673  37.6013833  43.2876493   8.8201673  40.4113833  35.6956493
   8.3701673  41.0923833  36.0026493   8.9341673  39.9073833  36.3986493
   8.7711673  40.4373833  35.8446493   2.7761673  50.4643833  40.2776493
   2.1971673  50.1893833  40.8696493   3.4001673  49.8553833  40.3026493
   2.7831673  50.3343833  40.3686493   8.9191673  52.7523833  37.7996493
   9.6461673  53.2243833  37.9016493   9.1481673  51.9583833  38.0796493
   9.0611673  52.7053833  37.8566493   7.0871673  53.1443833  39.7896493
   7.3011673  53.6713833  40.4516493   7.8541673  52.9703833  39.4106493
   7.2321673  53.1963833  39.8316493   3.3611673  39.8603833  54.6866493
   3.4781673  39.4063833  53.9506493   3.6491673  40.6583833  54.4836493
   3.4211673  39.9113833  54.5476493  14.2141673  40.3843833  41.9906493
  13.8681673  41.0623833  42.4166493  13.5781673  39.7863833  42.0066493
  14.0691673  40.3963833  42.0556493   9.5261673  53.1543833  48.0946493
  10.2701673  53.6103833  48.0846493   9.4051673  52.9403833  47.2576493
   9.6181673  53.1903833  47.9696493   2.5301673  52.6293833  43.5246493
   3.3741673  52.7333833  43.3296493   2.2331673  53.4473833  43.5926493
   2.6111673  52.7653833  43.5056493   5.7431673  37.1003833  52.8386493
   5.9211673  36.2913833  52.5636493   5.6001673  37.5413833  52.0996493
   5.7481673  37.0463833  52.6886493   6.3371673  42.0263833  41.6116493
   6.6241673  41.7943833  40.8216493   7.0691673  42.1053833  42.0806493
   6.4871673  42.0033833  41.5646493   7.0591673  42.3653833  36.7326493
   7.3401673  43.1533833  36.9816493   6.2831673  42.5303833  36.3696493
   6.9861673  42.5063833  36.7156493  11.1001673  54.3393833  38.1996493
  11.7651673  54.1913833  37.6546493  11.4601673  54.2563833  38.9896493
  11.2521673  54.3053833  38.2356493  13.8891673  38.7073833  47.3596493
  14.6461673  38.7793833  46.9316493  13.9521673  37.9343833  47.7586493
  14.0101673  38.6043833  47.3546493   8.7801673  50.3393833  51.7986493
   8.7461673  50.7213833  52.5826493   9.6341673  50.2973833  51.6276493
   8.9011673  50.3893833  51.8896493   5.9181673  50.5363833  36.5486493
   5.7371673  51.0813833  37.2056493   6.6841673  50.8263833  36.2476493
   6.0041673  50.6603833  36.6016493   9.4251673  38.4323833  37.6026493
   9.9651673  37.7503833  37.6786493   9.4871673  38.8303833  38.3766493
   9.5141673  38.3903833  37.7286493   6.6831673  40.8083833  38.9166493
   6.1751673  40.1463833  38.6626493   6.7351673  41.3123833  38.2066493
   6.6161673  40.7853833  38.7746493   7.2321673  53.5033833  49.2966493
   8.0001673  53.4233833  48.8906493   6.6491673  53.3823833  48.6586493
   7.2591673  53.4733833  49.1426493   6.6831673  37.7493833  38.8076493
   6.2281673  37.3473833  38.1816493   7.4561673  37.9043833  38.4326493
   6.7301673  37.7133833  38.6596493  13.5091673  54.1063833  42.1976493
  13.0541673  54.8233833  42.3986493  12.8951673  53.5353833  41.9556493
  13.3511673  54.1283833  42.1916493   5.2811673  40.1163833  43.3296493
   5.3551673  40.6843833  42.6716493   5.4021673  40.6083833  44.0396493
   5.3091673  40.2733833  43.3376493  10.5061673  49.9513833  41.7416493
  11.2071673  49.4693833  41.9306493   9.8461673  49.3823833  41.7866493
  10.5121673  49.7963833  41.7756493   2.8451673  46.3723833  45.7026493
   3.0171673  46.1623833  46.5316493   2.1901673  45.8383833  45.4866493
   2.7741673  46.2623833  45.7936493   9.0731673  40.2863833  49.2176493
   8.9781673  40.6053833  50.0236493   8.4801673  39.6473833  49.1796493
   8.9711673  40.2383833  49.3316493   3.5951673  46.3103833  48.2926493
   3.6481673  47.1573833  48.4946493   3.3101673  45.9403833  49.0296493
   3.5611673  46.3803833  48.4306493   9.7721673  47.0053833  47.4226493
   9.2581673  46.5933833  47.9936493   9.6461673  47.8493833  47.6036493
   9.6781673  47.0693833  47.5336493  10.3291673  36.2303833  42.0536493
  10.3781673  35.9123833  42.8646493  10.6521673  35.5863833  41.5606493
  10.3841673  36.0883833  42.1006493  12.7931673  40.4663833  50.3616493
  13.5651673  40.2413833  50.6986493  12.3181673  40.6833833  51.0616493
  12.8371673  40.4653833  50.5146493  13.0251673  47.4443833  37.5496493
  13.1441673  47.1573833  38.3646493  13.8321673  47.4653833  37.2196493
  13.1611673  47.4053833  37.6216493  15.2591673  51.9533833  51.8036493
  14.5771673  52.2633833  51.3566493  14.8901673  51.4953833  52.4486493
  15.1031673  51.9313833  51.8326493  10.9201673  43.9813833  37.1346493
  10.7001673  44.7123833  36.7126493  10.4721673  44.0323833  37.8816493
  10.8211673  44.0963833  37.1826493   2.5291673  47.1833833  41.1156493
   3.2421673  47.6783833  41.2056493   2.7511673  46.6163833  40.4896493
   2.6671673  47.1723833  41.0366493  15.1071673  38.8423833  36.5876493
  14.4451673  38.2743833  36.6106493  14.9141673  39.3543833  35.9076493
  14.9811673  38.8343833  36.4906493   4.3321673  42.5363833  54.5316493
   3.8481673  43.1133833  54.9736493   4.3041673  42.8313833  53.7106493
   4.2561673  42.6653833  54.4756493  15.4301673  43.2203833  49.1436493
  15.6451673  42.4203833  48.8676493  14.5801673  43.2803833  48.9546493
  15.3361673  43.1113833  49.0746493  13.1091673  38.4003833  38.8666493
  13.8551673  37.9933833  39.0656493  13.3721673  39.1153833  38.4416493
  13.2581673  38.4463833  38.8336493   7.0521673  50.8863833  43.4426493
   6.5291673  51.5203833  43.1496493   7.3621673  50.5223833  42.7136493
   7.0201673  50.9263833  43.2916493   9.5631673  40.6883833  43.9396493
   9.9071673  40.8403833  44.7266493   9.1101673  39.9503833  44.0526493
   9.5471673  40.6013833  44.0726493   4.0391673  39.9083833  38.3966493
   4.0371673  39.7913833  37.5316493   3.8581673  40.7563833  38.4886493
   4.0121673  40.0163833  38.2826493  13.0931673  52.3353833  49.8936493
  12.4221673  52.8493833  50.1116493  13.1561673  52.4353833  49.0296493
  13.0031673  52.4263833  49.7986493   1.7771673  49.8603833  43.0286493
   1.9031673  50.7033833  43.2156493   2.4451673  49.4613833  43.4246493
   1.8951673  49.9263833  43.1146493  10.8841673  42.0203833  46.4936493
  10.2221673  42.3483833  46.9566493  11.0711673  42.6543833  45.9246493
  10.8141673  42.1623833  46.4776493   5.0891673  53.0843833  47.4896493
   4.8121673  52.4433833  46.9666493   4.8811673  53.8103833  47.0516493
   5.0181673  53.0973833  47.3476493   7.5291673  37.9263833  49.9226493
   7.6781673  37.1013833  49.6796493   7.9081673  37.9813833  50.7066493
   7.6071673  37.8123833  50.0026493   9.0771673  39.9893833  40.0046493
   9.5671673  40.7063833  39.9276493   8.2871673  40.2503833  39.7416493
   9.0331673  40.1333833  39.9546493  10.3911673  47.8673833  51.9146493
  10.8751673  48.5853833  52.0126493  10.7851673  47.4403833  51.2636493
  10.5211673  47.9103833  51.8326493   4.6871673  50.7123833  53.0916493
   5.0411673  50.5343833  53.8686493   4.2511673  49.9833833  52.8926493
   4.6751673  50.5783833  53.1776493   5.6591673  41.4593833  45.7296493
   6.1391673  42.1583833  45.9376493   6.0321673  40.8123833  46.1806493
   5.7851673  41.4673833  45.8266493   7.8481673  44.6283833  38.0036493
   7.8401673  45.3503833  37.5136493   7.2091673  44.7633833  38.5806493
   7.7531673  44.7553833  38.0166493  12.8201673  48.4983833  41.9846493
  13.1761673  48.1483833  42.6996493  12.8121673  47.8373833  41.4146493
  12.8721673  48.3483833  42.0056493   8.8651673  51.5643833  45.8286493
   8.2621673  51.2683833  45.2716493   9.4101673  52.0163833  45.3196493
   8.8561673  51.5873833  45.6706493   8.8781673  48.4153833  45.2286493
   8.0811673  48.6393833  45.5026493   9.1361673  47.8213833  45.8136493
   8.7981673  48.3603833  45.3556493   2.7701673  53.2273833  39.6766493
   2.6231673  52.4513833  40.0476493   3.4591673  53.0803833  39.1616493
   2.8501673  53.0903833  39.6556493   5.0621673  52.7433833  38.0786493
   5.6841673  52.9063833  38.6686493   5.0981673  53.4343833  37.5466493
   5.1591673  52.8693833  38.0876493  12.1381673  46.4133833  50.0746493
  12.1931673  46.5383833  49.2126493  12.8911673  46.7333833  50.3766493
  12.2571673  46.4783833  49.9916493   8.3291673  51.7623833  54.3516493
   8.4931673  52.0453833  55.1606493   8.5921673  52.4233833  53.8466493
   8.3921673  51.9023833  54.3966493  13.1701673  36.7113833  53.0616493
  12.5331673  36.3113833  52.6196493  13.1961673  36.2803833  53.8196493
  13.0801673  36.5893833  53.1076493   7.8691673  46.2193833  49.6746493
   7.7141673  46.8293833  50.2786493   8.4031673  45.6613833  50.0806493
   7.9251673  46.2273833  49.8236493   6.2531673  44.6193833  40.3326493
   6.3121673  45.2693833  40.9116493   6.0641673  43.9233833  40.8236493
   6.2341673  44.6123833  40.4906493  11.4791673  48.9483833  46.2016493
  11.0001673  49.2463833  45.5356493  11.1231673  48.1723833  46.3796493
  11.3561673  48.8773833  46.1296493   5.4761673  46.6663833  44.7636493
   4.6291673  46.4723833  44.8446493   5.8001673  46.5013833  45.5566493
   5.3981673  46.6133833  44.8926493   2.2281673  53.3963833  35.6496493
   2.6671673  52.6993833  35.9376493   2.4351673  54.0203833  36.2226493
   2.3241673  53.3853833  35.7766493   2.5541673  41.5303833  43.8146493
   3.4001673  41.3403833  43.9126493   2.1841673  40.7533833  43.6766493
   2.6241673  41.3873833  43.8086493  15.1711673  53.1143833  38.1416493
  15.8651673  52.6473833  37.8936493  14.6321673  52.5163833  38.4786493
  15.1941673  52.9563833  38.1546493  12.4101673  45.8903833  47.3206493
  12.4031673  45.1143833  47.7186493  11.5691673  46.1243833  47.3136493
  12.2851673  45.8103833  47.3786493  13.6661673  45.9613833  44.7576493
  13.3801673  46.3623833  45.4776493  14.5261673  45.8993833  44.8846493
  13.7511673  46.0113833  44.8826493   3.3551673  42.7633833  38.6656493
   3.6271673  43.5893833  38.7326493   2.4921673  42.8383833  38.5696493
   3.2681673  42.8963833  38.6606493  11.3281673  39.8853833  53.2976493
  10.8031673  40.3443833  53.8216493  10.9671673  39.0903833  53.2916493
  11.1971673  39.8353833  53.3736493  14.7971673  51.5943833  45.2866493
  15.0871673  51.8513833  44.5056493  15.4921673  51.6903833  45.8056493
  14.9431673  51.6463833  45.2476493   9.8201673  43.4543833  53.3736493
   9.8931673  43.5583833  54.2366493   9.1861673  44.0123833  53.1526493
   9.7371673  43.5523833  53.4686493  12.0881673  43.7733833  51.7386493
  12.4071673  44.5593833  51.9416493  11.7181673  43.5033833  52.4816493
  12.0811673  43.8493833  51.8786493  11.4021673  50.1973833  37.2686493
  11.7361673  49.3913833  37.3036493  10.6471673  50.1253833  37.6986493
  11.3401673  50.0673833  37.3376493  11.8841673  42.0313833  42.9276493
  11.1391673  41.7083833  43.2456493  11.8861673  42.8573833  43.2076493
  11.7741673  42.1053833  43.0156493  14.7861673  44.3153833  54.4736493
  14.7341673  43.9743833  53.6726493  15.5231673  44.7823833  54.4516493
  14.8871673  44.3343833  54.3516493  14.3241673  47.9913833  50.6796493
  14.9521673  47.4423833  50.4236493  14.2631673  48.5563833  50.0176493
  14.4081673  47.9943833  50.5436493   8.7761673  48.0723833  36.6716493
   9.4601673  47.5583833  36.5026493   8.3591673  48.1183833  35.9066493
   8.8151673  48.0033833  36.5336493   3.4581673  49.2223833  47.9756493
   3.1601673  49.8143833  48.5426493   3.5131673  49.6643833  47.2266493
   3.4221673  49.3753833  47.9486493  10.7961673  38.3613833  50.3886493
  11.5401673  38.8133833  50.3256493  10.2301673  38.8313833  49.9196493
  10.8231673  38.4983833  50.3106493   5.9741673  45.6453833  47.4666493
   6.4501673  46.0193833  48.0946493   5.1511673  45.7793833  47.7256493
   5.9231673  45.7203833  47.5976493   2.6841673  41.2483833  50.2076493
   2.8451673  40.5043833  50.6346493   2.6391673  40.9993833  49.3726493
   2.7011673  41.1013833  50.1476493   5.2381673  53.0383833  42.6946493
   5.7841673  53.7173833  42.7486493   4.8881673  53.1203833  41.8996493
   5.2671673  53.1513833  42.5846493  12.0811673  36.3413833  48.0586493
  11.8011673  37.1663833  48.0146493  12.7971673  36.3943833  48.5546493
  12.1461673  36.4713833  48.1256493   4.4361673  37.0563833  50.0876493
   5.1411673  37.3763833  49.6856493   4.6771673  36.2493833  50.3146493
   4.5751673  36.9843833  50.0616493   3.4211673  51.2663833  46.0836493
   2.7971673  51.8483833  45.9016493   3.6691673  50.9803833  45.2976493
   3.3651673  51.3103833  45.9406493   7.7301673  47.9003833  53.0726493
   8.4871673  48.1863833  52.7466493   7.1831673  47.9523833  52.3946493
   7.7611673  47.9503833  52.9236493  11.6391673  50.4503833  51.5766493
  11.9851673  50.7203833  52.3306493  11.9331673  51.0323833  50.9966493
  11.7341673  50.5763833  51.6026493  13.5021673  42.5963833  36.9156493
  13.8801673  43.2733833  36.5156493  12.6601673  42.8203833  36.9466493
  13.4331673  42.7293833  36.8606493   5.0151673  46.0423833  35.9986493
   4.2101673  45.8653833  35.7136493   4.9821673  46.8933833  36.1906493
   4.8911673  46.1413833  35.9856493   8.9611673  41.2113833  51.7406493
   8.3131673  41.6813833  52.0886493   9.5261673  41.1223833  52.3996493
   8.9491673  41.2673833  51.8896493   8.6491673  42.7483833  48.0386493
   8.9511673  43.1683833  48.7416493   8.6851673  41.9083833  48.2706493
   8.6991673  42.6863833  48.1766493   6.0741673  52.9153833  51.9636493
   6.5521673  52.3153833  51.5476493   5.7231673  52.4723833  52.6286493
   6.0931673  52.7613833  52.0006493  11.1971673  42.1953833  40.2906493
  11.4041673  41.9943833  41.1146493  11.9531673  42.4633833  39.9486493
  11.3391673  42.2053833  40.3616493   4.4921673  37.0943833  46.1956493
   3.6661673  36.9453833  46.4326493   4.4521673  37.1293833  45.3246493
   4.3641673  37.0773833  46.1016493  12.2191673  38.2783833  41.7646493
  11.5051673  37.8073833  41.9356493  12.0571673  38.6193833  40.9786493
  12.0901673  38.2593833  41.6736493  12.6621673  46.2223833  40.1446493
  13.1381673  45.4933833  40.0966493  11.8411673  45.9363833  40.0686493
  12.6111673  46.0723833  40.1256493   6.1331673  48.1343833  50.9836493
   5.3381673  48.0703833  51.3346493   6.2041673  48.9813833  50.7886493
   6.0261673  48.2493833  51.0066493   8.8781673  47.3893833  42.4996493
   8.9541673  47.7303833  43.2986493   9.0471673  46.5423833  42.6206493
   8.9141673  47.3143833  42.6356493   6.4001673  46.6633833  42.0646493
   6.1021673  46.3483833  42.8216493   7.0951673  47.1363833  42.2996493
   6.4591673  46.6863833  42.2116493   6.6221673  50.7813833  50.0916493
   7.3091673  50.6673833  50.6166493   6.7561673  51.5723833  49.7476493
   6.7431673  50.8813833  50.1186493  14.7981673  43.3903833  51.9026493
  13.9431673  43.2683833  52.0286493  14.9511673  42.9953833  51.1396493
  14.6941673  43.3133833  51.8086493   9.3111673  44.0553833  50.4786493
   9.0561673  43.3363833  50.9006493  10.1321673  44.1713833  50.7486493
   9.3951673  43.9663833  50.5806493   7.2451673  45.2453833  53.6656493
   7.5681673  45.9313833  53.2336493   6.5411673  45.5683833  54.0676493
   7.1881673  45.3943833  53.6606493  10.3291673  53.6193833  44.5946493
   9.8781673  54.2623833  44.9736493  11.0371673  53.5403833  45.0996493
  10.3671673  53.7023833  44.7256493   7.0301673  48.7093833  47.5246493
   6.3361673  49.1113833  47.8676493   7.7071673  49.1423833  47.8636493
   7.0271673  48.8323833  47.6256493  12.4071673  51.3023833  54.1046493
  13.1831673  50.9123833  54.1876493  11.9381673  50.9663833  54.7596493
  12.4521673  51.1953833  54.2136493  13.4321673  43.3353833  39.5866493
  13.5351673  43.2773833  38.7226493  14.1731673  43.0033833  39.9046493
  13.5571673  43.2783833  39.5056493   7.3521673  50.3003833  40.6936493
   7.1471673  51.1333833  40.5346493   6.5771673  49.9183833  40.8156493
   7.2071673  50.3673833  40.6886493  12.5341673  43.4813833  48.9426493
  12.5321673  42.6183833  49.0666493  12.6011673  43.8053833  49.7496493
  12.5441673  43.4013833  49.0796493   8.4131673  38.2813833  52.7246493
   8.5051673  38.9933833  53.2186493   7.7761673  37.8363833  53.1216493
   8.3321673  38.3203833  52.8566493   7.4071673  38.4713833  43.5786493
   6.7071673  38.9893833  43.5226493   7.4451673  38.0913833  42.7946493
   7.3091673  38.4923833  43.4546493   2.7141673  50.5623833  37.1026493
   3.1551673  50.6423833  37.8506493   1.9091673  50.3463833  37.3606493
   2.6601673  50.5423833  37.2516493  11.0051673  38.9873833  46.3786493
  11.8601673  39.0863833  46.5236493  10.6361673  39.5403833  46.9436493
  11.0771673  39.0843833  46.4836493  11.3091673  44.2673833  44.8696493
  11.9751673  44.8083833  45.0296493  10.9641673  44.5783833  44.1306493
  11.3561673  44.3933833  44.7846493  11.6221673  52.3333833  40.6766493
  11.4481673  51.6793833  41.2266493  12.3351673  52.0623833  40.2536493
  11.7021673  52.1963833  40.6956493   2.8621673  47.8773833  36.4466493
   2.0441673  47.6093833  36.5866493   2.8341673  48.7293833  36.6316493
   2.7371673  47.9643833  36.4946493  14.4801673  36.8253833  49.5346493
  14.4281673  36.7813833  50.4046493  15.1671673  36.3223833  49.3446493
  14.5741673  36.7453833  49.6346493   6.5651673  38.9383833  46.5796493
   5.8281673  38.4843833  46.6926493   7.1361673  38.5363833  47.1026493
   6.5401673  38.8113833  46.6736493   9.2971673  49.7863833  48.3676493
   9.5031673  50.0873833  49.1596493   9.2361673  50.5083833  47.8826493
   9.3181673  49.9373833  48.4126493   8.8311673  54.0003833  52.6136493
   8.0781673  53.9823833  52.1726493   8.9991673  54.8523833  52.6976493
   8.7451673  54.1233833  52.5606493   4.0681673  43.2673833  51.7836493
   3.7461673  42.6913833  51.2136493   3.7091673  44.0223833  51.5376493
   3.9681673  43.2933833  51.6636493   4.8641673  36.5193833  36.4106493
   4.9421673  36.7663833  35.5776493   4.1211673  36.8963833  36.6686493
   4.7661673  36.6113833  36.3256493  14.1091673  48.4253833  47.8256493
  14.0771673  47.5633833  47.6906493  13.4161673  48.7273833  47.3916493
  14.0021673  48.3423833  47.7416493   2.5031673  53.6233833  52.0316493
   2.5441673  53.7493833  52.8946493   3.1541673  53.0633833  51.8756493
   2.6051673  53.5593833  52.1366493  12.2141673  51.6853833  46.6226493
  12.7411673  51.6023833  45.9316493  11.8231673  50.9073833  46.6766493
  12.2341673  51.5583833  46.5286493   8.7281673  37.1293833  45.8306493
   9.3981673  37.6733833  45.9576493   8.2251673  37.5533833  45.2576493
   8.7531673  37.2723833  45.7646493   8.0871673  42.9373833  43.3236493
   8.6381673  42.3303833  43.6236493   7.6621673  43.2003833  44.0386493
   8.1061673  42.8863833  43.4726493  10.0571673  44.7683833  39.8856493
  10.1251673  43.9183833  40.0666493   9.2341673  44.8543833  39.6076493
   9.9451673  44.6553833  39.8716493   3.9761673  45.6593833  38.8236493
   4.0761673  45.7983833  37.9686493   4.7941673  45.5993833  39.1196493
   4.1111673  45.6703833  38.7406493  13.1361673  53.7233833  36.3036493
  13.7731673  53.5893833  36.8846493  12.7951673  52.9293833  36.1866493
  13.1801673  53.5863833  36.3716493  13.3311673  46.1413833  53.0366493
  13.9651673  45.9713833  53.6106493  13.7481673  46.5443833  52.3846493
  13.4861673  46.1763833  53.0256493   9.2111673  49.9883833  38.6256493
   8.9601673  49.8603833  39.4516493   8.8941673  49.2933833  38.2046493
   9.1271673  49.8673833  38.6856493  13.9561673  40.7053833  53.7746493
  13.7601673  41.3493833  54.3296493  13.2341673  40.2153833  53.7666493
  13.8211673  40.7283833  53.8556493  13.8551673  41.6463833  46.7456493
  13.0221673  41.8963833  46.6736493  13.7991673  40.8063833  46.9746493
  13.7241673  41.5593833  46.7686493   3.1151673  38.6343833  51.9396493
   3.3491673  38.0583833  51.3266493   2.2731673  38.4533833  52.0806493
   3.0251673  38.5223833  51.8696493  10.7421673  46.2523833  54.3916493
  11.6131673  46.2163833  54.3556493  10.5231673  46.6723833  53.6596493
  10.8391673  46.3083833  54.2786493   6.0971673  48.1963833  38.0556493
   6.8141673  47.8493833  37.6996493   6.0631673  48.9963833  37.7076493
   6.1981673  48.2633833  37.9516493   7.5061673  36.8373833  22.2944083
   7.2611673  37.3253833  21.6144083   8.3691673  36.7643833  22.1944083
   7.5971673  36.8983833  22.1794083   7.3151673  43.7533833  26.9654083
   6.7911673  44.3493833  27.3284083   7.7121673  43.3853833  27.6494083
   7.2961673  43.7873833  27.1204083  13.4591673  51.1943833  19.9364083
  14.1601673  50.6753833  19.9324083  12.8721673  50.7493833  19.4674083
  13.4761673  51.0513833  19.8664083   9.9861673  44.8203833  23.6414083
  10.0661673  44.8243833  22.7724083   9.4021673  44.1883833  23.7904083
   9.9111673  44.7273833  23.5354083   3.9751673  37.9243833  21.4494083
   3.9051673  38.6013833  20.9034083   4.7161673  37.5363833  21.2004083
   4.0741673  37.9673833  21.3314083   3.6981673  48.1533833  33.7434083
   3.4621673  48.1503833  34.5834083   2.9501673  48.0053833  33.3194083
   3.5521673  48.1303833  33.8044083   3.0781673  40.7593833  28.2254083
   3.7561673  40.7773833  27.6764083   3.0331673  39.9233833  28.4704083
   3.1711673  40.6383833  28.1804083   3.6801673  51.3453833  31.0064083
   3.8181673  52.1053833  30.5994083   4.4711673  50.9803833  31.0334083
   3.8171673  51.4043833  30.9504083   4.7751673  49.2303833  25.5114083
   5.1231673  48.4313833  25.5414083   5.4401673  49.7343833  25.2564083
   4.9251673  49.1863833  25.4784083   4.8321673  48.6793833  21.7224083
   5.1631673  48.0353833  22.2084083   5.0721673  48.4683833  20.9114083
   4.9161673  48.5533833  21.6744083   6.8001673  42.8103833  33.0614083
   5.9521673  42.7113833  32.8834083   6.8291673  43.5553833  33.5154083
   6.6791673  42.9063833  33.1024083  11.3581673  35.7703833  32.1754083
  11.2001673  36.5393833  31.7934083  10.5861673  35.5503833  32.5194083
  11.2201673  35.8513833  32.1704083   4.1471673  37.4853833  24.3904083
   4.2201673  38.3453833  24.5194083   4.1091673  37.4103833  23.5224083
   4.1521673  37.6013833  24.2814083   8.8201673  40.4113833  16.6894083
   8.3701673  41.0923833  16.9964083   8.9341673  39.9073833  17.3924083
   8.7711673  40.4373833  16.8384083   2.7761673  50.4643833  21.2714083
   2.1971673  50.1893833  21.8634083   3.4001673  49.8553833  21.2964083
   2.7831673  50.3343833  21.3624083   8.9191673  52.7523833  18.7934083
   9.6461673  53.2243833  18.8954083   9.1481673  51.9583833  19.0734083
   9.0611673  52.7053833  18.8504083   7.0871673  53.1443833  20.7834083
   7.3011673  53.6713833  21.4454083   7.8541673  52.9703833  20.4044083
   7.2321673  53.1963833  20.8254083   3.3611673  39.8603833  35.6804083
   3.4781673  39.4063833  34.9444083   3.6491673  40.6583833  35.4774083
   3.4211673  39.9113833  35.5414083  14.2141673  40.3843833  22.9844083
  13.8681673  41.0623833  23.4104083  13.5781673  39.7863833  23.0004083
  14.0691673  40.3963833  23.0494083   9.5261673  53.1543833  29.0884083
  10.2701673  53.6103833  29.0784083   9.4051673  52.9403833  28.2514083
   9.6181673  53.1903833  28.9634083   2.5301673  52.6293833  24.5184083
   3.3741673  52.7333833  24.3234083   2.2331673  53.4473833  24.5864083
   2.6111673  52.7653833  24.4994083   5.7431673  37.1003833  33.8324083
   5.9211673  36.2913833  33.5574083   5.6001673  37.5413833  33.0934083
   5.7481673  37.0463833  33.6824083   6.3371673  42.0263833  22.6054083
   6.6241673  41.7943833  21.8154083   7.0691673  42.1053833  23.0744083
   6.4871673  42.0033833  22.5584083   7.0591673  42.3653833  17.7264083
   7.3401673  43.1533833  17.9754083   6.2831673  42.5303833  17.3634083
   6.9861673  42.5063833  17.7094083  11.1001673  54.3393833  19.1934083
  11.7651673  54.1913833  18.6484083  11.4601673  54.2563833  19.9834083
  11.2521673  54.3053833  19.2294083  13.8891673  38.7073833  28.3534083
  14.6461673  38.7793833  27.9254083  13.9521673  37.9343833  28.7524083
  14.0101673  38.6043833  28.3484083   8.7801673  50.3393833  32.7924083
   8.7461673  50.7213833  33.5764083   9.6341673  50.2973833  32.6214083
   8.9011673  50.3893833  32.8834083   5.9181673  50.5363833  17.5424083
   5.7371673  51.0813833  18.1994083   6.6841673  50.8263833  17.2414083
   6.0041673  50.6603833  17.5954083   9.4251673  38.4323833  18.5964083
   9.9651673  37.7503833  18.6724083   9.4871673  38.8303833  19.3704083
   9.5141673  38.3903833  18.7224083   6.6831673  40.8083833  19.9104083
   6.1751673  40.1463833  19.6564083   6.7351673  41.3123833  19.2004083
   6.6161673  40.7853833  19.7684083   7.2321673  53.5033833  30.2904083
   8.0001673  53.4233833  29.8844083   6.6491673  53.3823833  29.6524083
   7.2591673  53.4733833  30.1364083   6.6831673  37.7493833  19.8014083
   6.2281673  37.3473833  19.1754083   7.4561673  37.9043833  19.4264083
   6.7301673  37.7133833  19.6534083  13.5091673  54.1063833  23.1914083
  13.0541673  54.8233833  23.3924083  12.8951673  53.5353833  22.9494083
  13.3511673  54.1283833  23.1854083   5.2811673  40.1163833  24.3234083
   5.3551673  40.6843833  23.6654083   5.4021673  40.6083833  25.0334083
   5.3091673  40.2733833  24.3314083  10.5061673  49.9513833  22.7354083
  11.2071673  49.4693833  22.9244083   9.8461673  49.3823833  22.7804083
  10.5121673  49.7963833  22.7694083   2.8451673  46.3723833  26.6964083
   3.0171673  46.1623833  27.5254083   2.1901673  45.8383833  26.4804083
   2.7741673  46.2623833  26.7874083   9.0731673  40.2863833  30.2114083
   8.9781673  40.6053833  31.0174083   8.4801673  39.6473833  30.1734083
   8.9711673  40.2383833  30.3254083   3.5951673  46.3103833  29.2864083
   3.6481673  47.1573833  29.4884083   3.3101673  45.9403833  30.0234083
   3.5611673  46.3803833  29.4244083   9.7721673  47.0053833  28.4164083
   9.2581673  46.5933833  28.9874083   9.6461673  47.8493833  28.5974083
   9.6781673  47.0693833  28.5274083  10.3291673  36.2303833  23.0474083
  10.3781673  35.9123833  23.8584083  10.6521673  35.5863833  22.5544083
  10.3841673  36.0883833  23.0944083  12.7931673  40.4663833  31.3554083
  13.5651673  40.2413833  31.6924083  12.3181673  40.6833833  32.0554083
  12.8371673  40.4653833  31.5084083  13.0251673  47.4443833  18.5434083
  13.1441673  47.1573833  19.3584083  13.8321673  47.4653833  18.2134083
  13.1611673  47.4053833  18.6154083  15.2591673  51.9533833  32.7974083
  14.5771673  52.2633833  32.3504083  14.8901673  51.4953833  33.4424083
  15.1031673  51.9313833  32.8264083  10.9201673  43.9813833  18.1284083
  10.7001673  44.7123833  17.7064083  10.4721673  44.0323833  18.8754083
  10.8211673  44.0963833  18.1764083   2.5291673  47.1833833  22.1094083
   3.2421673  47.6783833  22.1994083   2.7511673  46.6163833  21.4834083
   2.6671673  47.1723833  22.0304083  15.1071673  38.8423833  17.5814083
  14.4451673  38.2743833  17.6044083  14.9141673  39.3543833  16.9014083
  14.9811673  38.8343833  17.4844083   4.3321673  42.5363833  35.5254083
   3.8481673  43.1133833  35.9674083   4.3041673  42.8313833  34.7044083
   4.2561673  42.6653833  35.4694083  15.4301673  43.2203833  30.1374083
  15.6451673  42.4203833  29.8614083  14.5801673  43.2803833  29.9484083
  15.3361673  43.1113833  30.0684083  13.1091673  38.4003833  19.8604083
  13.8551673  37.9933833  20.0594083  13.3721673  39.1153833  19.4354083
  13.2581673  38.4463833  19.8274083   7.0521673  50.8863833  24.4364083
   6.5291673  51.5203833  24.1434083   7.3621673  50.5223833  23.7074083
   7.0201673  50.9263833  24.2854083   9.5631673  40.6883833  24.9334083
   9.9071673  40.8403833  25.7204083   9.1101673  39.9503833  25.0464083
   9.5471673  40.6013833  25.0664083   4.0391673  39.9083833  19.3904083
   4.0371673  39.7913833  18.5254083   3.8581673  40.7563833  19.4824083
   4.0121673  40.0163833  19.2764083  13.0931673  52.3353833  30.8874083
  12.4221673  52.8493833  31.1054083  13.1561673  52.4353833  30.0234083
  13.0031673  52.4263833  30.7924083   1.7771673  49.8603833  24.0224083
   1.9031673  50.7033833  24.2094083   2.4451673  49.4613833  24.4184083
   1.8951673  49.9263833  24.1084083  10.8841673  42.0203833  27.4874083
  10.2221673  42.3483833  27.9504083  11.0711673  42.6543833  26.9184083
  10.8141673  42.1623833  27.4714083   5.0891673  53.0843833  28.4834083
   4.8121673  52.4433833  27.9604083   4.8811673  53.8103833  28.0454083
   5.0181673  53.0973833  28.3414083   7.5291673  37.9263833  30.9164083
   7.6781673  37.1013833  30.6734083   7.9081673  37.9813833  31.7004083
   7.6071673  37.8123833  30.9964083   9.0771673  39.9893833  20.9984083
   9.5671673  40.7063833  20.9214083   8.2871673  40.2503833  20.7354083
   9.0331673  40.1333833  20.9484083  10.3911673  47.8673833  32.9084083
  10.8751673  48.5853833  33.0064083  10.7851673  47.4403833  32.2574083
  10.5211673  47.9103833  32.8264083   4.6871673  50.7123833  34.0854083
   5.0411673  50.5343833  34.8624083   4.2511673  49.9833833  33.8864083
   4.6751673  50.5783833  34.1714083   5.6591673  41.4593833  26.7234083
   6.1391673  42.1583833  26.9314083   6.0321673  40.8123833  27.1744083
   5.7851673  41.4673833  26.8204083   7.8481673  44.6283833  18.9974083
   7.8401673  45.3503833  18.5074083   7.2091673  44.7633833  19.5744083
   7.7531673  44.7553833  19.0104083  12.8201673  48.4983833  22.9784083
  13.1761673  48.1483833  23.6934083  12.8121673  47.8373833  22.4084083
  12.8721673  48.3483833  22.9994083   8.8651673  51.5643833  26.8224083
   8.2621673  51.2683833  26.2654083   9.4101673  52.0163833  26.3134083
   8.8561673  51.5873833  26.6644083   8.8781673  48.4153833  26.2224083
   8.0811673  48.6393833  26.4964083   9.1361673  47.8213833  26.8074083
   8.7981673  48.3603833  26.3494083   2.7701673  53.2273833  20.6704083
   2.6231673  52.4513833  21.0414083   3.4591673  53.0803833  20.1554083
   2.8501673  53.0903833  20.6494083   5.0621673  52.7433833  19.0724083
   5.6841673  52.9063833  19.6624083   5.0981673  53.4343833  18.5404083
   5.1591673  52.8693833  19.0814083  12.1381673  46.4133833  31.0684083
  12.1931673  46.5383833  30.2064083  12.8911673  46.7333833  31.3704083
  12.2571673  46.4783833  30.9854083   8.3291673  51.7623833  35.3454083
   8.4931673  52.0453833  36.1544083   8.5921673  52.4233833  34.8404083
   8.3921673  51.9023833  35.3904083  13.1701673  36.7113833  34.0554083
  12.5331673  36.3113833  33.6134083  13.1961673  36.2803833  34.8134083
  13.0801673  36.5893833  34.1014083   7.8691673  46.2193833  30.6684083
   7.7141673  46.8293833  31.2724083   8.4031673  45.6613833  31.0744083
   7.9251673  46.2273833  30.8174083   6.2531673  44.6193833  21.3264083
   6.3121673  45.2693833  21.9054083   6.0641673  43.9233833  21.8174083
   6.2341673  44.6123833  21.4844083  11.4791673  48.9483833  27.1954083
  11.0001673  49.2463833  26.5294083  11.1231673  48.1723833  27.3734083
  11.3561673  48.8773833  27.1234083   5.4761673  46.6663833  25.7574083
   4.6291673  46.4723833  25.8384083   5.8001673  46.5013833  26.5504083
   5.3981673  46.6133833  25.8864083   2.2281673  53.3963833  16.6434083
   2.6671673  52.6993833  16.9314083   2.4351673  54.0203833  17.2164083
   2.3241673  53.3853833  16.7704083   2.5541673  41.5303833  24.8084083
   3.4001673  41.3403833  24.9064083   2.1841673  40.7533833  24.6704083
   2.6241673  41.3873833  24.8024083  15.1711673  53.1143833  19.1354083
  15.8651673  52.6473833  18.8874083  14.6321673  52.5163833  19.4724083
  15.1941673  52.9563833  19.1484083  12.4101673  45.8903833  28.3144083
  12.4031673  45.1143833  28.7124083  11.5691673  46.1243833  28.3074083
  12.2851673  45.8103833  28.3724083  13.6661673  45.9613833  25.7514083
  13.3801673  46.3623833  26.4714083  14.5261673  45.8993833  25.8784083
  13.7511673  46.0113833  25.8764083   3.3551673  42.7633833  19.6594083
   3.6271673  43.5893833  19.7264083   2.4921673  42.8383833  19.5634083
   3.2681673  42.8963833  19.6544083  11.3281673  39.8853833  34.2914083
  10.8031673  40.3443833  34.8154083  10.9671673  39.0903833  34.2854083
  11.1971673  39.8353833  34.3674083  14.7971673  51.5943833  26.2804083
  15.0871673  51.8513833  25.4994083  15.4921673  51.6903833  26.7994083
  14.9431673  51.6463833  26.2414083   9.8201673  43.4543833  34.3674083
   9.8931673  43.5583833  35.2304083   9.1861673  44.0123833  34.1464083
   9.7371673  43.5523833  34.4624083  12.0881673  43.7733833  32.7324083
  12.4071673  44.5593833  32.9354083  11.7181673  43.5033833  33.4754083
  12.0811673  43.8493833  32.8724083  11.4021673  50.1973833  18.2624083
  11.7361673  49.3913833  18.2974083  10.6471673  50.1253833  18.6924083
  11.3401673  50.0673833  18.3314083  11.8841673  42.0313833  23.9214083
  11.1391673  41.7083833  24.2394083  11.8861673  42.8573833  24.2014083
  11.7741673  42.1053833  24.0094083  14.7861673  44.3153833  35.4674083
  14.7341673  43.9743833  34.6664083  15.5231673  44.7823833  35.4454083
  14.8871673  44.3343833  35.3454083  14.3241673  47.9913833  31.6734083
  14.9521673  47.4423833  31.4174083  14.2631673  48.5563833  31.0114083
  14.4081673  47.9943833  31.5374083   8.7761673  48.0723833  17.6654083
   9.4601673  47.5583833  17.4964083   8.3591673  48.1183833  16.9004083
   8.8151673  48.0033833  17.5274083   3.4581673  49.2223833  28.9694083
   3.1601673  49.8143833  29.5364083   3.5131673  49.6643833  28.2204083
   3.4221673  49.3753833  28.9424083  10.7961673  38.3613833  31.3824083
  11.5401673  38.8133833  31.3194083  10.2301673  38.8313833  30.9134083
  10.8231673  38.4983833  31.3044083   5.9741673  45.6453833  28.4604083
   6.4501673  46.0193833  29.0884083   5.1511673  45.7793833  28.7194083
   5.9231673  45.7203833  28.5914083   2.6841673  41.2483833  31.2014083
   2.8451673  40.5043833  31.6284083   2.6391673  40.9993833  30.3664083
   2.7011673  41.1013833  31.1414083   5.2381673  53.0383833  23.6884083
   5.7841673  53.7173833  23.7424083   4.8881673  53.1203833  22.8934083
   5.2671673  53.1513833  23.5784083  12.0811673  36.3413833  29.0524083
  11.8011673  37.1663833  29.0084083  12.7971673  36.3943833  29.5484083
  12.1461673  36.4713833  29.1194083   4.4361673  37.0563833  31.0814083
   5.1411673  37.3763833  30.6794083   4.6771673  36.2493833  31.3084083
   4.5751673  36.9843833  31.0554083   3.4211673  51.2663833  27.0774083
   2.7971673  51.8483833  26.8954083   3.6691673  50.9803833  26.2914083
   3.3651673  51.3103833  26.9344083   7.7301673  47.9003833  34.0664083
   8.4871673  48.1863833  33.7404083   7.1831673  47.9523833  33.3884083
   7.7611673  47.9503833  33.9174083  11.6391673  50.4503833  32.5704083
  11.9851673  50.7203833  33.3244083  11.9331673  51.0323833  31.9904083
  11.7341673  50.5763833  32.5964083  13.5021673  42.5963833  17.9094083
  13.8801673  43.2733833  17.5094083  12.6601673  42.8203833  17.9404083
  13.4331673  42.7293833  17.8544083   5.0151673  46.0423833  16.9924083
   4.2101673  45.8653833  16.7074083   4.9821673  46.8933833  17.1844083
   4.8911673  46.1413833  16.9794083   8.9611673  41.2113833  32.7344083
   8.3131673  41.6813833  33.0824083   9.5261673  41.1223833  33.3934083
   8.9491673  41.2673833  32.8834083   8.6491673  42.7483833  29.0324083
   8.9511673  43.1683833  29.7354083   8.6851673  41.9083833  29.2644083
   8.6991673  42.6863833  29.1704083   6.0741673  52.9153833  32.9574083
   6.5521673  52.3153833  32.5414083   5.7231673  52.4723833  33.6224083
   6.0931673  52.7613833  32.9944083  11.1971673  42.1953833  21.2844083
  11.4041673  41.9943833  22.1084083  11.9531673  42.4633833  20.9424083
  11.3391673  42.2053833  21.3554083   4.4921673  37.0943833  27.1894083
   3.6661673  36.9453833  27.4264083   4.4521673  37.1293833  26.3184083
   4.3641673  37.0773833  27.0954083  12.2191673  38.2783833  22.7584083
  11.5051673  37.8073833  22.9294083  12.0571673  38.6193833  21.9724083
  12.0901673  38.2593833  22.6674083  12.6621673  46.2223833  21.1384083
  13.1381673  45.4933833  21.0904083  11.8411673  45.9363833  21.0624083
  12.6111673  46.0723833  21.1194083   6.1331673  48.1343833  31.9774083
   5.3381673  48.0703833  32.3284083   6.2041673  48.9813833  31.7824083
   6.0261673  48.2493833  32.0004083   8.8781673  47.3893833  23.4934083
   8.9541673  47.7303833  24.2924083   9.0471673  46.5423833  23.6144083
   8.9141673  47.3143833  23.6294083   6.4001673  46.6633833  23.0584083
   6.1021673  46.3483833  23.8154083   7.0951673  47.1363833  23.2934083
   6.4591673  46.6863833  23.2054083   6.6221673  50.7813833  31.0854083
   7.3091673  50.6673833  31.6104083   6.7561673  51.5723833  30.7414083
   6.7431673  50.8813833  31.1124083  14.7981673  43.3903833  32.8964083
  13.9431673  43.2683833  33.0224083  14.9511673  42.9953833  32.1334083
  14.6941673  43.3133833  32.8024083   9.3111673  44.0553833  31.4724083
   9.0561673  43.3363833  31.8944083  10.1321673  44.1713833  31.7424083
   9.3951673  43.9663833  31.5744083   7.2451673  45.2453833  34.6594083
   7.5681673  45.9313833  34.2274083   6.5411673  45.5683833  35.0614083
   7.1881673  45.3943833  34.6544083  10.3291673  53.6193833  25.5884083
   9.8781673  54.2623833  25.9674083  11.0371673  53.5403833  26.0934083
  10.3671673  53.7023833  25.7194083   7.0301673  48.7093833  28.5184083
   6.3361673  49.1113833  28.8614083   7.7071673  49.1423833  28.8574083
   7.0271673  48.8323833  28.6194083  12.4071673  51.3023833  35.0984083
  13.1831673  50.9123833  35.1814083  11.9381673  50.9663833  35.7534083
  12.4521673  51.1953833  35.2074083  13.4321673  43.3353833  20.5804083
  13.5351673  43.2773833  19.7164083  14.1731673  43.0033833  20.8984083
  13.5571673  43.2783833  20.4994083   7.3521673  50.3003833  21.6874083
   7.1471673  51.1333833  21.5284083   6.5771673  49.9183833  21.8094083
   7.2071673  50.3673833  21.6824083  12.5341673  43.4813833  29.9364083
  12.5321673  42.6183833  30.0604083  12.6011673  43.8053833  30.7434083
  12.5441673  43.4013833  30.0734083   8.4131673  38.2813833  33.7184083
   8.5051673  38.9933833  34.2124083   7.7761673  37.8363833  34.1154083
   8.3321673  38.3203833  33.8504083   7.4071673  38.4713833  24.5724083
   6.7071673  38.9893833  24.5164083   7.4451673  38.0913833  23.7884083
   7.3091673  38.4923833  24.4484083   2.7141673  50.5623833  18.0964083
   3.1551673  50.6423833  18.8444083   1.9091673  50.3463833  18.3544083
   2.6601673  50.5423833  18.2454083  11.0051673  38.9873833  27.3724083
  11.8601673  39.0863833  27.5174083  10.6361673  39.5403833  27.9374083
  11.0771673  39.0843833  27.4774083  11.3091673  44.2673833  25.8634083
  11.9751673  44.8083833  26.0234083  10.9641673  44.5783833  25.1244083
  11.3561673  44.3933833  25.7784083  11.6221673  52.3333833  21.6704083
  11.4481673  51.6793833  22.2204083  12.3351673  52.0623833  21.2474083
  11.7021673  52.1963833  21.6894083   2.8621673  47.8773833  17.4404083
   2.0441673  47.6093833  17.5804083   2.8341673  48.7293833  17.6254083
   2.7371673  47.9643833  17.4884083  14.4801673  36.8253833  30.5284083
  14.4281673  36.7813833  31.3984083  15.1671673  36.3223833  30.3384083
  14.5741673  36.7453833  30.6284083   6.5651673  38.9383833  27.5734083
   5.8281673  38.4843833  27.6864083   7.1361673  38.5363833  28.0964083
   6.5401673  38.8113833  27.6674083   9.2971673  49.7863833  29.3614083
   9.5031673  50.0873833  30.1534083   9.2361673  50.5083833  28.8764083
   9.3181673  49.9373833  29.4064083   8.8311673  54.0003833  33.6074083
   8.0781673  53.9823833  33.1664083   8.9991673  54.8523833  33.6914083
   8.7451673  54.1233833  33.5544083   4.0681673  43.2673833  32.7774083
   3.7461673  42.6913833  32.2074083   3.7091673  44.0223833  32.5314083
   3.9681673  43.2933833  32.6574083   4.8641673  36.5193833  17.4044083
   4.9421673  36.7663833  16.5714083   4.1211673  36.8963833  17.6624083
   4.7661673  36.6113833  17.3194083  14.1091673  48.4253833  28.8194083
  14.0771673  47.5633833  28.6844083  13.4161673  48.7273833  28.3854083
  14.0021673  48.3423833  28.7354083   2.5031673  53.6233833  33.0254083
   2.5441673  53.7493833  33.8884083   3.1541673  53.0633833  32.8694083
   2.6051673  53.5593833  33.1304083  12.2141673  51.6853833  27.6164083
  12.7411673  51.6023833  26.9254083  11.8231673  50.9073833  27.6704083
  12.2341673  51.5583833  27.5224083   8.7281673  37.1293833  26.8244083
   9.3981673  37.6733833  26.9514083   8.2251673  37.5533833  26.2514083
   8.7531673  37.2723833  26.7584083   8.0871673  42.9373833  24.3174083
   8.6381673  42.3303833  24.6174083   7.6621673  43.2003833  25.0324083
   8.1061673  42.8863833  24.4664083  10.0571673  44.7683833  20.8794083
  10.1251673  43.9183833  21.0604083   9.2341673  44.8543833  20.6014083
   9.9451673  44.6553833  20.8654083   3.9761673  45.6593833  19.8174083
   4.0761673  45.7983833  18.9624083   4.7941673  45.5993833  20.1134083
   4.1111673  45.6703833  19.7344083  13.1361673  53.7233833  17.2974083
  13.7731673  53.5893833  17.8784083  12.7951673  52.9293833  17.1804083
  13.1801673  53.5863833  17.3654083  13.3311673  46.1413833  34.0304083
  13.9651673  45.9713833  34.6044083  13.7481673  46.5443833  33.3784083
  13.4861673  46.1763833  34.0194083   9.2111673  49.9883833  19.6194083
   8.9601673  49.8603833  20.4454083   8.8941673  49.2933833  19.1984083
   9.1271673  49.8673833  19.6794083  13.9561673  40.7053833  34.7684083
  13.7601673  41.3493833  35.3234083  13.2341673  40.2153833  34.7604083
  13.8211673  40.7283833  34.8494083  13.8551673  41.6463833  27.7394083
  13.0221673  41.8963833  27.6674083  13.7991673  40.8063833  27.9684083
  13.7241673  41.5593833  27.7624083   3.1151673  38.6343833  32.9334083
   3.3491673  38.0583833  32.3204083   2.2731673  38.4533833  33.0744083
   3.0251673  38.5223833  32.8634083  10.7421673  46.2523833  35.3854083
  11.6131673  46.2163833  35.3494083  10.5231673  46.6723833  34.6534083
  10.8391673  46.3083833  35.2724083   6.0971673  48.1963833  19.0494083
   6.8141673  47.8493833  18.6934083   6.0631673  48.9963833  18.7014083
   6.1981673  48.2633833  18.9454083   7.5061673  36.8373833   3.2881673
   7.2611673  37.3253833   2.6081673   8.3691673  36.7643833   3.1881673
   7.5971673  36.8983833   3.1731673   7.3151673  43.7533833   7.9591673
   6.7911673  44.3493833   8.3221673   7.7121673  43.3853833   8.6431673
   7.2961673  43.7873833   8.1141673   9.9861673  44.8203833   4.6351673
  10.0661673  44.8243833   3.7661673   9.4021673  44.1883833   4.7841673
   9.9111673  44.7273833   4.5291673   3.9751673  37.9243833   2.4431673
   3.9051673  38.6013833   1.8971673   4.7161673  37.5363833   2.1941673
   4.0741673  37.9673833   2.3251673   3.6981673  48.1533833  14.7371673
   3.4621673  48.1503833  15.5771673   2.9501673  48.0053833  14.3131673
   3.5521673  48.1303833  14.7981673   3.0781673  40.7593833   9.2191673
   3.7561673  40.7773833   8.6701673   3.0331673  39.9233833   9.4641673
   3.1711673  40.6383833   9.1741673   3.6801673  51.3453833  12.0001673
   3.8181673  52.1053833  11.5931673   4.4711673  50.9803833  12.0271673
   3.8171673  51.4043833  11.9441673   4.7751673  49.2303833   6.5051673
   5.1231673  48.4313833   6.5351673   5.4401673  49.7343833   6.2501673
   4.9251673  49.1863833   6.4721673   4.8321673  48.6793833   2.7161673
   5.1631673  48.0353833   3.2021673   5.0721673  48.4683833   1.9051673
   4.9161673  48.5533833   2.6681673   6.8001673  42.8103833  14.0551673
   5.9521673  42.7113833  13.8771673   6.8291673  43.5553833  14.5091673
   6.6791673  42.9063833  14.0961673  11.3581673  35.7703833  13.1691673
  11.2001673  36.5393833  12.7871673  10.5861673  35.5503833  13.5131673
  11.2201673  35.8513833  13.1641673   4.1471673  37.4853833   5.3841673
   4.2201673  38.3453833   5.5131673   4.1091673  37.4103833   4.5161673
   4.1521673  37.6013833   5.2751673   2.7761673  50.4643833   2.2651673
   2.1971673  50.1893833   2.8571673   3.4001673  49.8553833   2.2901673
   2.7831673  50.3343833   2.3561673   7.0871673  53.1443833   1.7771673
   7.3011673  53.6713833   2.4391673   7.8541673  52.9703833   1.3981673
   7.2321673  53.1963833   1.8191673   3.3611673  39.8603833  16.6741673
   3.4781673  39.4063833  15.9381673   3.6491673  40.6583833  16.4711673
   3.4211673  39.9113833  16.5351673  14.2141673  40.3843833   3.9781673
  13.8681673  41.0623833   4.4041673  13.5781673  39.7863833   3.9941673
  14.0691673  40.3963833   4.0431673   9.5261673  53.1543833  10.0821673
  10.2701673  53.6103833  10.0721673   9.4051673  52.9403833   9.2451673
   9.6181673  53.1903833   9.9571673   2.5301673  52.6293833   5.5121673
   3.3741673  52.7333833   5.3171673   2.2331673  53.4473833   5.5801673
   2.6111673  52.7653833   5.4931673   5.7431673  37.1003833  14.8261673
   5.9211673  36.2913833  14.5511673   5.6001673  37.5413833  14.0871673
   5.7481673  37.0463833  14.6761673   6.3371673  42.0263833   3.5991673
   6.6241673  41.7943833   2.8091673   7.0691673  42.1053833   4.0681673
   6.4871673  42.0033833   3.5521673  13.8891673  38.7073833   9.3471673
  14.6461673  38.7793833   8.9191673  13.9521673  37.9343833   9.7461673
  14.0101673  38.6043833   9.3421673   8.7801673  50.3393833  13.7861673
   8.7461673  50.7213833  14.5701673   9.6341673  50.2973833  13.6151673
   8.9011673  50.3893833  13.8771673   7.2321673  53.5033833  11.2841673
   8.0001673  53.4233833  10.8781673   6.6491673  53.3823833  10.6461673
   7.2591673  53.4733833  11.1301673  13.5091673  54.1063833   4.1851673
  13.0541673  54.8233833   4.3861673  12.8951673  53.5353833   3.9431673
  13.3511673  54.1283833   4.1791673   5.2811673  40.1163833   5.3171673
   5.3551673  40.6843833   4.6591673   5.4021673  40.6083833   6.0271673
   5.3091673  40.2733833   5.3251673  10.5061673  49.9513833   3.7291673
  11.2071673  49.4693833   3.9181673   9.8461673  49.3823833   3.7741673
  10.5121673  49.7963833   3.7631673   2.8451673  46.3723833   7.6901673
   3.0171673  46.1623833   8.5191673   2.1901673  45.8383833   7.4741673
   2.7741673  46.2623833   7.7811673   9.0731673  40.2863833  11.2051673
   8.9781673  40.6053833  12.0111673   8.4801673  39.6473833  11.1671673
   8.9711673  40.2383833  11.3191673   3.5951673  46.3103833  10.2801673
   3.6481673  47.1573833  10.4821673   3.3101673  45.9403833  11.0171673
   3.5611673  46.3803833  10.4181673   9.7721673  47.0053833   9.4101673
   9.2581673  46.5933833   9.9811673   9.6461673  47.8493833   9.5911673
   9.6781673  47.0693833   9.5211673  10.3291673  36.2303833   4.0411673
  10.3781673  35.9123833   4.8521673  10.6521673  35.5863833   3.5481673
  10.3841673  36.0883833   4.0881673  12.7931673  40.4663833  12.3491673
  13.5651673  40.2413833  12.6861673  12.3181673  40.6833833  13.0491673
  12.8371673  40.4653833  12.5021673  15.2591673  51.9533833  13.7911673
  14.5771673  52.2633833  13.3441673  14.8901673  51.4953833  14.4361673
  15.1031673  51.9313833  13.8201673   2.5291673  47.1833833   3.1031673
   3.2421673  47.6783833   3.1931673   2.7511673  46.6163833   2.4771673
   2.6671673  47.1723833   3.0241673   4.3321673  42.5363833  16.5191673
   3.8481673  43.1133833  16.9611673   4.3041673  42.8313833  15.6981673
   4.2561673  42.6653833  16.4631673  15.4301673  43.2203833  11.1311673
  15.6451673  42.4203833  10.8551673  14.5801673  43.2803833  10.9421673
  15.3361673  43.1113833  11.0621673   7.0521673  50.8863833   5.4301673
   6.5291673  51.5203833   5.1371673   7.3621673  50.5223833   4.7011673
   7.0201673  50.9263833   5.2791673   9.5631673  40.6883833   5.9271673
   9.9071673  40.8403833   6.7141673   9.1101673  39.9503833   6.0401673
   9.5471673  40.6013833   6.0601673  13.0931673  52.3353833  11.8811673
  12.4221673  52.8493833  12.0991673  13.1561673  52.4353833  11.0171673
  13.0031673  52.4263833  11.7861673   1.7771673  49.8603833   5.0161673
   1.9031673  50.7033833   5.2031673   2.4451673  49.4613833   5.4121673
   1.8951673  49.9263833   5.1021673  10.8841673  42.0203833   8.4811673
  10.2221673  42.3483833   8.9441673  11.0711673  42.6543833   7.9121673
  10.8141673  42.1623833   8.4651673   5.0891673  53.0843833   9.4771673
   4.8121673  52.4433833   8.9541673   4.8811673  53.8103833   9.0391673
   5.0181673  53.0973833   9.3351673   7.5291673  37.9263833  11.9101673
   7.6781673  37.1013833  11.6671673   7.9081673  37.9813833  12.6941673
   7.6071673  37.8123833  11.9901673   9.0771673  39.9893833   1.9921673
   9.5671673  40.7063833   1.9151673   8.2871673  40.2503833   1.7291673
   9.0331673  40.1333833   1.9421673  10.3911673  47.8673833  13.9021673
  10.8751673  48.5853833  14.0001673  10.7851673  47.4403833  13.2511673
  10.5211673  47.9103833  13.8201673   4.6871673  50.7123833  15.0791673
   5.0411673  50.5343833  15.8561673   4.2511673  49.9833833  14.8801673
   4.6751673  50.5783833  15.1651673   5.6591673  41.4593833   7.7171673
   6.1391673  42.1583833   7.9251673   6.0321673  40.8123833   8.1681673
   5.7851673  41.4673833   7.8141673  12.8201673  48.4983833   3.9721673
  13.1761673  48.1483833   4.6871673  12.8121673  47.8373833   3.4021673
  12.8721673  48.3483833   3.9931673   8.8651673  51.5643833   7.8161673
   8.2621673  51.2683833   7.2591673   9.4101673  52.0163833   7.3071673
   8.8561673  51.5873833   7.6581673   8.8781673  48.4153833   7.2161673
   8.0811673  48.6393833   7.4901673   9.1361673  47.8213833   7.8011673
   8.7981673  48.3603833   7.3431673  12.1381673  46.4133833  12.0621673
  12.1931673  46.5383833  11.2001673  12.8911673  46.7333833  12.3641673
  12.2571673  46.4783833  11.9791673   8.3291673  51.7623833  16.3391673
   8.4931673  52.0453833  17.1481673   8.5921673  52.4233833  15.8341673
   8.3921673  51.9023833  16.3841673  13.1701673  36.7113833  15.0491673
  12.5331673  36.3113833  14.6071673  13.1961673  36.2803833  15.8071673
  13.0801673  36.5893833  15.0951673   7.8691673  46.2193833  11.6621673
   7.7141673  46.8293833  12.2661673   8.4031673  45.6613833  12.0681673
   7.9251673  46.2273833  11.8111673   6.2531673  44.6193833   2.3201673
   6.3121673  45.2693833   2.8991673   6.0641673  43.9233833   2.8111673
   6.2341673  44.6123833   2.4781673  11.4791673  48.9483833   8.1891673
  11.0001673  49.2463833   7.5231673  11.1231673  48.1723833   8.3671673
  11.3561673  48.8773833   8.1171673   5.4761673  46.6663833   6.7511673
   4.6291673  46.4723833   6.8321673   5.8001673  46.5013833   7.5441673
   5.3981673  46.6133833   6.8801673   2.5541673  41.5303833   5.8021673
   3.4001673  41.3403833   5.9001673   2.1841673  40.7533833   5.6641673
   2.6241673  41.3873833   5.7961673  12.4101673  45.8903833   9.3081673
  12.4031673  45.1143833   9.7061673  11.5691673  46.1243833   9.3011673
  12.2851673  45.8103833   9.3661673  13.6661673  45.9613833   6.7451673
  13.3801673  46.3623833   7.4651673  14.5261673  45.8993833   6.8721673
  13.7511673  46.0113833   6.8701673  11.3281673  39.8853833  15.2851673
  10.8031673  40.3443833  15.8091673  10.9671673  39.0903833  15.2791673
  11.1971673  39.8353833  15.3611673  14.7971673  51.5943833   7.2741673
  15.0871673  51.8513833   6.4931673  15.4921673  51.6903833   7.7931673
  14.9431673  51.6463833   7.2351673   9.8201673  43.4543833  15.3611673
   9.8931673  43.5583833  16.2241673   9.1861673  44.0123833  15.1401673
   9.7371673  43.5523833  15.4561673  12.0881673  43.7733833  13.7261673
  12.4071673  44.5593833  13.9291673  11.7181673  43.5033833  14.4691673
  12.0811673  43.8493833  13.8661673  11.8841673  42.0313833   4.9151673
  11.1391673  41.7083833   5.2331673  11.8861673  42.8573833   5.1951673
  11.7741673  42.1053833   5.0031673  14.7861673  44.3153833  16.4611673
  14.7341673  43.9743833  15.6601673  15.5231673  44.7823833  16.4391673
  14.8871673  44.3343833  16.3391673  14.3241673  47.9913833  12.6671673
  14.9521673  47.4423833  12.4111673  14.2631673  48.5563833  12.0051673
  14.4081673  47.9943833  12.5311673   3.4581673  49.2223833   9.9631673
   3.1601673  49.8143833  10.5301673   3.5131673  49.6643833   9.2141673
   3.4221673  49.3753833   9.9361673  10.7961673  38.3613833  12.3761673
  11.5401673  38.8133833  12.3131673  10.2301673  38.8313833  11.9071673
  10.8231673  38.4983833  12.2981673   5.9741673  45.6453833   9.4541673
   6.4501673  46.0193833  10.0821673   5.1511673  45.7793833   9.7131673
   5.9231673  45.7203833   9.5851673   2.6841673  41.2483833  12.1951673
   2.8451673  40.5043833  12.6221673   2.6391673  40.9993833  11.3601673
   2.7011673  41.1013833  12.1351673   5.2381673  53.0383833   4.6821673
   5.7841673  53.7173833   4.7361673   4.8881673  53.1203833   3.8871673
   5.2671673  53.1513833   4.5721673  12.0811673  36.3413833  10.0461673
  11.8011673  37.1663833  10.0021673  12.7971673  36.3943833  10.5421673
  12.1461673  36.4713833  10.1131673   4.4361673  37.0563833  12.0751673
   5.1411673  37.3763833  11.6731673   4.6771673  36.2493833  12.3021673
   4.5751673  36.9843833  12.0491673   3.4211673  51.2663833   8.0711673
   2.7971673  51.8483833   7.8891673   3.6691673  50.9803833   7.2851673
   3.3651673  51.3103833   7.9281673   7.7301673  47.9003833  15.0601673
   8.4871673  48.1863833  14.7341673   7.1831673  47.9523833  14.3821673
   7.7611673  47.9503833  14.9111673  11.6391673  50.4503833  13.5641673
  11.9851673  50.7203833  14.3181673  11.9331673  51.0323833  12.9841673
  11.7341673  50.5763833  13.5901673   8.9611673  41.2113833  13.7281673
   8.3131673  41.6813833  14.0761673   9.5261673  41.1223833  14.3871673
   8.9491673  41.2673833  13.8771673   8.6491673  42.7483833  10.0261673
   8.9511673  43.1683833  10.7291673   8.6851673  41.9083833  10.2581673
   8.6991673  42.6863833  10.1641673   6.0741673  52.9153833  13.9511673
   6.5521673  52.3153833  13.5351673   5.7231673  52.4723833  14.6161673
   6.0931673  52.7613833  13.9881673  11.1971673  42.1953833   2.2781673
  11.4041673  41.9943833   3.1021673  11.9531673  42.4633833   1.9361673
  11.3391673  42.2053833   2.3491673   4.4921673  37.0943833   8.1831673
   3.6661673  36.9453833   8.4201673   4.4521673  37.1293833   7.3121673
   4.3641673  37.0773833   8.0891673  12.2191673  38.2783833   3.7521673
  11.5051673  37.8073833   3.9231673  12.0571673  38.6193833   2.9661673
  12.0901673  38.2593833   3.6611673  12.6621673  46.2223833   2.1321673
  13.1381673  45.4933833   2.0841673  11.8411673  45.9363833   2.0561673
  12.6111673  46.0723833   2.1131673   6.1331673  48.1343833  12.9711673
   5.3381673  48.0703833  13.3221673   6.2041673  48.9813833  12.7761673
   6.0261673  48.2493833  12.9941673   8.8781673  47.3893833   4.4871673
   8.9541673  47.7303833   5.2861673   9.0471673  46.5423833   4.6081673
   8.9141673  47.3143833   4.6231673   6.4001673  46.6633833   4.0521673
   6.1021673  46.3483833   4.8091673   7.0951673  47.1363833   4.2871673
   6.4591673  46.6863833   4.1991673   6.6221673  50.7813833  12.0791673
   7.3091673  50.6673833  12.6041673   6.7561673  51.5723833  11.7351673
   6.7431673  50.8813833  12.1061673  14.7981673  43.3903833  13.8901673
  13.9431673  43.2683833  14.0161673  14.9511673  42.9953833  13.1271673
  14.6941673  43.3133833  13.7961673   9.3111673  44.0553833  12.4661673
   9.0561673  43.3363833  12.8881673  10.1321673  44.1713833  12.7361673
   9.3951673  43.9663833  12.5681673   7.2451673  45.2453833  15.6531673
   7.5681673  45.9313833  15.2211673   6.5411673  45.5683833  16.0551673
   7.1881673  45.3943833  15.6481673  10.3291673  53.6193833   6.5821673
   9.8781673  54.2623833   6.9611673  11.0371673  53.5403833   7.0871673
  10.3671673  53.7023833   6.7131673   7.0301673  48.7093833   9.5121673
   6.3361673  49.1113833   9.8551673   7.7071673  49.1423833   9.8511673
   7.0271673  48.8323833   9.6131673  12.4071673  51.3023833  16.0921673
  13.1831673  50.9123833  16.1751673  11.9381673  50.9663833  16.7471673
  12.4521673  51.1953833  16.2011673   7.3521673  50.3003833   2.6811673
   7.1471673  51.1333833   2.5221673   6.5771673  49.9183833   2.8031673
   7.2071673  50.3673833   2.6761673  12.5341673  43.4813833  10.9301673
  12.5321673  42.6183833  11.0541673  12.6011673  43.8053833  11.7371673
  12.5441673  43.4013833  11.0671673   8.4131673  38.2813833  14.7121673
   8.5051673  38.9933833  15.2061673   7.7761673  37.8363833  15.1091673
   8.3321673  38.3203833  14.8441673   7.4071673  38.4713833   5.5661673
   6.7071673  38.9893833   5.5101673   7.4451673  38.0913833   4.7821673
   7.3091673  38.4923833   5.4421673  11.0051673  38.9873833   8.3661673
  11.8601673  39.0863833   8.5111673  10.6361673  39.5403833   8.9311673
  11.0771673  39.0843833   8.4711673  11.3091673  44.2673833   6.8571673
  11.9751673  44.8083833   7.0171673  10.9641673  44.5783833   6.1181673
  11.3561673  44.3933833   6.7721673  11.6221673  52.3333833   2.6641673
  11.4481673  51.6793833   3.2141673  12.3351673  52.0623833   2.2411673
  11.7021673  52.1963833   2.6831673  14.4801673  36.8253833  11.5221673
  14.4281673  36.7813833  12.3921673  15.1671673  36.3223833  11.3321673
  14.5741673  36.7453833  11.6221673   6.5651673  38.9383833   8.5671673
   5.8281673  38.4843833   8.6801673   7.1361673  38.5363833   9.0901673
   6.5401673  38.8113833   8.6611673   9.2971673  49.7863833  10.3551673
   9.5031673  50.0873833  11.1471673   9.2361673  50.5083833   9.8701673
   9.3181673  49.9373833  10.4001673   8.8311673  54.0003833  14.6011673
   8.0781673  53.9823833  14.1601673   8.9991673  54.8523833  14.6851673
   8.7451673  54.1233833  14.5481673   4.0681673  43.2673833  13.7711673
   3.7461673  42.6913833  13.2011673   3.7091673  44.0223833  13.5251673
   3.9681673  43.2933833  13.6511673  14.1091673  48.4253833   9.8131673
  14.0771673  47.5633833   9.6781673  13.4161673  48.7273833   9.3791673
  14.0021673  48.3423833   9.7291673   2.5031673  53.6233833  14.0191673
   2.5441673  53.7493833  14.8821673   3.1541673  53.0633833  13.8631673
   2.6051673  53.5593833  14.1241673  12.2141673  51.6853833   8.6101673
  12.7411673  51.6023833   7.9191673  11.8231673  50.9073833   8.6641673
  12.2341673  51.5583833   8.5161673   8.7281673  37.1293833   7.8181673
   9.3981673  37.6733833   7.9451673   8.2251673  37.5533833   7.2451673
   8.7531673  37.2723833   7.7521673   8.0871673  42.9373833   5.3111673
   8.6381673  42.3303833   5.6111673   7.6621673  43.2003833   6.0261673
   8.1061673  42.8863833   5.4601673  10.0571673  44.7683833   1.8731673
  10.1251673  43.9183833   2.0541673   9.2341673  44.8543833   1.5951673
   9.9451673  44.6553833   1.8591673  13.3311673  46.1413833  15.0241673
  13.9651673  45.9713833  15.5981673  13.7481673  46.5443833  14.3721673
  13.4861673  46.1763833  15.0131673  13.9561673  40.7053833  15.7621673
  13.7601673  41.3493833  16.3171673  13.2341673  40.2153833  15.7541673
  13.8211673  40.7283833  15.8431673  13.8551673  41.6463833   8.7331673
  13.0221673  41.8963833   8.6611673  13.7991673  40.8063833   8.9621673
  13.7241673  41.5593833   8.7561673   3.1151673  38.6343833  13.9271673
   3.3491673  38.0583833  13.3141673   2.2731673  38.4533833  14.0681673
   3.0251673  38.5223833  13.8571673  10.7421673  46.2523833  16.3791673
  11.6131673  46.2163833  16.3431673  10.5231673  46.6723833  15.6471673
  10.8391673  46.3083833  16.2661673   7.5061673  18.3592753  79.3131313
   7.2611673  18.8472753  78.6331313   8.3691673  18.2862753  79.2131313
   7.5971673  18.4202753  79.1981313   7.3151673  25.2752753  83.9841313
   6.7911673  25.8712753  84.3471313   7.7121673  24.9072753  84.6681313
   7.2961673  25.3092753  84.1391313  13.4591673  32.7162753  76.9551313
  14.1601673  32.1972753  76.9511313  12.8721673  32.2712753  76.4861313
  13.4761673  32.5732753  76.8851313   9.9861673  26.3422753  80.6601313
  10.0661673  26.3462753  79.7911313   9.4021673  25.7102753  80.8091313
   9.9111673  26.2492753  80.5541313   3.9751673  19.4462753  78.4681313
   3.9051673  20.1232753  77.9221313   4.7161673  19.0582753  78.2191313
   4.0741673  19.4892753  78.3501313   3.0781673  22.2812753  85.2441313
   3.7561673  22.2992753  84.6951313   3.0331673  21.4452753  85.4891313
   3.1711673  22.1602753  85.1991313   3.6801673  32.8672753  88.0251313
   3.8181673  33.6272753  87.6181313   4.4711673  32.5022753  88.0521313
   3.8171673  32.9262753  87.9691313   4.7751673  30.7522753  82.5301313
   5.1231673  29.9532753  82.5601313   5.4401673  31.2562753  82.2751313
   4.9251673  30.7082753  82.4971313   4.8321673  30.2012753  78.7411313
   5.1631673  29.5572753  79.2271313   5.0721673  29.9902753  77.9301313
   4.9161673  30.0752753  78.6931313   4.1471673  19.0072753  81.4091313
   4.2201673  19.8672753  81.5381313   4.1091673  18.9322753  80.5411313
   4.1521673  19.1232753  81.3001313   8.8201673  21.9332753  73.7081313
   8.3701673  22.6142753  74.0151313   8.9341673  21.4292753  74.4111313
   8.7711673  21.9592753  73.8571313   2.7761673  31.9862753  78.2901313
   2.1971673  31.7112753  78.8821313   3.4001673  31.3772753  78.3151313
   2.7831673  31.8562753  78.3811313   8.9191673  34.2742753  75.8121313
   9.6461673  34.7462753  75.9141313   9.1481673  33.4802753  76.0921313
   9.0611673  34.2272753  75.8691313   7.0871673  34.6662753  77.8021313
   7.3011673  35.1932753  78.4641313   7.8541673  34.4922753  77.4231313
   7.2321673  34.7182753  77.8441313  14.2141673  21.9062753  80.0031313
  13.8681673  22.5842753  80.4291313  13.5781673  21.3082753  80.0191313
  14.0691673  21.9182753  80.0681313   9.5261673  34.6762753  86.1071313
  10.2701673  35.1322753  86.0971313   9.4051673  34.4622753  85.2701313
   9.6181673  34.7122753  85.9821313   2.5301673  34.1512753  81.5371313
   3.3741673  34.2552753  81.3421313   2.2331673  34.9692753  81.6051313
   2.6111673  34.2872753  81.5181313   6.3371673  23.5482753  79.6241313
   6.6241673  23.3162753  78.8341313   7.0691673  23.6272753  80.0931313
   6.4871673  23.5252753  79.5771313   7.0591673  23.8872753  74.7451313
   7.3401673  24.6752753  74.9941313   6.2831673  24.0522753  74.3821313
   6.9861673  24.0282753  74.7281313  11.1001673  35.8612753  76.2121313
  11.7651673  35.7132753  75.6671313  11.4601673  35.7782753  77.0021313
  11.2521673  35.8272753  76.2481313  13.8891673  20.2292753  85.3721313
  14.6461673  20.3012753  84.9441313  13.9521673  19.4562753  85.7711313
  14.0101673  20.1262753  85.3671313   5.9181673  32.0582753  74.5611313
   5.7371673  32.6032753  75.2181313   6.6841673  32.3482753  74.2601313
   6.0041673  32.1822753  74.6141313   9.4251673  19.9542753  75.6151313
   9.9651673  19.2722753  75.6911313   9.4871673  20.3522753  76.3891313
   9.5141673  19.9122753  75.7411313   6.6831673  22.3302753  76.9291313
   6.1751673  21.6682753  76.6751313   6.7351673  22.8342753  76.2191313
   6.6161673  22.3072753  76.7871313   7.2321673  35.0252753  87.3091313
   8.0001673  34.9452753  86.9031313   6.6491673  34.9042753  86.6711313
   7.2591673  34.9952753  87.1551313   6.6831673  19.2712753  76.8201313
   6.2281673  18.8692753  76.1941313   7.4561673  19.4262753  76.4451313
   6.7301673  19.2352753  76.6721313  13.5091673  35.6282753  80.2101313
  13.0541673  36.3452753  80.4111313  12.8951673  35.0572753  79.9681313
  13.3511673  35.6502753  80.2041313   5.2811673  21.6382753  81.3421313
   5.3551673  22.2062753  80.6841313   5.4021673  22.1302753  82.0521313
   5.3091673  21.7952753  81.3501313  10.5061673  31.4732753  79.7541313
  11.2071673  30.9912753  79.9431313   9.8461673  30.9042753  79.7991313
  10.5121673  31.3182753  79.7881313   2.8451673  27.8942753  83.7151313
   3.0171673  27.6842753  84.5441313   2.1901673  27.3602753  83.4991313
   2.7741673  27.7842753  83.8061313   9.0731673  21.8082753  87.2301313
   8.9781673  22.1272753  88.0361313   8.4801673  21.1692753  87.1921313
   8.9711673  21.7602753  87.3441313   3.5951673  27.8322753  86.3051313
   3.6481673  28.6792753  86.5071313   3.3101673  27.4622753  87.0421313
   3.5611673  27.9022753  86.4431313   9.7721673  28.5272753  85.4351313
   9.2581673  28.1152753  86.0061313   9.6461673  29.3712753  85.6161313
   9.6781673  28.5912753  85.5461313  10.3291673  17.7522753  80.0661313
  10.3781673  17.4342753  80.8771313  10.6521673  17.1082753  79.5731313
  10.3841673  17.6102753  80.1131313  13.0251673  28.9662753  75.5621313
  13.1441673  28.6792753  76.3771313  13.8321673  28.9872753  75.2321313
  13.1611673  28.9272753  75.6341313  10.9201673  25.5032753  75.1471313
  10.7001673  26.2342753  74.7251313  10.4721673  25.5542753  75.8941313
  10.8211673  25.6182753  75.1951313   2.5291673  28.7052753  79.1281313
   3.2421673  29.2002753  79.2181313   2.7511673  28.1382753  78.5021313
   2.6671673  28.6942753  79.0491313  15.1071673  20.3642753  74.6001313
  14.4451673  19.7962753  74.6231313  14.9141673  20.8762753  73.9201313
  14.9811673  20.3562753  74.5031313  15.4301673  24.7422753  87.1561313
  15.6451673  23.9422753  86.8801313  14.5801673  24.8022753  86.9671313
  15.3361673  24.6332753  87.0871313  13.1091673  19.9222753  76.8791313
  13.8551673  19.5152753  77.0781313  13.3721673  20.6372753  76.4541313
  13.2581673  19.9682753  76.8461313   7.0521673  32.4082753  81.4551313
   6.5291673  33.0422753  81.1621313   7.3621673  32.0442753  80.7261313
   7.0201673  32.4482753  81.3041313   9.5631673  22.2102753  81.9521313
   9.9071673  22.3622753  82.7391313   9.1101673  21.4722753  82.0651313
   9.5471673  22.1232753  82.0851313   4.0391673  21.4302753  76.4091313
   4.0371673  21.3132753  75.5441313   3.8581673  22.2782753  76.5011313
   4.0121673  21.5382753  76.2951313  13.0931673  33.8572753  87.9061313
  12.4221673  34.3712753  88.1241313  13.1561673  33.9572753  87.0421313
  13.0031673  33.9482753  87.8111313   1.7771673  31.3822753  81.0411313
   1.9031673  32.2252753  81.2281313   2.4451673  30.9832753  81.4371313
   1.8951673  31.4482753  81.1271313  10.8841673  23.5422753  84.5061313
  10.2221673  23.8702753  84.9691313  11.0711673  24.1762753  83.9371313
  10.8141673  23.6842753  84.4901313   5.0891673  34.6062753  85.5021313
   4.8121673  33.9652753  84.9791313   4.8811673  35.3322753  85.0641313
   5.0181673  34.6192753  85.3601313   7.5291673  19.4482753  87.9351313
   7.6781673  18.6232753  87.6921313   7.9081673  19.5032753  88.7191313
   7.6071673  19.3342753  88.0151313   9.0771673  21.5112753  78.0171313
   9.5671673  22.2282753  77.9401313   8.2871673  21.7722753  77.7541313
   9.0331673  21.6552753  77.9671313   5.6591673  22.9812753  83.7421313
   6.1391673  23.6802753  83.9501313   6.0321673  22.3342753  84.1931313
   5.7851673  22.9892753  83.8391313   7.8481673  26.1502753  76.0161313
   7.8401673  26.8722753  75.5261313   7.2091673  26.2852753  76.5931313
   7.7531673  26.2772753  76.0291313  12.8201673  30.0202753  79.9971313
  13.1761673  29.6702753  80.7121313  12.8121673  29.3592753  79.4271313
  12.8721673  29.8702753  80.0181313   8.8651673  33.0862753  83.8411313
   8.2621673  32.7902753  83.2841313   9.4101673  33.5382753  83.3321313
   8.8561673  33.1092753  83.6831313   8.8781673  29.9372753  83.2411313
   8.0811673  30.1612753  83.5151313   9.1361673  29.3432753  83.8261313
   8.7981673  29.8822753  83.3681313   2.7701673  34.7492753  77.6891313
   2.6231673  33.9732753  78.0601313   3.4591673  34.6022753  77.1741313
   2.8501673  34.6122753  77.6681313   5.0621673  34.2652753  76.0911313
   5.6841673  34.4282753  76.6811313   5.0981673  34.9562753  75.5591313
   5.1591673  34.3912753  76.1001313  12.1381673  27.9352753  88.0871313
  12.1931673  28.0602753  87.2251313  12.8911673  28.2552753  88.3891313
  12.2571673  28.0002753  88.0041313   7.8691673  27.7412753  87.6871313
   7.7141673  28.3512753  88.2911313   8.4031673  27.1832753  88.0931313
   7.9251673  27.7492753  87.8361313   6.2531673  26.1412753  78.3451313
   6.3121673  26.7912753  78.9241313   6.0641673  25.4452753  78.8361313
   6.2341673  26.1342753  78.5031313  11.4791673  30.4702753  84.2141313
  11.0001673  30.7682753  83.5481313  11.1231673  29.6942753  84.3921313
  11.3561673  30.3992753  84.1421313   5.4761673  28.1882753  82.7761313
   4.6291673  27.9942753  82.8571313   5.8001673  28.0232753  83.5691313
   5.3981673  28.1352753  82.9051313   2.2281673  34.9182753  73.6621313
   2.6671673  34.2212753  73.9501313   2.4351673  35.5422753  74.2351313
   2.3241673  34.9072753  73.7891313   2.5541673  23.0522753  81.8271313
   3.4001673  22.8622753  81.9251313   2.1841673  22.2752753  81.6891313
   2.6241673  22.9092753  81.8211313  15.1711673  34.6362753  76.1541313
  15.8651673  34.1692753  75.9061313  14.6321673  34.0382753  76.4911313
  15.1941673  34.4782753  76.1671313  12.4101673  27.4122753  85.3331313
  12.4031673  26.6362753  85.7311313  11.5691673  27.6462753  85.3261313
  12.2851673  27.3322753  85.3911313  13.6661673  27.4832753  82.7701313
  13.3801673  27.8842753  83.4901313  14.5261673  27.4212753  82.8971313
  13.7511673  27.5332753  82.8951313   3.3551673  24.2852753  76.6781313
   3.6271673  25.1112753  76.7451313   2.4921673  24.3602753  76.5821313
   3.2681673  24.4182753  76.6731313  14.7971673  33.1162753  83.2991313
  15.0871673  33.3732753  82.5181313  15.4921673  33.2122753  83.8181313
  14.9431673  33.1682753  83.2601313  11.4021673  31.7192753  75.2811313
  11.7361673  30.9132753  75.3161313  10.6471673  31.6472753  75.7111313
  11.3401673  31.5892753  75.3501313  11.8841673  23.5532753  80.9401313
  11.1391673  23.2302753  81.2581313  11.8861673  24.3792753  81.2201313
  11.7741673  23.6272753  81.0281313  14.3241673  29.5132753  88.6921313
  14.9521673  28.9642753  88.4361313  14.2631673  30.0782753  88.0301313
  14.4081673  29.5162753  88.5561313   8.7761673  29.5942753  74.6841313
   9.4601673  29.0802753  74.5151313   8.3591673  29.6402753  73.9191313
   8.8151673  29.5252753  74.5461313   3.4581673  30.7442753  85.9881313
   3.1601673  31.3362753  86.5551313   3.5131673  31.1862753  85.2391313
   3.4221673  30.8972753  85.9611313  10.7961673  19.8832753  88.4011313
  11.5401673  20.3352753  88.3381313  10.2301673  20.3532753  87.9321313
  10.8231673  20.0202753  88.3231313   5.9741673  27.1672753  85.4791313
   6.4501673  27.5412753  86.1071313   5.1511673  27.3012753  85.7381313
   5.9231673  27.2422753  85.6101313   2.6841673  22.7702753  88.2201313
   2.8451673  22.0262753  88.6471313   2.6391673  22.5212753  87.3851313
   2.7011673  22.6232753  88.1601313   5.2381673  34.5602753  80.7071313
   5.7841673  35.2392753  80.7611313   4.8881673  34.6422753  79.9121313
   5.2671673  34.6732753  80.5971313  12.0811673  17.8632753  86.0711313
  11.8011673  18.6882753  86.0271313  12.7971673  17.9162753  86.5671313
  12.1461673  17.9932753  86.1381313   4.4361673  18.5782753  88.1001313
   5.1411673  18.8982753  87.6981313   4.6771673  17.7712753  88.3271313
   4.5751673  18.5062753  88.0741313   3.4211673  32.7882753  84.0961313
   2.7971673  33.3702753  83.9141313   3.6691673  32.5022753  83.3101313
   3.3651673  32.8322753  83.9531313  13.5021673  24.1182753  74.9281313
  13.8801673  24.7952753  74.5281313  12.6601673  24.3422753  74.9591313
  13.4331673  24.2512753  74.8731313   5.0151673  27.5642753  74.0111313
   4.2101673  27.3872753  73.7261313   4.9821673  28.4152753  74.2031313
   4.8911673  27.6632753  73.9981313   8.6491673  24.2702753  86.0511313
   8.9511673  24.6902753  86.7541313   8.6851673  23.4302753  86.2831313
   8.6991673  24.2082753  86.1891313  11.1971673  23.7172753  78.3031313
  11.4041673  23.5162753  79.1271313  11.9531673  23.9852753  77.9611313
  11.3391673  23.7272753  78.3741313   4.4921673  18.6162753  84.2081313
   3.6661673  18.4672753  84.4451313   4.4521673  18.6512753  83.3371313
   4.3641673  18.5992753  84.1141313  12.2191673  19.8002753  79.7771313
  11.5051673  19.3292753  79.9481313  12.0571673  20.1412753  78.9911313
  12.0901673  19.7812753  79.6861313  12.6621673  27.7442753  78.1571313
  13.1381673  27.0152753  78.1091313  11.8411673  27.4582753  78.0811313
  12.6111673  27.5942753  78.1381313   8.8781673  28.9112753  80.5121313
   8.9541673  29.2522753  81.3111313   9.0471673  28.0642753  80.6331313
   8.9141673  28.8362753  80.6481313   6.4001673  28.1852753  80.0771313
   6.1021673  27.8702753  80.8341313   7.0951673  28.6582753  80.3121313
   6.4591673  28.2082753  80.2241313   6.6221673  32.3032753  88.1041313
   7.3091673  32.1892753  88.6291313   6.7561673  33.0942753  87.7601313
   6.7431673  32.4032753  88.1311313   9.3111673  25.5772753  88.4911313
   9.0561673  24.8582753  88.9131313  10.1321673  25.6932753  88.7611313
   9.3951673  25.4882753  88.5931313  10.3291673  35.1412753  82.6071313
   9.8781673  35.7842753  82.9861313  11.0371673  35.0622753  83.1121313
  10.3671673  35.2242753  82.7381313   7.0301673  30.2312753  85.5371313
   6.3361673  30.6332753  85.8801313   7.7071673  30.6642753  85.8761313
   7.0271673  30.3542753  85.6381313  13.4321673  24.8572753  77.5991313
  13.5351673  24.7992753  76.7351313  14.1731673  24.5252753  77.9171313
  13.5571673  24.8002753  77.5181313   7.3521673  31.8222753  78.7061313
   7.1471673  32.6552753  78.5471313   6.5771673  31.4402753  78.8281313
   7.2071673  31.8892753  78.7011313  12.5341673  25.0032753  86.9551313
  12.5321673  24.1402753  87.0791313  12.6011673  25.3272753  87.7621313
  12.5441673  24.9232753  87.0921313   7.4071673  19.9932753  81.5911313
   6.7071673  20.5112753  81.5351313   7.4451673  19.6132753  80.8071313
   7.3091673  20.0142753  81.4671313   2.7141673  32.0842753  75.1151313
   3.1551673  32.1642753  75.8631313   1.9091673  31.8682753  75.3731313
   2.6601673  32.0642753  75.2641313  11.0051673  20.5092753  84.3911313
  11.8601673  20.6082753  84.5361313  10.6361673  21.0622753  84.9561313
  11.0771673  20.6062753  84.4961313  11.3091673  25.7892753  82.8821313
  11.9751673  26.3302753  83.0421313  10.9641673  26.1002753  82.1431313
  11.3561673  25.9152753  82.7971313  11.6221673  33.8552753  78.6891313
  11.4481673  33.2012753  79.2391313  12.3351673  33.5842753  78.2661313
  11.7021673  33.7182753  78.7081313   2.8621673  29.3992753  74.4591313
   2.0441673  29.1312753  74.5991313   2.8341673  30.2512753  74.6441313
   2.7371673  29.4862753  74.5071313  14.4801673  18.3472753  87.5471313
  14.4281673  18.3032753  88.4171313  15.1671673  17.8442753  87.3571313
  14.5741673  18.2672753  87.6471313   6.5651673  20.4602753  84.5921313
   5.8281673  20.0062753  84.7051313   7.1361673  20.0582753  85.1151313
   6.5401673  20.3332753  84.6861313   9.2971673  31.3082753  86.3801313
   9.5031673  31.6092753  87.1721313   9.2361673  32.0302753  85.8951313
   9.3181673  31.4592753  86.4251313   4.8641673  18.0412753  74.4231313
   4.9421673  18.2882753  73.5901313   4.1211673  18.4182753  74.6811313
   4.7661673  18.1332753  74.3381313  14.1091673  29.9472753  85.8381313
  14.0771673  29.0852753  85.7031313  13.4161673  30.2492753  85.4041313
  14.0021673  29.8642753  85.7541313  12.2141673  33.2072753  84.6351313
  12.7411673  33.1242753  83.9441313  11.8231673  32.4292753  84.6891313
  12.2341673  33.0802753  84.5411313   8.7281673  18.6512753  83.8431313
   9.3981673  19.1952753  83.9701313   8.2251673  19.0752753  83.2701313
   8.7531673  18.7942753  83.7771313   8.0871673  24.4592753  81.3361313
   8.6381673  23.8522753  81.6361313   7.6621673  24.7222753  82.0511313
   8.1061673  24.4082753  81.4851313  10.0571673  26.2902753  77.8981313
  10.1251673  25.4402753  78.0791313   9.2341673  26.3762753  77.6201313
   9.9451673  26.1772753  77.8841313   3.9761673  27.1812753  76.8361313
   4.0761673  27.3202753  75.9811313   4.7941673  27.1212753  77.1321313
   4.1111673  27.1922753  76.7531313  13.1361673  35.2452753  74.3161313
  13.7731673  35.1112753  74.8971313  12.7951673  34.4512753  74.1991313
  13.1801673  35.1082753  74.3841313   9.2111673  31.5102753  76.6381313
   8.9601673  31.3822753  77.4641313   8.8941673  30.8152753  76.2171313
   9.1271673  31.3892753  76.6981313  13.8551673  23.1682753  84.7581313
  13.0221673  23.4182753  84.6861313  13.7991673  22.3282753  84.9871313
  13.7241673  23.0812753  84.7811313   6.0971673  29.7182753  76.0681313
   6.8141673  29.3712753  75.7121313   6.0631673  30.5182753  75.7201313
   6.1981673  29.7852753  75.9641313   7.5061673  18.3592753  60.3068903
   7.2611673  18.8472753  59.6268903   8.3691673  18.2862753  60.2068903
   7.5971673  18.4202753  60.1918903   7.3151673  25.2752753  64.9778903
   6.7911673  25.8712753  65.3408903   7.7121673  24.9072753  65.6618903
   7.2961673  25.3092753  65.1328903  13.4591673  32.7162753  57.9488903
  14.1601673  32.1972753  57.9448903  12.8721673  32.2712753  57.4798903
  13.4761673  32.5732753  57.8788903   9.9861673  26.3422753  61.6538903
  10.0661673  26.3462753  60.7848903   9.4021673  25.7102753  61.8028903
   9.9111673  26.2492753  61.5478903   3.9751673  19.4462753  59.4618903
   3.9051673  20.1232753  58.9158903   4.7161673  19.0582753  59.2128903
   4.0741673  19.4892753  59.3438903   3.6981673  29.6752753  71.7558903
   3.4621673  29.6722753  72.5958903   2.9501673  29.5272753  71.3318903
   3.5521673  29.6522753  71.8168903   3.0781673  22.2812753  66.2378903
   3.7561673  22.2992753  65.6888903   3.0331673  21.4452753  66.4828903
   3.1711673  22.1602753  66.1928903   3.6801673  32.8672753  69.0188903
   3.8181673  33.6272753  68.6118903   4.4711673  32.5022753  69.0458903
   3.8171673  32.9262753  68.9628903   4.7751673  30.7522753  63.5238903
   5.1231673  29.9532753  63.5538903   5.4401673  31.2562753  63.2688903
   4.9251673  30.7082753  63.4908903   4.8321673  30.2012753  59.7348903
   5.1631673  29.5572753  60.2208903   5.0721673  29.9902753  58.9238903
   4.9161673  30.0752753  59.6868903   6.8001673  24.3322753  71.0738903
   5.9521673  24.2332753  70.8958903   6.8291673  25.0772753  71.5278903
   6.6791673  24.4282753  71.1148903  11.3581673  17.2922753  70.1878903
  11.2001673  18.0612753  69.8058903  10.5861673  17.0722753  70.5318903
  11.2201673  17.3732753  70.1828903   4.1471673  19.0072753  62.4028903
   4.2201673  19.8672753  62.5318903   4.1091673  18.9322753  61.5348903
   4.1521673  19.1232753  62.2938903   8.8201673  21.9332753  54.7018903
   8.3701673  22.6142753  55.0088903   8.9341673  21.4292753  55.4048903
   8.7711673  21.9592753  54.8508903   2.7761673  31.9862753  59.2838903
   2.1971673  31.7112753  59.8758903   3.4001673  31.3772753  59.3088903
   2.7831673  31.8562753  59.3748903   8.9191673  34.2742753  56.8058903
   9.6461673  34.7462753  56.9078903   9.1481673  33.4802753  57.0858903
   9.0611673  34.2272753  56.8628903   7.0871673  34.6662753  58.7958903
   7.3011673  35.1932753  59.4578903   7.8541673  34.4922753  58.4168903
   7.2321673  34.7182753  58.8378903   3.3611673  21.3822753  73.6928903
   3.4781673  20.9282753  72.9568903   3.6491673  22.1802753  73.4898903
   3.4211673  21.4332753  73.5538903  14.2141673  21.9062753  60.9968903
  13.8681673  22.5842753  61.4228903  13.5781673  21.3082753  61.0128903
  14.0691673  21.9182753  61.0618903   9.5261673  34.6762753  67.1008903
  10.2701673  35.1322753  67.0908903   9.4051673  34.4622753  66.2638903
   9.6181673  34.7122753  66.9758903   2.5301673  34.1512753  62.5308903
   3.3741673  34.2552753  62.3358903   2.2331673  34.9692753  62.5988903
   2.6111673  34.2872753  62.5118903   5.7431673  18.6222753  71.8448903
   5.9211673  17.8132753  71.5698903   5.6001673  19.0632753  71.1058903
   5.7481673  18.5682753  71.6948903   6.3371673  23.5482753  60.6178903
   6.6241673  23.3162753  59.8278903   7.0691673  23.6272753  61.0868903
   6.4871673  23.5252753  60.5708903   7.0591673  23.8872753  55.7388903
   7.3401673  24.6752753  55.9878903   6.2831673  24.0522753  55.3758903
   6.9861673  24.0282753  55.7218903  11.1001673  35.8612753  57.2058903
  11.7651673  35.7132753  56.6608903  11.4601673  35.7782753  57.9958903
  11.2521673  35.8272753  57.2418903  13.8891673  20.2292753  66.3658903
  14.6461673  20.3012753  65.9378903  13.9521673  19.4562753  66.7648903
  14.0101673  20.1262753  66.3608903   8.7801673  31.8612753  70.8048903
   8.7461673  32.2432753  71.5888903   9.6341673  31.8192753  70.6338903
   8.9011673  31.9112753  70.8958903   5.9181673  32.0582753  55.5548903
   5.7371673  32.6032753  56.2118903   6.6841673  32.3482753  55.2538903
   6.0041673  32.1822753  55.6078903   9.4251673  19.9542753  56.6088903
   9.9651673  19.2722753  56.6848903   9.4871673  20.3522753  57.3828903
   9.5141673  19.9122753  56.7348903   6.6831673  22.3302753  57.9228903
   6.1751673  21.6682753  57.6688903   6.7351673  22.8342753  57.2128903
   6.6161673  22.3072753  57.7808903   7.2321673  35.0252753  68.3028903
   8.0001673  34.9452753  67.8968903   6.6491673  34.9042753  67.6648903
   7.2591673  34.9952753  68.1488903   6.6831673  19.2712753  57.8138903
   6.2281673  18.8692753  57.1878903   7.4561673  19.4262753  57.4388903
   6.7301673  19.2352753  57.6658903  13.5091673  35.6282753  61.2038903
  13.0541673  36.3452753  61.4048903  12.8951673  35.0572753  60.9618903
  13.3511673  35.6502753  61.1978903   5.2811673  21.6382753  62.3358903
   5.3551673  22.2062753  61.6778903   5.4021673  22.1302753  63.0458903
   5.3091673  21.7952753  62.3438903  10.5061673  31.4732753  60.7478903
  11.2071673  30.9912753  60.9368903   9.8461673  30.9042753  60.7928903
  10.5121673  31.3182753  60.7818903   2.8451673  27.8942753  64.7088903
   3.0171673  27.6842753  65.5378903   2.1901673  27.3602753  64.4928903
   2.7741673  27.7842753  64.7998903   9.0731673  21.8082753  68.2238903
   8.9781673  22.1272753  69.0298903   8.4801673  21.1692753  68.1858903
   8.9711673  21.7602753  68.3378903   3.5951673  27.8322753  67.2988903
   3.6481673  28.6792753  67.5008903   3.3101673  27.4622753  68.0358903
   3.5611673  27.9022753  67.4368903   9.7721673  28.5272753  66.4288903
   9.2581673  28.1152753  66.9998903   9.6461673  29.3712753  66.6098903
   9.6781673  28.5912753  66.5398903  10.3291673  17.7522753  61.0598903
  10.3781673  17.4342753  61.8708903  10.6521673  17.1082753  60.5668903
  10.3841673  17.6102753  61.1068903  12.7931673  21.9882753  69.3678903
  13.5651673  21.7632753  69.7048903  12.3181673  22.2052753  70.0678903
  12.8371673  21.9872753  69.5208903  13.0251673  28.9662753  56.5558903
  13.1441673  28.6792753  57.3708903  13.8321673  28.9872753  56.2258903
  13.1611673  28.9272753  56.6278903  15.2591673  33.4752753  70.8098903
  14.5771673  33.7852753  70.3628903  14.8901673  33.0172753  71.4548903
  15.1031673  33.4532753  70.8388903  10.9201673  25.5032753  56.1408903
  10.7001673  26.2342753  55.7188903  10.4721673  25.5542753  56.8878903
  10.8211673  25.6182753  56.1888903   2.5291673  28.7052753  60.1218903
   3.2421673  29.2002753  60.2118903   2.7511673  28.1382753  59.4958903
   2.6671673  28.6942753  60.0428903  15.1071673  20.3642753  55.5938903
  14.4451673  19.7962753  55.6168903  14.9141673  20.8762753  54.9138903
  14.9811673  20.3562753  55.4968903   4.3321673  24.0582753  73.5378903
   3.8481673  24.6352753  73.9798903   4.3041673  24.3532753  72.7168903
   4.2561673  24.1872753  73.4818903  15.4301673  24.7422753  68.1498903
  15.6451673  23.9422753  67.8738903  14.5801673  24.8022753  67.9608903
  15.3361673  24.6332753  68.0808903  13.1091673  19.9222753  57.8728903
  13.8551673  19.5152753  58.0718903  13.3721673  20.6372753  57.4478903
  13.2581673  19.9682753  57.8398903   7.0521673  32.4082753  62.4488903
   6.5291673  33.0422753  62.1558903   7.3621673  32.0442753  61.7198903
   7.0201673  32.4482753  62.2978903   9.5631673  22.2102753  62.9458903
   9.9071673  22.3622753  63.7328903   9.1101673  21.4722753  63.0588903
   9.5471673  22.1232753  63.0788903   4.0391673  21.4302753  57.4028903
   4.0371673  21.3132753  56.5378903   3.8581673  22.2782753  57.4948903
   4.0121673  21.5382753  57.2888903  13.0931673  33.8572753  68.8998903
  12.4221673  34.3712753  69.1178903  13.1561673  33.9572753  68.0358903
  13.0031673  33.9482753  68.8048903   1.7771673  31.3822753  62.0348903
   1.9031673  32.2252753  62.2218903   2.4451673  30.9832753  62.4308903
   1.8951673  31.4482753  62.1208903  10.8841673  23.5422753  65.4998903
  10.2221673  23.8702753  65.9628903  11.0711673  24.1762753  64.9308903
  10.8141673  23.6842753  65.4838903   5.0891673  34.6062753  66.4958903
   4.8121673  33.9652753  65.9728903   4.8811673  35.3322753  66.0578903
   5.0181673  34.6192753  66.3538903   7.5291673  19.4482753  68.9288903
   7.6781673  18.6232753  68.6858903   7.9081673  19.5032753  69.7128903
   7.6071673  19.3342753  69.0088903   9.0771673  21.5112753  59.0108903
   9.5671673  22.2282753  58.9338903   8.2871673  21.7722753  58.7478903
   9.0331673  21.6552753  58.9608903  10.3911673  29.3892753  70.9208903
  10.8751673  30.1072753  71.0188903  10.7851673  28.9622753  70.2698903
  10.5211673  29.4322753  70.8388903   4.6871673  32.2342753  72.0978903
   5.0411673  32.0562753  72.8748903   4.2511673  31.5052753  71.8988903
   4.6751673  32.1002753  72.1838903   5.6591673  22.9812753  64.7358903
   6.1391673  23.6802753  64.9438903   6.0321673  22.3342753  65.1868903
   5.7851673  22.9892753  64.8328903   7.8481673  26.1502753  57.0098903
   7.8401673  26.8722753  56.5198903   7.2091673  26.2852753  57.5868903
   7.7531673  26.2772753  57.0228903  12.8201673  30.0202753  60.9908903
  13.1761673  29.6702753  61.7058903  12.8121673  29.3592753  60.4208903
  12.8721673  29.8702753  61.0118903   8.8651673  33.0862753  64.8348903
   8.2621673  32.7902753  64.2778903   9.4101673  33.5382753  64.3258903
   8.8561673  33.1092753  64.6768903   8.8781673  29.9372753  64.2348903
   8.0811673  30.1612753  64.5088903   9.1361673  29.3432753  64.8198903
   8.7981673  29.8822753  64.3618903   2.7701673  34.7492753  58.6828903
   2.6231673  33.9732753  59.0538903   3.4591673  34.6022753  58.1678903
   2.8501673  34.6122753  58.6618903   5.0621673  34.2652753  57.0848903
   5.6841673  34.4282753  57.6748903   5.0981673  34.9562753  56.5528903
   5.1591673  34.3912753  57.0938903  12.1381673  27.9352753  69.0808903
  12.1931673  28.0602753  68.2188903  12.8911673  28.2552753  69.3828903
  12.2571673  28.0002753  68.9978903   8.3291673  33.2842753  73.3578903
   8.4931673  33.5672753  74.1668903   8.5921673  33.9452753  72.8528903
   8.3921673  33.4242753  73.4028903  13.1701673  18.2332753  72.0678903
  12.5331673  17.8332753  71.6258903  13.1961673  17.8022753  72.8258903
  13.0801673  18.1112753  72.1138903   7.8691673  27.7412753  68.6808903
   7.7141673  28.3512753  69.2848903   8.4031673  27.1832753  69.0868903
   7.9251673  27.7492753  68.8298903   6.2531673  26.1412753  59.3388903
   6.3121673  26.7912753  59.9178903   6.0641673  25.4452753  59.8298903
   6.2341673  26.1342753  59.4968903  11.4791673  30.4702753  65.2078903
  11.0001673  30.7682753  64.5418903  11.1231673  29.6942753  65.3858903
  11.3561673  30.3992753  65.1358903   5.4761673  28.1882753  63.7698903
   4.6291673  27.9942753  63.8508903   5.8001673  28.0232753  64.5628903
   5.3981673  28.1352753  63.8988903   2.2281673  34.9182753  54.6558903
   2.6671673  34.2212753  54.9438903   2.4351673  35.5422753  55.2288903
   2.3241673  34.9072753  54.7828903   2.5541673  23.0522753  62.8208903
   3.4001673  22.8622753  62.9188903   2.1841673  22.2752753  62.6828903
   2.6241673  22.9092753  62.8148903  15.1711673  34.6362753  57.1478903
  15.8651673  34.1692753  56.8998903  14.6321673  34.0382753  57.4848903
  15.1941673  34.4782753  57.1608903  12.4101673  27.4122753  66.3268903
  12.4031673  26.6362753  66.7248903  11.5691673  27.6462753  66.3198903
  12.2851673  27.3322753  66.3848903  13.6661673  27.4832753  63.7638903
  13.3801673  27.8842753  64.4838903  14.5261673  27.4212753  63.8908903
  13.7511673  27.5332753  63.8888903   3.3551673  24.2852753  57.6718903
   3.6271673  25.1112753  57.7388903   2.4921673  24.3602753  57.5758903
   3.2681673  24.4182753  57.6668903  11.3281673  21.4072753  72.3038903
  10.8031673  21.8662753  72.8278903  10.9671673  20.6122753  72.2978903
  11.1971673  21.3572753  72.3798903  14.7971673  33.1162753  64.2928903
  15.0871673  33.3732753  63.5118903  15.4921673  33.2122753  64.8118903
  14.9431673  33.1682753  64.2538903   9.8201673  24.9762753  72.3798903
   9.8931673  25.0802753  73.2428903   9.1861673  25.5342753  72.1588903
   9.7371673  25.0742753  72.4748903  12.0881673  25.2952753  70.7448903
  12.4071673  26.0812753  70.9478903  11.7181673  25.0252753  71.4878903
  12.0811673  25.3712753  70.8848903  11.4021673  31.7192753  56.2748903
  11.7361673  30.9132753  56.3098903  10.6471673  31.6472753  56.7048903
  11.3401673  31.5892753  56.3438903  11.8841673  23.5532753  61.9338903
  11.1391673  23.2302753  62.2518903  11.8861673  24.3792753  62.2138903
  11.7741673  23.6272753  62.0218903  14.7861673  25.8372753  73.4798903
  14.7341673  25.4962753  72.6788903  15.5231673  26.3042753  73.4578903
  14.8871673  25.8562753  73.3578903  14.3241673  29.5132753  69.6858903
  14.9521673  28.9642753  69.4298903  14.2631673  30.0782753  69.0238903
  14.4081673  29.5162753  69.5498903   8.7761673  29.5942753  55.6778903
   9.4601673  29.0802753  55.5088903   8.3591673  29.6402753  54.9128903
   8.8151673  29.5252753  55.5398903   3.4581673  30.7442753  66.9818903
   3.1601673  31.3362753  67.5488903   3.5131673  31.1862753  66.2328903
   3.4221673  30.8972753  66.9548903  10.7961673  19.8832753  69.3948903
  11.5401673  20.3352753  69.3318903  10.2301673  20.3532753  68.9258903
  10.8231673  20.0202753  69.3168903   5.9741673  27.1672753  66.4728903
   6.4501673  27.5412753  67.1008903   5.1511673  27.3012753  66.7318903
   5.9231673  27.2422753  66.6038903   2.6841673  22.7702753  69.2138903
   2.8451673  22.0262753  69.6408903   2.6391673  22.5212753  68.3788903
   2.7011673  22.6232753  69.1538903   5.2381673  34.5602753  61.7008903
   5.7841673  35.2392753  61.7548903   4.8881673  34.6422753  60.9058903
   5.2671673  34.6732753  61.5908903  12.0811673  17.8632753  67.0648903
  11.8011673  18.6882753  67.0208903  12.7971673  17.9162753  67.5608903
  12.1461673  17.9932753  67.1318903   4.4361673  18.5782753  69.0938903
   5.1411673  18.8982753  68.6918903   4.6771673  17.7712753  69.3208903
   4.5751673  18.5062753  69.0678903   3.4211673  32.7882753  65.0898903
   2.7971673  33.3702753  64.9078903   3.6691673  32.5022753  64.3038903
   3.3651673  32.8322753  64.9468903   7.7301673  29.4222753  72.0788903
   8.4871673  29.7082753  71.7528903   7.1831673  29.4742753  71.4008903
   7.7611673  29.4722753  71.9298903  11.6391673  31.9722753  70.5828903
  11.9851673  32.2422753  71.3368903  11.9331673  32.5542753  70.0028903
  11.7341673  32.0982753  70.6088903  13.5021673  24.1182753  55.9218903
  13.8801673  24.7952753  55.5218903  12.6601673  24.3422753  55.9528903
  13.4331673  24.2512753  55.8668903   5.0151673  27.5642753  55.0048903
   4.2101673  27.3872753  54.7198903   4.9821673  28.4152753  55.1968903
   4.8911673  27.6632753  54.9918903   8.9611673  22.7332753  70.7468903
   8.3131673  23.2032753  71.0948903   9.5261673  22.6442753  71.4058903
   8.9491673  22.7892753  70.8958903   8.6491673  24.2702753  67.0448903
   8.9511673  24.6902753  67.7478903   8.6851673  23.4302753  67.2768903
   8.6991673  24.2082753  67.1828903   6.0741673  34.4372753  70.9698903
   6.5521673  33.8372753  70.5538903   5.7231673  33.9942753  71.6348903
   6.0931673  34.2832753  71.0068903  11.1971673  23.7172753  59.2968903
  11.4041673  23.5162753  60.1208903  11.9531673  23.9852753  58.9548903
  11.3391673  23.7272753  59.3678903   4.4921673  18.6162753  65.2018903
   3.6661673  18.4672753  65.4388903   4.4521673  18.6512753  64.3308903
   4.3641673  18.5992753  65.1078903  12.2191673  19.8002753  60.7708903
  11.5051673  19.3292753  60.9418903  12.0571673  20.1412753  59.9848903
  12.0901673  19.7812753  60.6798903  12.6621673  27.7442753  59.1508903
  13.1381673  27.0152753  59.1028903  11.8411673  27.4582753  59.0748903
  12.6111673  27.5942753  59.1318903   6.1331673  29.6562753  69.9898903
   5.3381673  29.5922753  70.3408903   6.2041673  30.5032753  69.7948903
   6.0261673  29.7712753  70.0128903   8.8781673  28.9112753  61.5058903
   8.9541673  29.2522753  62.3048903   9.0471673  28.0642753  61.6268903
   8.9141673  28.8362753  61.6418903   6.4001673  28.1852753  61.0708903
   6.1021673  27.8702753  61.8278903   7.0951673  28.6582753  61.3058903
   6.4591673  28.2082753  61.2178903   6.6221673  32.3032753  69.0978903
   7.3091673  32.1892753  69.6228903   6.7561673  33.0942753  68.7538903
   6.7431673  32.4032753  69.1248903  14.7981673  24.9122753  70.9088903
  13.9431673  24.7902753  71.0348903  14.9511673  24.5172753  70.1458903
  14.6941673  24.8352753  70.8148903   9.3111673  25.5772753  69.4848903
   9.0561673  24.8582753  69.9068903  10.1321673  25.6932753  69.7548903
   9.3951673  25.4882753  69.5868903   7.2451673  26.7672753  72.6718903
   7.5681673  27.4532753  72.2398903   6.5411673  27.0902753  73.0738903
   7.1881673  26.9162753  72.6668903  10.3291673  35.1412753  63.6008903
   9.8781673  35.7842753  63.9798903  11.0371673  35.0622753  64.1058903
  10.3671673  35.2242753  63.7318903   7.0301673  30.2312753  66.5308903
   6.3361673  30.6332753  66.8738903   7.7071673  30.6642753  66.8698903
   7.0271673  30.3542753  66.6318903  12.4071673  32.8242753  73.1108903
  13.1831673  32.4342753  73.1938903  11.9381673  32.4882753  73.7658903
  12.4521673  32.7172753  73.2198903  13.4321673  24.8572753  58.5928903
  13.5351673  24.7992753  57.7288903  14.1731673  24.5252753  58.9108903
  13.5571673  24.8002753  58.5118903   7.3521673  31.8222753  59.6998903
   7.1471673  32.6552753  59.5408903   6.5771673  31.4402753  59.8218903
   7.2071673  31.8892753  59.6948903  12.5341673  25.0032753  67.9488903
  12.5321673  24.1402753  68.0728903  12.6011673  25.3272753  68.7558903
  12.5441673  24.9232753  68.0858903   8.4131673  19.8032753  71.7308903
   8.5051673  20.5152753  72.2248903   7.7761673  19.3582753  72.1278903
   8.3321673  19.8422753  71.8628903   7.4071673  19.9932753  62.5848903
   6.7071673  20.5112753  62.5288903   7.4451673  19.6132753  61.8008903
   7.3091673  20.0142753  62.4608903   2.7141673  32.0842753  56.1088903
   3.1551673  32.1642753  56.8568903   1.9091673  31.8682753  56.3668903
   2.6601673  32.0642753  56.2578903  11.0051673  20.5092753  65.3848903
  11.8601673  20.6082753  65.5298903  10.6361673  21.0622753  65.9498903
  11.0771673  20.6062753  65.4898903  11.3091673  25.7892753  63.8758903
  11.9751673  26.3302753  64.0358903  10.9641673  26.1002753  63.1368903
  11.3561673  25.9152753  63.7908903  11.6221673  33.8552753  59.6828903
  11.4481673  33.2012753  60.2328903  12.3351673  33.5842753  59.2598903
  11.7021673  33.7182753  59.7018903   2.8621673  29.3992753  55.4528903
   2.0441673  29.1312753  55.5928903   2.8341673  30.2512753  55.6378903
   2.7371673  29.4862753  55.5008903  14.4801673  18.3472753  68.5408903
  14.4281673  18.3032753  69.4108903  15.1671673  17.8442753  68.3508903
  14.5741673  18.2672753  68.6408903   6.5651673  20.4602753  65.5858903
   5.8281673  20.0062753  65.6988903   7.1361673  20.0582753  66.1088903
   6.5401673  20.3332753  65.6798903   9.2971673  31.3082753  67.3738903
   9.5031673  31.6092753  68.1658903   9.2361673  32.0302753  66.8888903
   9.3181673  31.4592753  67.4188903   8.8311673  35.5222753  71.6198903
   8.0781673  35.5042753  71.1788903   8.9991673  36.3742753  71.7038903
   8.7451673  35.6452753  71.5668903   4.0681673  24.7892753  70.7898903
   3.7461673  24.2132753  70.2198903   3.7091673  25.5442753  70.5438903
   3.9681673  24.8152753  70.6698903   4.8641673  18.0412753  55.4168903
   4.9421673  18.2882753  54.5838903   4.1211673  18.4182753  55.6748903
   4.7661673  18.1332753  55.3318903  14.1091673  29.9472753  66.8318903
  14.0771673  29.0852753  66.6968903  13.4161673  30.2492753  66.3978903
  14.0021673  29.8642753  66.7478903   2.5031673  35.1452753  71.0378903
   2.5441673  35.2712753  71.9008903   3.1541673  34.5852753  70.8818903
   2.6051673  35.0812753  71.1428903  12.2141673  33.2072753  65.6288903
  12.7411673  33.1242753  64.9378903  11.8231673  32.4292753  65.6828903
  12.2341673  33.0802753  65.5348903   8.7281673  18.6512753  64.8368903
   9.3981673  19.1952753  64.9638903   8.2251673  19.0752753  64.2638903
   8.7531673  18.7942753  64.7708903   8.0871673  24.4592753  62.3298903
   8.6381673  23.8522753  62.6298903   7.6621673  24.7222753  63.0448903
   8.1061673  24.4082753  62.4788903  10.0571673  26.2902753  58.8918903
  10.1251673  25.4402753  59.0728903   9.2341673  26.3762753  58.6138903
   9.9451673  26.1772753  58.8778903   3.9761673  27.1812753  57.8298903
   4.0761673  27.3202753  56.9748903   4.7941673  27.1212753  58.1258903
   4.1111673  27.1922753  57.7468903  13.1361673  35.2452753  55.3098903
  13.7731673  35.1112753  55.8908903  12.7951673  34.4512753  55.1928903
  13.1801673  35.1082753  55.3778903  13.3311673  27.6632753  72.0428903
  13.9651673  27.4932753  72.6168903  13.7481673  28.0662753  71.3908903
  13.4861673  27.6982753  72.0318903   9.2111673  31.5102753  57.6318903
   8.9601673  31.3822753  58.4578903   8.8941673  30.8152753  57.2108903
   9.1271673  31.3892753  57.6918903  13.9561673  22.2272753  72.7808903
  13.7601673  22.8712753  73.3358903  13.2341673  21.7372753  72.7728903
  13.8211673  22.2502753  72.8618903  13.8551673  23.1682753  65.7518903
  13.0221673  23.4182753  65.6798903  13.7991673  22.3282753  65.9808903
  13.7241673  23.0812753  65.7748903   3.1151673  20.1562753  70.9458903
   3.3491673  19.5802753  70.3328903   2.2731673  19.9752753  71.0868903
   3.0251673  20.0442753  70.8758903  10.7421673  27.7742753  73.3978903
  11.6131673  27.7382753  73.3618903  10.5231673  28.1942753  72.6658903
  10.8391673  27.8302753  73.2848903   6.0971673  29.7182753  57.0618903
   6.8141673  29.3712753  56.7058903   6.0631673  30.5182753  56.7138903
   6.1981673  29.7852753  56.9578903   7.5061673  18.3592753  41.3006493
   7.2611673  18.8472753  40.6206493   8.3691673  18.2862753  41.2006493
   7.5971673  18.4202753  41.1856493   7.3151673  25.2752753  45.9716493
   6.7911673  25.8712753  46.3346493   7.7121673  24.9072753  46.6556493
   7.2961673  25.3092753  46.1266493  13.4591673  32.7162753  38.9426493
  14.1601673  32.1972753  38.9386493  12.8721673  32.2712753  38.4736493
  13.4761673  32.5732753  38.8726493   9.9861673  26.3422753  42.6476493
  10.0661673  26.3462753  41.7786493   9.4021673  25.7102753  42.7966493
   9.9111673  26.2492753  42.5416493   3.9751673  19.4462753  40.4556493
   3.9051673  20.1232753  39.9096493   4.7161673  19.0582753  40.2066493
   4.0741673  19.4892753  40.3376493   3.6981673  29.6752753  52.7496493
   3.4621673  29.6722753  53.5896493   2.9501673  29.5272753  52.3256493
   3.5521673  29.6522753  52.8106493   3.0781673  22.2812753  47.2316493
   3.7561673  22.2992753  46.6826493   3.0331673  21.4452753  47.4766493
   3.1711673  22.1602753  47.1866493   3.6801673  32.8672753  50.0126493
   3.8181673  33.6272753  49.6056493   4.4711673  32.5022753  50.0396493
   3.8171673  32.9262753  49.9566493   4.7751673  30.7522753  44.5176493
   5.1231673  29.9532753  44.5476493   5.4401673  31.2562753  44.2626493
   4.9251673  30.7082753  44.4846493   4.8321673  30.2012753  40.7286493
   5.1631673  29.5572753  41.2146493   5.0721673  29.9902753  39.9176493
   4.9161673  30.0752753  40.6806493   6.8001673  24.3322753  52.0676493
   5.9521673  24.2332753  51.8896493   6.8291673  25.0772753  52.5216493
   6.6791673  24.4282753  52.1086493  11.3581673  17.2922753  51.1816493
  11.2001673  18.0612753  50.7996493  10.5861673  17.0722753  51.5256493
  11.2201673  17.3732753  51.1766493   4.1471673  19.0072753  43.3966493
   4.2201673  19.8672753  43.5256493   4.1091673  18.9322753  42.5286493
   4.1521673  19.1232753  43.2876493   8.8201673  21.9332753  35.6956493
   8.3701673  22.6142753  36.0026493   8.9341673  21.4292753  36.3986493
   8.7711673  21.9592753  35.8446493   2.7761673  31.9862753  40.2776493
   2.1971673  31.7112753  40.8696493   3.4001673  31.3772753  40.3026493
   2.7831673  31.8562753  40.3686493   8.9191673  34.2742753  37.7996493
   9.6461673  34.7462753  37.9016493   9.1481673  33.4802753  38.0796493
   9.0611673  34.2272753  37.8566493   7.0871673  34.6662753  39.7896493
   7.3011673  35.1932753  40.4516493   7.8541673  34.4922753  39.4106493
   7.2321673  34.7182753  39.8316493   3.3611673  21.3822753  54.6866493
   3.4781673  20.9282753  53.9506493   3.6491673  22.1802753  54.4836493
   3.4211673  21.4332753  54.5476493  14.2141673  21.9062753  41.9906493
  13.8681673  22.5842753  42.4166493  13.5781673  21.3082753  42.0066493
  14.0691673  21.9182753  42.0556493   9.5261673  34.6762753  48.0946493
  10.2701673  35.1322753  48.0846493   9.4051673  34.4622753  47.2576493
   9.6181673  34.7122753  47.9696493   2.5301673  34.1512753  43.5246493
   3.3741673  34.2552753  43.3296493   2.2331673  34.9692753  43.5926493
   2.6111673  34.2872753  43.5056493   5.7431673  18.6222753  52.8386493
   5.9211673  17.8132753  52.5636493   5.6001673  19.0632753  52.0996493
   5.7481673  18.5682753  52.6886493   6.3371673  23.5482753  41.6116493
   6.6241673  23.3162753  40.8216493   7.0691673  23.6272753  42.0806493
   6.4871673  23.5252753  41.5646493   7.0591673  23.8872753  36.7326493
   7.3401673  24.6752753  36.9816493   6.2831673  24.0522753  36.3696493
   6.9861673  24.0282753  36.7156493  11.1001673  35.8612753  38.1996493
  11.7651673  35.7132753  37.6546493  11.4601673  35.7782753  38.9896493
  11.2521673  35.8272753  38.2356493  13.8891673  20.2292753  47.3596493
  14.6461673  20.3012753  46.9316493  13.9521673  19.4562753  47.7586493
  14.0101673  20.1262753  47.3546493   8.7801673  31.8612753  51.7986493
   8.7461673  32.2432753  52.5826493   9.6341673  31.8192753  51.6276493
   8.9011673  31.9112753  51.8896493   5.9181673  32.0582753  36.5486493
   5.7371673  32.6032753  37.2056493   6.6841673  32.3482753  36.2476493
   6.0041673  32.1822753  36.6016493   9.4251673  19.9542753  37.6026493
   9.9651673  19.2722753  37.6786493   9.4871673  20.3522753  38.3766493
   9.5141673  19.9122753  37.7286493   6.6831673  22.3302753  38.9166493
   6.1751673  21.6682753  38.6626493   6.7351673  22.8342753  38.2066493
   6.6161673  22.3072753  38.7746493   7.2321673  35.0252753  49.2966493
   8.0001673  34.9452753  48.8906493   6.6491673  34.9042753  48.6586493
   7.2591673  34.9952753  49.1426493   6.6831673  19.2712753  38.8076493
   6.2281673  18.8692753  38.1816493   7.4561673  19.4262753  38.4326493
   6.7301673  19.2352753  38.6596493  13.5091673  35.6282753  42.1976493
  13.0541673  36.3452753  42.3986493  12.8951673  35.0572753  41.9556493
  13.3511673  35.6502753  42.1916493   5.2811673  21.6382753  43.3296493
   5.3551673  22.2062753  42.6716493   5.4021673  22.1302753  44.0396493
   5.3091673  21.7952753  43.3376493  10.5061673  31.4732753  41.7416493
  11.2071673  30.9912753  41.9306493   9.8461673  30.9042753  41.7866493
  10.5121673  31.3182753  41.7756493   2.8451673  27.8942753  45.7026493
   3.0171673  27.6842753  46.5316493   2.1901673  27.3602753  45.4866493
   2.7741673  27.7842753  45.7936493   9.0731673  21.8082753  49.2176493
   8.9781673  22.1272753  50.0236493   8.4801673  21.1692753  49.1796493
   8.9711673  21.7602753  49.3316493   3.5951673  27.8322753  48.2926493
   3.6481673  28.6792753  48.4946493   3.3101673  27.4622753  49.0296493
   3.5611673  27.9022753  48.4306493   9.7721673  28.5272753  47.4226493
   9.2581673  28.1152753  47.9936493   9.6461673  29.3712753  47.6036493
   9.6781673  28.5912753  47.5336493  10.3291673  17.7522753  42.0536493
  10.3781673  17.4342753  42.8646493  10.6521673  17.1082753  41.5606493
  10.3841673  17.6102753  42.1006493  12.7931673  21.9882753  50.3616493
  13.5651673  21.7632753  50.6986493  12.3181673  22.2052753  51.0616493
  12.8371673  21.9872753  50.5146493  13.0251673  28.9662753  37.5496493
  13.1441673  28.6792753  38.3646493  13.8321673  28.9872753  37.2196493
  13.1611673  28.9272753  37.6216493  15.2591673  33.4752753  51.8036493
  14.5771673  33.7852753  51.3566493  14.8901673  33.0172753  52.4486493
  15.1031673  33.4532753  51.8326493  10.9201673  25.5032753  37.1346493
  10.7001673  26.2342753  36.7126493  10.4721673  25.5542753  37.8816493
  10.8211673  25.6182753  37.1826493   2.5291673  28.7052753  41.1156493
   3.2421673  29.2002753  41.2056493   2.7511673  28.1382753  40.4896493
   2.6671673  28.6942753  41.0366493  15.1071673  20.3642753  36.5876493
  14.4451673  19.7962753  36.6106493  14.9141673  20.8762753  35.9076493
  14.9811673  20.3562753  36.4906493   4.3321673  24.0582753  54.5316493
   3.8481673  24.6352753  54.9736493   4.3041673  24.3532753  53.7106493
   4.2561673  24.1872753  54.4756493  15.4301673  24.7422753  49.1436493
  15.6451673  23.9422753  48.8676493  14.5801673  24.8022753  48.9546493
  15.3361673  24.6332753  49.0746493  13.1091673  19.9222753  38.8666493
  13.8551673  19.5152753  39.0656493  13.3721673  20.6372753  38.4416493
  13.2581673  19.9682753  38.8336493   7.0521673  32.4082753  43.4426493
   6.5291673  33.0422753  43.1496493   7.3621673  32.0442753  42.7136493
   7.0201673  32.4482753  43.2916493   9.5631673  22.2102753  43.9396493
   9.9071673  22.3622753  44.7266493   9.1101673  21.4722753  44.0526493
   9.5471673  22.1232753  44.0726493   4.0391673  21.4302753  38.3966493
   4.0371673  21.3132753  37.5316493   3.8581673  22.2782753  38.4886493
   4.0121673  21.5382753  38.2826493  13.0931673  33.8572753  49.8936493
  12.4221673  34.3712753  50.1116493  13.1561673  33.9572753  49.0296493
  13.0031673  33.9482753  49.7986493   1.7771673  31.3822753  43.0286493
   1.9031673  32.2252753  43.2156493   2.4451673  30.9832753  43.4246493
   1.8951673  31.4482753  43.1146493  10.8841673  23.5422753  46.4936493
  10.2221673  23.8702753  46.9566493  11.0711673  24.1762753  45.9246493
  10.8141673  23.6842753  46.4776493   5.0891673  34.6062753  47.4896493
   4.8121673  33.9652753  46.9666493   4.8811673  35.3322753  47.0516493
   5.0181673  34.6192753  47.3476493   7.5291673  19.4482753  49.9226493
   7.6781673  18.6232753  49.6796493   7.9081673  19.5032753  50.7066493
   7.6071673  19.3342753  50.0026493   9.0771673  21.5112753  40.0046493
   9.5671673  22.2282753  39.9276493   8.2871673  21.7722753  39.7416493
   9.0331673  21.6552753  39.9546493  10.3911673  29.3892753  51.9146493
  10.8751673  30.1072753  52.0126493  10.7851673  28.9622753  51.2636493
  10.5211673  29.4322753  51.8326493   4.6871673  32.2342753  53.0916493
   5.0411673  32.0562753  53.8686493   4.2511673  31.5052753  52.8926493
   4.6751673  32.1002753  53.1776493   5.6591673  22.9812753  45.7296493
   6.1391673  23.6802753  45.9376493   6.0321673  22.3342753  46.1806493
   5.7851673  22.9892753  45.8266493   7.8481673  26.1502753  38.0036493
   7.8401673  26.8722753  37.5136493   7.2091673  26.2852753  38.5806493
   7.7531673  26.2772753  38.0166493  12.8201673  30.0202753  41.9846493
  13.1761673  29.6702753  42.6996493  12.8121673  29.3592753  41.4146493
  12.8721673  29.8702753  42.0056493   8.8651673  33.0862753  45.8286493
   8.2621673  32.7902753  45.2716493   9.4101673  33.5382753  45.3196493
   8.8561673  33.1092753  45.6706493   8.8781673  29.9372753  45.2286493
   8.0811673  30.1612753  45.5026493   9.1361673  29.3432753  45.8136493
   8.7981673  29.8822753  45.3556493   2.7701673  34.7492753  39.6766493
   2.6231673  33.9732753  40.0476493   3.4591673  34.6022753  39.1616493
   2.8501673  34.6122753  39.6556493   5.0621673  34.2652753  38.0786493
   5.6841673  34.4282753  38.6686493   5.0981673  34.9562753  37.5466493
   5.1591673  34.3912753  38.0876493  12.1381673  27.9352753  50.0746493
  12.1931673  28.0602753  49.2126493  12.8911673  28.2552753  50.3766493
  12.2571673  28.0002753  49.9916493   8.3291673  33.2842753  54.3516493
   8.4931673  33.5672753  55.1606493   8.5921673  33.9452753  53.8466493
   8.3921673  33.4242753  54.3966493  13.1701673  18.2332753  53.0616493
  12.5331673  17.8332753  52.6196493  13.1961673  17.8022753  53.8196493
  13.0801673  18.1112753  53.1076493   7.8691673  27.7412753  49.6746493
   7.7141673  28.3512753  50.2786493   8.4031673  27.1832753  50.0806493
   7.9251673  27.7492753  49.8236493   6.2531673  26.1412753  40.3326493
   6.3121673  26.7912753  40.9116493   6.0641673  25.4452753  40.8236493
   6.2341673  26.1342753  40.4906493  11.4791673  30.4702753  46.2016493
  11.0001673  30.7682753  45.5356493  11.1231673  29.6942753  46.3796493
  11.3561673  30.3992753  46.1296493   5.4761673  28.1882753  44.7636493
   4.6291673  27.9942753  44.8446493   5.8001673  28.0232753  45.5566493
   5.3981673  28.1352753  44.8926493   2.2281673  34.9182753  35.6496493
   2.6671673  34.2212753  35.9376493   2.4351673  35.5422753  36.2226493
   2.3241673  34.9072753  35.7766493   2.5541673  23.0522753  43.8146493
   3.4001673  22.8622753  43.9126493   2.1841673  22.2752753  43.6766493
   2.6241673  22.9092753  43.8086493  15.1711673  34.6362753  38.1416493
  15.8651673  34.1692753  37.8936493  14.6321673  34.0382753  38.4786493
  15.1941673  34.4782753  38.1546493  12.4101673  27.4122753  47.3206493
  12.4031673  26.6362753  47.7186493  11.5691673  27.6462753  47.3136493
  12.2851673  27.3322753  47.3786493  13.6661673  27.4832753  44.7576493
  13.3801673  27.8842753  45.4776493  14.5261673  27.4212753  44.8846493
  13.7511673  27.5332753  44.8826493   3.3551673  24.2852753  38.6656493
   3.6271673  25.1112753  38.7326493   2.4921673  24.3602753  38.5696493
   3.2681673  24.4182753  38.6606493  11.3281673  21.4072753  53.2976493
  10.8031673  21.8662753  53.8216493  10.9671673  20.6122753  53.2916493
  11.1971673  21.3572753  53.3736493  14.7971673  33.1162753  45.2866493
  15.0871673  33.3732753  44.5056493  15.4921673  33.2122753  45.8056493
  14.9431673  33.1682753  45.2476493   9.8201673  24.9762753  53.3736493
   9.8931673  25.0802753  54.2366493   9.1861673  25.5342753  53.1526493
   9.7371673  25.0742753  53.4686493  12.0881673  25.2952753  51.7386493
  12.4071673  26.0812753  51.9416493  11.7181673  25.0252753  52.4816493
  12.0811673  25.3712753  51.8786493  11.4021673  31.7192753  37.2686493
  11.7361673  30.9132753  37.3036493  10.6471673  31.6472753  37.6986493
  11.3401673  31.5892753  37.3376493  11.8841673  23.5532753  42.9276493
  11.1391673  23.2302753  43.2456493  11.8861673  24.3792753  43.2076493
  11.7741673  23.6272753  43.0156493  14.7861673  25.8372753  54.4736493
  14.7341673  25.4962753  53.6726493  15.5231673  26.3042753  54.4516493
  14.8871673  25.8562753  54.3516493  14.3241673  29.5132753  50.6796493
  14.9521673  28.9642753  50.4236493  14.2631673  30.0782753  50.0176493
  14.4081673  29.5162753  50.5436493   8.7761673  29.5942753  36.6716493
   9.4601673  29.0802753  36.5026493   8.3591673  29.6402753  35.9066493
   8.8151673  29.5252753  36.5336493   3.4581673  30.7442753  47.9756493
   3.1601673  31.3362753  48.5426493   3.5131673  31.1862753  47.2266493
   3.4221673  30.8972753  47.9486493  10.7961673  19.8832753  50.3886493
  11.5401673  20.3352753  50.3256493  10.2301673  20.3532753  49.9196493
  10.8231673  20.0202753  50.3106493   5.9741673  27.1672753  47.4666493
   6.4501673  27.5412753  48.0946493   5.1511673  27.3012753  47.7256493
   5.9231673  27.2422753  47.5976493   2.6841673  22.7702753  50.2076493
   2.8451673  22.0262753  50.6346493   2.6391673  22.5212753  49.3726493
   2.7011673  22.6232753  50.1476493   5.2381673  34.5602753  42.6946493
   5.7841673  35.2392753  42.7486493   4.8881673  34.6422753  41.8996493
   5.2671673  34.6732753  42.5846493  12.0811673  17.8632753  48.0586493
  11.8011673  18.6882753  48.0146493  12.7971673  17.9162753  48.5546493
  12.1461673  17.9932753  48.1256493   4.4361673  18.5782753  50.0876493
   5.1411673  18.8982753  49.6856493   4.6771673  17.7712753  50.3146493
   4.5751673  18.5062753  50.0616493   3.4211673  32.7882753  46.0836493
   2.7971673  33.3702753  45.9016493   3.6691673  32.5022753  45.2976493
   3.3651673  32.8322753  45.9406493   7.7301673  29.4222753  53.0726493
   8.4871673  29.7082753  52.7466493   7.1831673  29.4742753  52.3946493
   7.7611673  29.4722753  52.9236493  11.6391673  31.9722753  51.5766493
  11.9851673  32.2422753  52.3306493  11.9331673  32.5542753  50.9966493
  11.7341673  32.0982753  51.6026493  13.5021673  24.1182753  36.9156493
  13.8801673  24.7952753  36.5156493  12.6601673  24.3422753  36.9466493
  13.4331673  24.2512753  36.8606493   5.0151673  27.5642753  35.9986493
   4.2101673  27.3872753  35.7136493   4.9821673  28.4152753  36.1906493
   4.8911673  27.6632753  35.9856493   8.9611673  22.7332753  51.7406493
   8.3131673  23.2032753  52.0886493   9.5261673  22.6442753  52.3996493
   8.9491673  22.7892753  51.8896493   8.6491673  24.2702753  48.0386493
   8.9511673  24.6902753  48.7416493   8.6851673  23.4302753  48.2706493
   8.6991673  24.2082753  48.1766493   6.0741673  34.4372753  51.9636493
   6.5521673  33.8372753  51.5476493   5.7231673  33.9942753  52.6286493
   6.0931673  34.2832753  52.0006493  11.1971673  23.7172753  40.2906493
  11.4041673  23.5162753  41.1146493  11.9531673  23.9852753  39.9486493
  11.3391673  23.7272753  40.3616493   4.4921673  18.6162753  46.1956493
   3.6661673  18.4672753  46.4326493   4.4521673  18.6512753  45.3246493
   4.3641673  18.5992753  46.1016493  12.2191673  19.8002753  41.7646493
  11.5051673  19.3292753  41.9356493  12.0571673  20.1412753  40.9786493
  12.0901673  19.7812753  41.6736493  12.6621673  27.7442753  40.1446493
  13.1381673  27.0152753  40.0966493  11.8411673  27.4582753  40.0686493
  12.6111673  27.5942753  40.1256493   6.1331673  29.6562753  50.9836493
   5.3381673  29.5922753  51.3346493   6.2041673  30.5032753  50.7886493
   6.0261673  29.7712753  51.0066493   8.8781673  28.9112753  42.4996493
   8.9541673  29.2522753  43.2986493   9.0471673  28.0642753  42.6206493
   8.9141673  28.8362753  42.6356493   6.4001673  28.1852753  42.0646493
   6.1021673  27.8702753  42.8216493   7.0951673  28.6582753  42.2996493
   6.4591673  28.2082753  42.2116493   6.6221673  32.3032753  50.0916493
   7.3091673  32.1892753  50.6166493   6.7561673  33.0942753  49.7476493
   6.7431673  32.4032753  50.1186493  14.7981673  24.9122753  51.9026493
  13.9431673  24.7902753  52.0286493  14.9511673  24.5172753  51.1396493
  14.6941673  24.8352753  51.8086493   9.3111673  25.5772753  50.4786493
   9.0561673  24.8582753  50.9006493  10.1321673  25.6932753  50.7486493
   9.3951673  25.4882753  50.5806493   7.2451673  26.7672753  53.6656493
   7.5681673  27.4532753  53.2336493   6.5411673  27.0902753  54.0676493
   7.1881673  26.9162753  53.6606493  10.3291673  35.1412753  44.5946493
   9.8781673  35.7842753  44.9736493  11.0371673  35.0622753  45.0996493
  10.3671673  35.2242753  44.7256493   7.0301673  30.2312753  47.5246493
   6.3361673  30.6332753  47.8676493   7.7071673  30.6642753  47.8636493
   7.0271673  30.3542753  47.6256493  12.4071673  32.8242753  54.1046493
  13.1831673  32.4342753  54.1876493  11.9381673  32.4882753  54.7596493
  12.4521673  32.7172753  54.2136493  13.4321673  24.8572753  39.5866493
  13.5351673  24.7992753  38.7226493  14.1731673  24.5252753  39.9046493
  13.5571673  24.8002753  39.5056493   7.3521673  31.8222753  40.6936493
   7.1471673  32.6552753  40.5346493   6.5771673  31.4402753  40.8156493
   7.2071673  31.8892753  40.6886493  12.5341673  25.0032753  48.9426493
  12.5321673  24.1402753  49.0666493  12.6011673  25.3272753  49.7496493
  12.5441673  24.9232753  49.0796493   8.4131673  19.8032753  52.7246493
   8.5051673  20.5152753  53.2186493   7.7761673  19.3582753  53.1216493
   8.3321673  19.8422753  52.8566493   7.4071673  19.9932753  43.5786493
   6.7071673  20.5112753  43.5226493   7.4451673  19.6132753  42.7946493
   7.3091673  20.0142753  43.4546493   2.7141673  32.0842753  37.1026493
   3.1551673  32.1642753  37.8506493   1.9091673  31.8682753  37.3606493
   2.6601673  32.0642753  37.2516493  11.0051673  20.5092753  46.3786493
  11.8601673  20.6082753  46.5236493  10.6361673  21.0622753  46.9436493
  11.0771673  20.6062753  46.4836493  11.3091673  25.7892753  44.8696493
  11.9751673  26.3302753  45.0296493  10.9641673  26.1002753  44.1306493
  11.3561673  25.9152753  44.7846493  11.6221673  33.8552753  40.6766493
  11.4481673  33.2012753  41.2266493  12.3351673  33.5842753  40.2536493
  11.7021673  33.7182753  40.6956493   2.8621673  29.3992753  36.4466493
   2.0441673  29.1312753  36.5866493   2.8341673  30.2512753  36.6316493
   2.7371673  29.4862753  36.4946493  14.4801673  18.3472753  49.5346493
  14.4281673  18.3032753  50.4046493  15.1671673  17.8442753  49.3446493
  14.5741673  18.2672753  49.6346493   6.5651673  20.4602753  46.5796493
   5.8281673  20.0062753  46.6926493   7.1361673  20.0582753  47.1026493
   6.5401673  20.3332753  46.6736493   9.2971673  31.3082753  48.3676493
   9.5031673  31.6092753  49.1596493   9.2361673  32.0302753  47.8826493
   9.3181673  31.4592753  48.4126493   8.8311673  35.5222753  52.6136493
   8.0781673  35.5042753  52.1726493   8.9991673  36.3742753  52.6976493
   8.7451673  35.6452753  52.5606493   4.0681673  24.7892753  51.7836493
   3.7461673  24.2132753  51.2136493   3.7091673  25.5442753  51.5376493
   3.9681673  24.8152753  51.6636493   4.8641673  18.0412753  36.4106493
   4.9421673  18.2882753  35.5776493   4.1211673  18.4182753  36.6686493
   4.7661673  18.1332753  36.3256493  14.1091673  29.9472753  47.8256493
  14.0771673  29.0852753  47.6906493  13.4161673  30.2492753  47.3916493
  14.0021673  29.8642753  47.7416493   2.5031673  35.1452753  52.0316493
   2.5441673  35.2712753  52.8946493   3.1541673  34.5852753  51.8756493
   2.6051673  35.0812753  52.1366493  12.2141673  33.2072753  46.6226493
  12.7411673  33.1242753  45.9316493  11.8231673  32.4292753  46.6766493
  12.2341673  33.0802753  46.5286493   8.7281673  18.6512753  45.8306493
   9.3981673  19.1952753  45.9576493   8.2251673  19.0752753  45.2576493
   8.7531673  18.7942753  45.7646493   8.0871673  24.4592753  43.3236493
   8.6381673  23.8522753  43.6236493   7.6621673  24.7222753  44.0386493
   8.1061673  24.4082753  43.4726493  10.0571673  26.2902753  39.8856493
  10.1251673  25.4402753  40.0666493   9.2341673  26.3762753  39.6076493
   9.9451673  26.1772753  39.8716493   3.9761673  27.1812753  38.8236493
   4.0761673  27.3202753  37.9686493   4.7941673  27.1212753  39.1196493
   4.1111673  27.1922753  38.7406493  13.1361673  35.2452753  36.3036493
  13.7731673  35.1112753  36.8846493  12.7951673  34.4512753  36.1866493
  13.1801673  35.1082753  36.3716493  13.3311673  27.6632753  53.0366493
  13.9651673  27.4932753  53.6106493  13.7481673  28.0662753  52.3846493
  13.4861673  27.6982753  53.0256493   9.2111673  31.5102753  38.6256493
   8.9601673  31.3822753  39.4516493   8.8941673  30.8152753  38.2046493
   9.1271673  31.3892753  38.6856493  13.9561673  22.2272753  53.7746493
  13.7601673  22.8712753  54.3296493  13.2341673  21.7372753  53.7666493
  13.8211673  22.2502753  53.8556493  13.8551673  23.1682753  46.7456493
  13.0221673  23.4182753  46.6736493  13.7991673  22.3282753  46.9746493
  13.7241673  23.0812753  46.7686493   3.1151673  20.1562753  51.9396493
   3.3491673  19.5802753  51.3266493   2.2731673  19.9752753  52.0806493
   3.0251673  20.0442753  51.8696493  10.7421673  27.7742753  54.3916493
  11.6131673  27.7382753  54.3556493  10.5231673  28.1942753  53.6596493
  10.8391673  27.8302753  54.2786493   6.0971673  29.7182753  38.0556493
   6.8141673  29.3712753  37.6996493   6.0631673  30.5182753  37.7076493
   6.1981673  29.7852753  37.9516493   7.5061673  18.3592753  22.2944083
   7.2611673  18.8472753  21.6144083   8.3691673  18.2862753  22.1944083
   7.5971673  18.4202753  22.1794083   7.3151673  25.2752753  26.9654083
   6.7911673  25.8712753  27.3284083   7.7121673  24.9072753  27.6494083
   7.2961673  25.3092753  27.1204083  13.4591673  32.7162753  19.9364083
  14.1601673  32.1972753  19.9324083  12.8721673  32.2712753  19.4674083
  13.4761673  32.5732753  19.8664083   9.9861673  26.3422753  23.6414083
  10.0661673  26.3462753  22.7724083   9.4021673  25.7102753  23.7904083
   9.9111673  26.2492753  23.5354083   3.9751673  19.4462753  21.4494083
   3.9051673  20.1232753  20.9034083   4.7161673  19.0582753  21.2004083
   4.0741673  19.4892753  21.3314083   3.6981673  29.6752753  33.7434083
   3.4621673  29.6722753  34.5834083   2.9501673  29.5272753  33.3194083
   3.5521673  29.6522753  33.8044083   3.0781673  22.2812753  28.2254083
   3.7561673  22.2992753  27.6764083   3.0331673  21.4452753  28.4704083
   3.1711673  22.1602753  28.1804083   3.6801673  32.8672753  31.0064083
   3.8181673  33.6272753  30.5994083   4.4711673  32.5022753  31.0334083
   3.8171673  32.9262753  30.9504083   4.7751673  30.7522753  25.5114083
   5.1231673  29.9532753  25.5414083   5.4401673  31.2562753  25.2564083
   4.9251673  30.7082753  25.4784083   4.8321673  30.2012753  21.7224083
   5.1631673  29.5572753  22.2084083   5.0721673  29.9902753  20.9114083
   4.9161673  30.0752753  21.6744083   6.8001673  24.3322753  33.0614083
   5.9521673  24.2332753  32.8834083   6.8291673  25.0772753  33.5154083
   6.6791673  24.4282753  33.1024083  11.3581673  17.2922753  32.1754083
  11.2001673  18.0612753  31.7934083  10.5861673  17.0722753  32.5194083
  11.2201673  17.3732753  32.1704083   4.1471673  19.0072753  24.3904083
   4.2201673  19.8672753  24.5194083   4.1091673  18.9322753  23.5224083
   4.1521673  19.1232753  24.2814083   8.8201673  21.9332753  16.6894083
   8.3701673  22.6142753  16.9964083   8.9341673  21.4292753  17.3924083
   8.7711673  21.9592753  16.8384083   2.7761673  31.9862753  21.2714083
   2.1971673  31.7112753  21.8634083   3.4001673  31.3772753  21.2964083
   2.7831673  31.8562753  21.3624083   8.9191673  34.2742753  18.7934083
   9.6461673  34.7462753  18.8954083   9.1481673  33.4802753  19.0734083
   9.0611673  34.2272753  18.8504083   7.0871673  34.6662753  20.7834083
   7.3011673  35.1932753  21.4454083   7.8541673  34.4922753  20.4044083
   7.2321673  34.7182753  20.8254083   3.3611673  21.3822753  35.6804083
   3.4781673  20.9282753  34.9444083   3.6491673  22.1802753  35.4774083
   3.4211673  21.4332753  35.5414083  14.2141673  21.9062753  22.9844083
  13.8681673  22.5842753  23.4104083  13.5781673  21.3082753  23.0004083
  14.0691673  21.9182753  23.0494083   9.5261673  34.6762753  29.0884083
  10.2701673  35.1322753  29.0784083   9.4051673  34.4622753  28.2514083
   9.6181673  34.7122753  28.9634083   2.5301673  34.1512753  24.5184083
   3.3741673  34.2552753  24.3234083   2.2331673  34.9692753  24.5864083
   2.6111673  34.2872753  24.4994083   5.7431673  18.6222753  33.8324083
   5.9211673  17.8132753  33.5574083   5.6001673  19.0632753  33.0934083
   5.7481673  18.5682753  33.6824083   6.3371673  23.5482753  22.6054083
   6.6241673  23.3162753  21.8154083   7.0691673  23.6272753  23.0744083
   6.4871673  23.5252753  22.5584083   7.0591673  23.8872753  17.7264083
   7.3401673  24.6752753  17.9754083   6.2831673  24.0522753  17.3634083
   6.9861673  24.0282753  17.7094083  11.1001673  35.8612753  19.1934083
  11.7651673  35.7132753  18.6484083  11.4601673  35.7782753  19.9834083
  11.2521673  35.8272753  19.2294083  13.8891673  20.2292753  28.3534083
  14.6461673  20.3012753  27.9254083  13.9521673  19.4562753  28.7524083
  14.0101673  20.1262753  28.3484083   8.7801673  31.8612753  32.7924083
   8.7461673  32.2432753  33.5764083   9.6341673  31.8192753  32.6214083
   8.9011673  31.9112753  32.8834083   5.9181673  32.0582753  17.5424083
   5.7371673  32.6032753  18.1994083   6.6841673  32.3482753  17.2414083
   6.0041673  32.1822753  17.5954083   9.4251673  19.9542753  18.5964083
   9.9651673  19.2722753  18.6724083   9.4871673  20.3522753  19.3704083
   9.5141673  19.9122753  18.7224083   6.6831673  22.3302753  19.9104083
   6.1751673  21.6682753  19.6564083   6.7351673  22.8342753  19.2004083
   6.6161673  22.3072753  19.7684083   7.2321673  35.0252753  30.2904083
   8.0001673  34.9452753  29.8844083   6.6491673  34.9042753  29.6524083
   7.2591673  34.9952753  30.1364083   6.6831673  19.2712753  19.8014083
   6.2281673  18.8692753  19.1754083   7.4561673  19.4262753  19.4264083
   6.7301673  19.2352753  19.6534083  13.5091673  35.6282753  23.1914083
  13.0541673  36.3452753  23.3924083  12.8951673  35.0572753  22.9494083
  13.3511673  35.6502753  23.1854083   5.2811673  21.6382753  24.3234083
   5.3551673  22.2062753  23.6654083   5.4021673  22.1302753  25.0334083
   5.3091673  21.7952753  24.3314083  10.5061673  31.4732753  22.7354083
  11.2071673  30.9912753  22.9244083   9.8461673  30.9042753  22.7804083
  10.5121673  31.3182753  22.7694083   2.8451673  27.8942753  26.6964083
   3.0171673  27.6842753  27.5254083   2.1901673  27.3602753  26.4804083
   2.7741673  27.7842753  26.7874083   9.0731673  21.8082753  30.2114083
   8.9781673  22.1272753  31.0174083   8.4801673  21.1692753  30.1734083
   8.9711673  21.7602753  30.3254083   3.5951673  27.8322753  29.2864083
   3.6481673  28.6792753  29.4884083   3.3101673  27.4622753  30.0234083
   3.5611673  27.9022753  29.4244083   9.7721673  28.5272753  28.4164083
   9.2581673  28.1152753  28.9874083   9.6461673  29.3712753  28.5974083
   9.6781673  28.5912753  28.5274083  10.3291673  17.7522753  23.0474083
  10.3781673  17.4342753  23.8584083  10.6521673  17.1082753  22.5544083
  10.3841673  17.6102753  23.0944083  12.7931673  21.9882753  31.3554083
  13.5651673  21.7632753  31.6924083  12.3181673  22.2052753  32.0554083
  12.8371673  21.9872753  31.5084083  13.0251673  28.9662753  18.5434083
  13.1441673  28.6792753  19.3584083  13.8321673  28.9872753  18.2134083
  13.1611673  28.9272753  18.6154083  15.2591673  33.4752753  32.7974083
  14.5771673  33.7852753  32.3504083  14.8901673  33.0172753  33.4424083
  15.1031673  33.4532753  32.8264083  10.9201673  25.5032753  18.1284083
  10.7001673  26.2342753  17.7064083  10.4721673  25.5542753  18.8754083
  10.8211673  25.6182753  18.1764083   2.5291673  28.7052753  22.1094083
   3.2421673  29.2002753  22.1994083   2.7511673  28.1382753  21.4834083
   2.6671673  28.6942753  22.0304083  15.1071673  20.3642753  17.5814083
  14.4451673  19.7962753  17.6044083  14.9141673  20.8762753  16.9014083
  14.9811673  20.3562753  17.4844083   4.3321673  24.0582753  35.5254083
   3.8481673  24.6352753  35.9674083   4.3041673  24.3532753  34.7044083
   4.2561673  24.1872753  35.4694083  15.4301673  24.7422753  30.1374083
  15.6451673  23.9422753  29.8614083  14.5801673  24.8022753  29.9484083
  15.3361673  24.6332753  30.0684083  13.1091673  19.9222753  19.8604083
  13.8551673  19.5152753  20.0594083  13.3721673  20.6372753  19.4354083
  13.2581673  19.9682753  19.8274083   7.0521673  32.4082753  24.4364083
   6.5291673  33.0422753  24.1434083   7.3621673  32.0442753  23.7074083
   7.0201673  32.4482753  24.2854083   9.5631673  22.2102753  24.9334083
   9.9071673  22.3622753  25.7204083   9.1101673  21.4722753  25.0464083
   9.5471673  22.1232753  25.0664083   4.0391673  21.4302753  19.3904083
   4.0371673  21.3132753  18.5254083   3.8581673  22.2782753  19.4824083
   4.0121673  21.5382753  19.2764083  13.0931673  33.8572753  30.8874083
  12.4221673  34.3712753  31.1054083  13.1561673  33.9572753  30.0234083
  13.0031673  33.9482753  30.7924083   1.7771673  31.3822753  24.0224083
   1.9031673  32.2252753  24.2094083   2.4451673  30.9832753  24.4184083
   1.8951673  31.4482753  24.1084083  10.8841673  23.5422753  27.4874083
  10.2221673  23.8702753  27.9504083  11.0711673  24.1762753  26.9184083
  10.8141673  23.6842753  27.4714083   5.0891673  34.6062753  28.4834083
   4.8121673  33.9652753  27.9604083   4.8811673  35.3322753  28.0454083
   5.0181673  34.6192753  28.3414083   7.5291673  19.4482753  30.9164083
   7.6781673  18.6232753  30.6734083   7.9081673  19.5032753  31.7004083
   7.6071673  19.3342753  30.9964083   9.0771673  21.5112753  20.9984083
   9.5671673  22.2282753  20.9214083   8.2871673  21.7722753  20.7354083
   9.0331673  21.6552753  20.9484083  10.3911673  29.3892753  32.9084083
  10.8751673  30.1072753  33.0064083  10.7851673  28.9622753  32.2574083
  10.5211673  29.4322753  32.8264083   4.6871673  32.2342753  34.0854083
   5.0411673  32.0562753  34.8624083   4.2511673  31.5052753  33.8864083
   4.6751673  32.1002753  34.1714083   5.6591673  22.9812753  26.7234083
   6.1391673  23.6802753  26.9314083   6.0321673  22.3342753  27.1744083
   5.7851673  22.9892753  26.8204083   7.8481673  26.1502753  18.9974083
   7.8401673  26.8722753  18.5074083   7.2091673  26.2852753  19.5744083
   7.7531673  26.2772753  19.0104083  12.8201673  30.0202753  22.9784083
  13.1761673  29.6702753  23.6934083  12.8121673  29.3592753  22.4084083
  12.8721673  29.8702753  22.9994083   8.8651673  33.0862753  26.8224083
   8.2621673  32.7902753  26.2654083   9.4101673  33.5382753  26.3134083
   8.8561673  33.1092753  26.6644083   8.8781673  29.9372753  26.2224083
   8.0811673  30.1612753  26.4964083   9.1361673  29.3432753  26.8074083
   8.7981673  29.8822753  26.3494083   2.7701673  34.7492753  20.6704083
   2.6231673  33.9732753  21.0414083   3.4591673  34.6022753  20.1554083
   2.8501673  34.6122753  20.6494083   5.0621673  34.2652753  19.0724083
   5.6841673  34.4282753  19.6624083   5.0981673  34.9562753  18.5404083
   5.1591673  34.3912753  19.0814083  12.1381673  27.9352753  31.0684083
  12.1931673  28.0602753  30.2064083  12.8911673  28.2552753  31.3704083
  12.2571673  28.0002753  30.9854083   8.3291673  33.2842753  35.3454083
   8.4931673  33.5672753  36.1544083   8.5921673  33.9452753  34.8404083
   8.3921673  33.4242753  35.3904083  13.1701673  18.2332753  34.0554083
  12.5331673  17.8332753  33.6134083  13.1961673  17.8022753  34.8134083
  13.0801673  18.1112753  34.1014083   7.8691673  27.7412753  30.6684083
   7.7141673  28.3512753  31.2724083   8.4031673  27.1832753  31.0744083
   7.9251673  27.7492753  30.8174083   6.2531673  26.1412753  21.3264083
   6.3121673  26.7912753  21.9054083   6.0641673  25.4452753  21.8174083
   6.2341673  26.1342753  21.4844083  11.4791673  30.4702753  27.1954083
  11.0001673  30.7682753  26.5294083  11.1231673  29.6942753  27.3734083
  11.3561673  30.3992753  27.1234083   5.4761673  28.1882753  25.7574083
   4.6291673  27.9942753  25.8384083   5.8001673  28.0232753  26.5504083
   5.3981673  28.1352753  25.8864083   2.2281673  34.9182753  16.6434083
   2.6671673  34.2212753  16.9314083   2.4351673  35.5422753  17.2164083
   2.3241673  34.9072753  16.7704083   2.5541673  23.0522753  24.8084083
   3.4001673  22.8622753  24.9064083   2.1841673  22.2752753  24.6704083
   2.6241673  22.9092753  24.8024083  15.1711673  34.6362753  19.1354083
  15.8651673  34.1692753  18.8874083  14.6321673  34.0382753  19.4724083
  15.1941673  34.4782753  19.1484083  12.4101673  27.4122753  28.3144083
  12.4031673  26.6362753  28.7124083  11.5691673  27.6462753  28.3074083
  12.2851673  27.3322753  28.3724083  13.6661673  27.4832753  25.7514083
  13.3801673  27.8842753  26.4714083  14.5261673  27.4212753  25.8784083
  13.7511673  27.5332753  25.8764083   3.3551673  24.2852753  19.6594083
   3.6271673  25.1112753  19.7264083   2.4921673  24.3602753  19.5634083
   3.2681673  24.4182753  19.6544083  11.3281673  21.4072753  34.2914083
  10.8031673  21.8662753  34.8154083  10.9671673  20.6122753  34.2854083
  11.1971673  21.3572753  34.3674083  14.7971673  33.1162753  26.2804083
  15.0871673  33.3732753  25.4994083  15.4921673  33.2122753  26.7994083
  14.9431673  33.1682753  26.2414083   9.8201673  24.9762753  34.3674083
   9.8931673  25.0802753  35.2304083   9.1861673  25.5342753  34.1464083
   9.7371673  25.0742753  34.4624083  12.0881673  25.2952753  32.7324083
  12.4071673  26.0812753  32.9354083  11.7181673  25.0252753  33.4754083
  12.0811673  25.3712753  32.8724083  11.4021673  31.7192753  18.2624083
  11.7361673  30.9132753  18.2974083  10.6471673  31.6472753  18.6924083
  11.3401673  31.5892753  18.3314083  11.8841673  23.5532753  23.9214083
  11.1391673  23.2302753  24.2394083  11.8861673  24.3792753  24.2014083
  11.7741673  23.6272753  24.0094083  14.7861673  25.8372753  35.4674083
  14.7341673  25.4962753  34.6664083  15.5231673  26.3042753  35.4454083
  14.8871673  25.8562753  35.3454083  14.3241673  29.5132753  31.6734083
  14.9521673  28.9642753  31.4174083  14.2631673  30.0782753  31.0114083
  14.4081673  29.5162753  31.5374083   8.7761673  29.5942753  17.6654083
   9.4601673  29.0802753  17.4964083   8.3591673  29.6402753  16.9004083
   8.8151673  29.5252753  17.5274083   3.4581673  30.7442753  28.9694083
   3.1601673  31.3362753  29.5364083   3.5131673  31.1862753  28.2204083
   3.4221673  30.8972753  28.9424083  10.7961673  19.8832753  31.3824083
  11.5401673  20.3352753  31.3194083  10.2301673  20.3532753  30.9134083
  10.8231673  20.0202753  31.3044083   5.9741673  27.1672753  28.4604083
   6.4501673  27.5412753  29.0884083   5.1511673  27.3012753  28.7194083
   5.9231673  27.2422753  28.5914083   2.6841673  22.7702753  31.2014083
   2.8451673  22.0262753  31.6284083   2.6391673  22.5212753  30.3664083
   2.7011673  22.6232753  31.1414083   5.2381673  34.5602753  23.6884083
   5.7841673  35.2392753  23.7424083   4.8881673  34.6422753  22.8934083
   5.2671673  34.6732753  23.5784083  12.0811673  17.8632753  29.0524083
  11.8011673  18.6882753  29.0084083  12.7971673  17.9162753  29.5484083
  12.1461673  17.9932753  29.1194083   4.4361673  18.5782753  31.0814083
   5.1411673  18.8982753  30.6794083   4.6771673  17.7712753  31.3084083
   4.5751673  18.5062753  31.0554083   3.4211673  32.7882753  27.0774083
   2.7971673  33.3702753  26.8954083   3.6691673  32.5022753  26.2914083
   3.3651673  32.8322753  26.9344083   7.7301673  29.4222753  34.0664083
   8.4871673  29.7082753  33.7404083   7.1831673  29.4742753  33.3884083
   7.7611673  29.4722753  33.9174083  11.6391673  31.9722753  32.5704083
  11.9851673  32.2422753  33.3244083  11.9331673  32.5542753  31.9904083
  11.7341673  32.0982753  32.5964083  13.5021673  24.1182753  17.9094083
  13.8801673  24.7952753  17.5094083  12.6601673  24.3422753  17.9404083
  13.4331673  24.2512753  17.8544083   5.0151673  27.5642753  16.9924083
   4.2101673  27.3872753  16.7074083   4.9821673  28.4152753  17.1844083
   4.8911673  27.6632753  16.9794083   8.9611673  22.7332753  32.7344083
   8.3131673  23.2032753  33.0824083   9.5261673  22.6442753  33.3934083
   8.9491673  22.7892753  32.8834083   8.6491673  24.2702753  29.0324083
   8.9511673  24.6902753  29.7354083   8.6851673  23.4302753  29.2644083
   8.6991673  24.2082753  29.1704083   6.0741673  34.4372753  32.9574083
   6.5521673  33.8372753  32.5414083   5.7231673  33.9942753  33.6224083
   6.0931673  34.2832753  32.9944083  11.1971673  23.7172753  21.2844083
  11.4041673  23.5162753  22.1084083  11.9531673  23.9852753  20.9424083
  11.3391673  23.7272753  21.3554083   4.4921673  18.6162753  27.1894083
   3.6661673  18.4672753  27.4264083   4.4521673  18.6512753  26.3184083
   4.3641673  18.5992753  27.0954083  12.2191673  19.8002753  22.7584083
  11.5051673  19.3292753  22.9294083  12.0571673  20.1412753  21.9724083
  12.0901673  19.7812753  22.6674083  12.6621673  27.7442753  21.1384083
  13.1381673  27.0152753  21.0904083  11.8411673  27.4582753  21.0624083
  12.6111673  27.5942753  21.1194083   6.1331673  29.6562753  31.9774083
   5.3381673  29.5922753  32.3284083   6.2041673  30.5032753  31.7824083
   6.0261673  29.7712753  32.0004083   8.8781673  28.9112753  23.4934083
   8.9541673  29.2522753  24.2924083   9.0471673  28.0642753  23.6144083
   8.9141673  28.8362753  23.6294083   6.4001673  28.1852753  23.0584083
   6.1021673  27.8702753  23.8154083   7.0951673  28.6582753  23.2934083
   6.4591673  28.2082753  23.2054083   6.6221673  32.3032753  31.0854083
   7.3091673  32.1892753  31.6104083   6.7561673  33.0942753  30.7414083
   6.7431673  32.4032753  31.1124083  14.7981673  24.9122753  32.8964083
  13.9431673  24.7902753  33.0224083  14.9511673  24.5172753  32.1334083
  14.6941673  24.8352753  32.8024083   9.3111673  25.5772753  31.4724083
   9.0561673  24.8582753  31.8944083  10.1321673  25.6932753  31.7424083
   9.3951673  25.4882753  31.5744083   7.2451673  26.7672753  34.6594083
   7.5681673  27.4532753  34.2274083   6.5411673  27.0902753  35.0614083
   7.1881673  26.9162753  34.6544083  10.3291673  35.1412753  25.5884083
   9.8781673  35.7842753  25.9674083  11.0371673  35.0622753  26.0934083
  10.3671673  35.2242753  25.7194083   7.0301673  30.2312753  28.5184083
   6.3361673  30.6332753  28.8614083   7.7071673  30.6642753  28.8574083
   7.0271673  30.3542753  28.6194083  12.4071673  32.8242753  35.0984083
  13.1831673  32.4342753  35.1814083  11.9381673  32.4882753  35.7534083
  12.4521673  32.7172753  35.2074083  13.4321673  24.8572753  20.5804083
  13.5351673  24.7992753  19.7164083  14.1731673  24.5252753  20.8984083
  13.5571673  24.8002753  20.4994083   7.3521673  31.8222753  21.6874083
   7.1471673  32.6552753  21.5284083   6.5771673  31.4402753  21.8094083
   7.2071673  31.8892753  21.6824083  12.5341673  25.0032753  29.9364083
  12.5321673  24.1402753  30.0604083  12.6011673  25.3272753  30.7434083
  12.5441673  24.9232753  30.0734083   8.4131673  19.8032753  33.7184083
   8.5051673  20.5152753  34.2124083   7.7761673  19.3582753  34.1154083
   8.3321673  19.8422753  33.8504083   7.4071673  19.9932753  24.5724083
   6.7071673  20.5112753  24.5164083   7.4451673  19.6132753  23.7884083
   7.3091673  20.0142753  24.4484083   2.7141673  32.0842753  18.0964083
   3.1551673  32.1642753  18.8444083   1.9091673  31.8682753  18.3544083
   2.6601673  32.0642753  18.2454083  11.0051673  20.5092753  27.3724083
  11.8601673  20.6082753  27.5174083  10.6361673  21.0622753  27.9374083
  11.0771673  20.6062753  27.4774083  11.3091673  25.7892753  25.8634083
  11.9751673  26.3302753  26.0234083  10.9641673  26.1002753  25.1244083
  11.3561673  25.9152753  25.7784083  11.6221673  33.8552753  21.6704083
  11.4481673  33.2012753  22.2204083  12.3351673  33.5842753  21.2474083
  11.7021673  33.7182753  21.6894083   2.8621673  29.3992753  17.4404083
   2.0441673  29.1312753  17.5804083   2.8341673  30.2512753  17.6254083
   2.7371673  29.4862753  17.4884083  14.4801673  18.3472753  30.5284083
  14.4281673  18.3032753  31.3984083  15.1671673  17.8442753  30.3384083
  14.5741673  18.2672753  30.6284083   6.5651673  20.4602753  27.5734083
   5.8281673  20.0062753  27.6864083   7.1361673  20.0582753  28.0964083
   6.5401673  20.3332753  27.6674083   9.2971673  31.3082753  29.3614083
   9.5031673  31.6092753  30.1534083   9.2361673  32.0302753  28.8764083
   9.3181673  31.4592753  29.4064083   8.8311673  35.5222753  33.6074083
   8.0781673  35.5042753  33.1664083   8.9991673  36.3742753  33.6914083
   8.7451673  35.6452753  33.5544083   4.0681673  24.7892753  32.7774083
   3.7461673  24.2132753  32.2074083   3.7091673  25.5442753  32.5314083
   3.9681673  24.8152753  32.6574083   4.8641673  18.0412753  17.4044083
   4.9421673  18.2882753  16.5714083   4.1211673  18.4182753  17.6624083
   4.7661673  18.1332753  17.3194083  14.1091673  29.9472753  28.8194083
  14.0771673  29.0852753  28.6844083  13.4161673  30.2492753  28.3854083
  14.0021673  29.8642753  28.7354083   2.5031673  35.1452753  33.0254083
   2.5441673  35.2712753  33.8884083   3.1541673  34.5852753  32.8694083
   2.6051673  35.0812753  33.1304083  12.2141673  33.2072753  27.6164083
  12.7411673  33.1242753  26.9254083  11.8231673  32.4292753  27.6704083
  12.2341673  33.0802753  27.5224083   8.7281673  18.6512753  26.8244083
   9.3981673  19.1952753  26.9514083   8.2251673  19.0752753  26.2514083
   8.7531673  18.7942753  26.7584083   8.0871673  24.4592753  24.3174083
   8.6381673  23.8522753  24.6174083   7.6621673  24.7222753  25.0324083
   8.1061673  24.4082753  24.4664083  10.0571673  26.2902753  20.8794083
  10.1251673  25.4402753  21.0604083   9.2341673  26.3762753  20.6014083
   9.9451673  26.1772753  20.8654083   3.9761673  27.1812753  19.8174083
   4.0761673  27.3202753  18.9624083   4.7941673  27.1212753  20.1134083
   4.1111673  27.1922753  19.7344083  13.1361673  35.2452753  17.2974083
  13.7731673  35.1112753  17.8784083  12.7951673  34.4512753  17.1804083
  13.1801673  35.1082753  17.3654083  13.3311673  27.6632753  34.0304083
  13.9651673  27.4932753  34.6044083  13.7481673  28.0662753  33.3784083
  13.4861673  27.6982753  34.0194083   9.2111673  31.5102753  19.6194083
   8.9601673  31.3822753  20.4454083   8.8941673  30.8152753  19.1984083
   9.1271673  31.3892753  19.6794083  13.9561673  22.2272753  34.7684083
  13.7601673  22.8712753  35.3234083  13.2341673  21.7372753  34.7604083
  13.8211673  22.2502753  34.8494083  13.8551673  23.1682753  27.7394083
  13.0221673  23.4182753  27.6674083  13.7991673  22.3282753  27.9684083
  13.7241673  23.0812753  27.7624083   3.1151673  20.1562753  32.9334083
   3.3491673  19.5802753  32.3204083   2.2731673  19.9752753  33.0744083
   3.0251673  20.0442753  32.8634083  10.7421673  27.7742753  35.3854083
  11.6131673  27.7382753  35.3494083  10.5231673  28.1942753  34.6534083
  10.8391673  27.8302753  35.2724083   6.0971673  29.7182753  19.0494083
   6.8141673  29.3712753  18.6934083   6.0631673  30.5182753  18.7014083
   6.1981673  29.7852753  18.9454083   7.5061673  18.3592753   3.2881673
   7.2611673  18.8472753   2.6081673   8.3691673  18.2862753   3.1881673
   7.5971673  18.4202753   3.1731673   7.3151673  25.2752753   7.9591673
   6.7911673  25.8712753   8.3221673   7.7121673  24.9072753   8.6431673
   7.2961673  25.3092753   8.1141673   9.9861673  26.3422753   4.6351673
  10.0661673  26.3462753   3.7661673   9.4021673  25.7102753   4.7841673
   9.9111673  26.2492753   4.5291673   3.9751673  19.4462753   2.4431673
   3.9051673  20.1232753   1.8971673   4.7161673  19.0582753   2.1941673
   4.0741673  19.4892753   2.3251673   3.6981673  29.6752753  14.7371673
   3.4621673  29.6722753  15.5771673   2.9501673  29.5272753  14.3131673
   3.5521673  29.6522753  14.7981673   3.0781673  22.2812753   9.2191673
   3.7561673  22.2992753   8.6701673   3.0331673  21.4452753   9.4641673
   3.1711673  22.1602753   9.1741673   3.6801673  32.8672753  12.0001673
   3.8181673  33.6272753  11.5931673   4.4711673  32.5022753  12.0271673
   3.8171673  32.9262753  11.9441673   4.7751673  30.7522753   6.5051673
   5.1231673  29.9532753   6.5351673   5.4401673  31.2562753   6.2501673
   4.9251673  30.7082753   6.4721673   4.8321673  30.2012753   2.7161673
   5.1631673  29.5572753   3.2021673   5.0721673  29.9902753   1.9051673
   4.9161673  30.0752753   2.6681673   6.8001673  24.3322753  14.0551673
   5.9521673  24.2332753  13.8771673   6.8291673  25.0772753  14.5091673
   6.6791673  24.4282753  14.0961673  11.3581673  17.2922753  13.1691673
  11.2001673  18.0612753  12.7871673  10.5861673  17.0722753  13.5131673
  11.2201673  17.3732753  13.1641673   4.1471673  19.0072753   5.3841673
   4.2201673  19.8672753   5.5131673   4.1091673  18.9322753   4.5161673
   4.1521673  19.1232753   5.2751673   2.7761673  31.9862753   2.2651673
   2.1971673  31.7112753   2.8571673   3.4001673  31.3772753   2.2901673
   2.7831673  31.8562753   2.3561673   7.0871673  34.6662753   1.7771673
   7.3011673  35.1932753   2.4391673   7.8541673  34.4922753   1.3981673
   7.2321673  34.7182753   1.8191673   3.3611673  21.3822753  16.6741673
   3.4781673  20.9282753  15.9381673   3.6491673  22.1802753  16.4711673
   3.4211673  21.4332753  16.5351673  14.2141673  21.9062753   3.9781673
  13.8681673  22.5842753   4.4041673  13.5781673  21.3082753   3.9941673
  14.0691673  21.9182753   4.0431673   9.5261673  34.6762753  10.0821673
  10.2701673  35.1322753  10.0721673   9.4051673  34.4622753   9.2451673
   9.6181673  34.7122753   9.9571673   2.5301673  34.1512753   5.5121673
   3.3741673  34.2552753   5.3171673   2.2331673  34.9692753   5.5801673
   2.6111673  34.2872753   5.4931673   5.7431673  18.6222753  14.8261673
   5.9211673  17.8132753  14.5511673   5.6001673  19.0632753  14.0871673
   5.7481673  18.5682753  14.6761673   6.3371673  23.5482753   3.5991673
   6.6241673  23.3162753   2.8091673   7.0691673  23.6272753   4.0681673
   6.4871673  23.5252753   3.5521673  13.8891673  20.2292753   9.3471673
  14.6461673  20.3012753   8.9191673  13.9521673  19.4562753   9.7461673
  14.0101673  20.1262753   9.3421673   8.7801673  31.8612753  13.7861673
   8.7461673  32.2432753  14.5701673   9.6341673  31.8192753  13.6151673
   8.9011673  31.9112753  13.8771673   7.2321673  35.0252753  11.2841673
   8.0001673  34.9452753  10.8781673   6.6491673  34.9042753  10.6461673
   7.2591673  34.9952753  11.1301673  13.5091673  35.6282753   4.1851673
  13.0541673  36.3452753   4.3861673  12.8951673  35.0572753   3.9431673
  13.3511673  35.6502753   4.1791673   5.2811673  21.6382753   5.3171673
   5.3551673  22.2062753   4.6591673   5.4021673  22.1302753   6.0271673
   5.3091673  21.7952753   5.3251673  10.5061673  31.4732753   3.7291673
  11.2071673  30.9912753   3.9181673   9.8461673  30.9042753   3.7741673
  10.5121673  31.3182753   3.7631673   2.8451673  27.8942753   7.6901673
   3.0171673  27.6842753   8.5191673   2.1901673  27.3602753   7.4741673
   2.7741673  27.7842753   7.7811673   9.0731673  21.8082753  11.2051673
   8.9781673  22.1272753  12.0111673   8.4801673  21.1692753  11.1671673
   8.9711673  21.7602753  11.3191673   3.5951673  27.8322753  10.2801673
   3.6481673  28.6792753  10.4821673   3.3101673  27.4622753  11.0171673
   3.5611673  27.9022753  10.4181673   9.7721673  28.5272753   9.4101673
   9.2581673  28.1152753   9.9811673   9.6461673  29.3712753   9.5911673
   9.6781673  28.5912753   9.5211673  10.3291673  17.7522753   4.0411673
  10.3781673  17.4342753   4.8521673  10.6521673  17.1082753   3.5481673
  10.3841673  17.6102753   4.0881673  12.7931673  21.9882753  12.3491673
  13.5651673  21.7632753  12.6861673  12.3181673  22.2052753  13.0491673
  12.8371673  21.9872753  12.5021673  15.2591673  33.4752753  13.7911673
  14.5771673  33.7852753  13.3441673  14.8901673  33.0172753  14.4361673
  15.1031673  33.4532753  13.8201673   2.5291673  28.7052753   3.1031673
   3.2421673  29.2002753   3.1931673   2.7511673  28.1382753   2.4771673
   2.6671673  28.6942753   3.0241673   4.3321673  24.0582753  16.5191673
   3.8481673  24.6352753  16.9611673   4.3041673  24.3532753  15.6981673
   4.2561673  24.1872753  16.4631673  15.4301673  24.7422753  11.1311673
  15.6451673  23.9422753  10.8551673  14.5801673  24.8022753  10.9421673
  15.3361673  24.6332753  11.0621673   7.0521673  32.4082753   5.4301673
   6.5291673  33.0422753   5.1371673   7.3621673  32.0442753   4.7011673
   7.0201673  32.4482753   5.2791673   9.5631673  22.2102753   5.9271673
   9.9071673  22.3622753   6.7141673   9.1101673  21.4722753   6.0401673
   9.5471673  22.1232753   6.0601673  13.0931673  33.8572753  11.8811673
  12.4221673  34.3712753  12.0991673  13.1561673  33.9572753  11.0171673
  13.0031673  33.9482753  11.7861673   1.7771673  31.3822753   5.0161673
   1.9031673  32.2252753   5.2031673   2.4451673  30.9832753   5.4121673
   1.8951673  31.4482753   5.1021673  10.8841673  23.5422753   8.4811673
  10.2221673  23.8702753   8.9441673  11.0711673  24.1762753   7.9121673
  10.8141673  23.6842753   8.4651673   5.0891673  34.6062753   9.4771673
   4.8121673  33.9652753   8.9541673   4.8811673  35.3322753   9.0391673
   5.0181673  34.6192753   9.3351673   7.5291673  19.4482753  11.9101673
   7.6781673  18.6232753  11.6671673   7.9081673  19.5032753  12.6941673
   7.6071673  19.3342753  11.9901673   9.0771673  21.5112753   1.9921673
   9.5671673  22.2282753   1.9151673   8.2871673  21.7722753   1.7291673
   9.0331673  21.6552753   1.9421673  10.3911673  29.3892753  13.9021673
  10.8751673  30.1072753  14.0001673  10.7851673  28.9622753  13.2511673
  10.5211673  29.4322753  13.8201673   4.6871673  32.2342753  15.0791673
   5.0411673  32.0562753  15.8561673   4.2511673  31.5052753  14.8801673
   4.6751673  32.1002753  15.1651673   5.6591673  22.9812753   7.7171673
   6.1391673  23.6802753   7.9251673   6.0321673  22.3342753   8.1681673
   5.7851673  22.9892753   7.8141673  12.8201673  30.0202753   3.9721673
  13.1761673  29.6702753   4.6871673  12.8121673  29.3592753   3.4021673
  12.8721673  29.8702753   3.9931673   8.8651673  33.0862753   7.8161673
   8.2621673  32.7902753   7.2591673   9.4101673  33.5382753   7.3071673
   8.8561673  33.1092753   7.6581673   8.8781673  29.9372753   7.2161673
   8.0811673  30.1612753   7.4901673   9.1361673  29.3432753   7.8011673
   8.7981673  29.8822753   7.3431673  12.1381673  27.9352753  12.0621673
  12.1931673  28.0602753  11.2001673  12.8911673  28.2552753  12.3641673
  12.2571673  28.0002753  11.9791673   8.3291673  33.2842753  16.3391673
   8.4931673  33.5672753  17.1481673   8.5921673  33.9452753  15.8341673
   8.3921673  33.4242753  16.3841673  13.1701673  18.2332753  15.0491673
  12.5331673  17.8332753  14.6071673  13.1961673  17.8022753  15.8071673
  13.0801673  18.1112753  15.0951673   7.8691673  27.7412753  11.6621673
   7.7141673  28.3512753  12.2661673   8.4031673  27.1832753  12.0681673
   7.9251673  27.7492753  11.8111673   6.2531673  26.1412753   2.3201673
   6.3121673  26.7912753   2.8991673   6.0641673  25.4452753   2.8111673
   6.2341673  26.1342753   2.4781673  11.4791673  30.4702753   8.1891673
  11.0001673  30.7682753   7.5231673  11.1231673  29.6942753   8.3671673
  11.3561673  30.3992753   8.1171673   5.4761673  28.1882753   6.7511673
   4.6291673  27.9942753   6.8321673   5.8001673  28.0232753   7.5441673
   5.3981673  28.1352753   6.8801673   2.5541673  23.0522753   5.8021673
   3.4001673  22.8622753   5.9001673   2.1841673  22.2752753   5.6641673
   2.6241673  22.9092753   5.7961673  12.4101673  27.4122753   9.3081673
  12.4031673  26.6362753   9.7061673  11.5691673  27.6462753   9.3011673
  12.2851673  27.3322753   9.3661673  13.6661673  27.4832753   6.7451673
  13.3801673  27.8842753   7.4651673  14.5261673  27.4212753   6.8721673
  13.7511673  27.5332753   6.8701673  11.3281673  21.4072753  15.2851673
  10.8031673  21.8662753  15.8091673  10.9671673  20.6122753  15.2791673
  11.1971673  21.3572753  15.3611673  14.7971673  33.1162753   7.2741673
  15.0871673  33.3732753   6.4931673  15.4921673  33.2122753   7.7931673
  14.9431673  33.1682753   7.2351673   9.8201673  24.9762753  15.3611673
   9.8931673  25.0802753  16.2241673   9.1861673  25.5342753  15.1401673
   9.7371673  25.0742753  15.4561673  12.0881673  25.2952753  13.7261673
  12.4071673  26.0812753  13.9291673  11.7181673  25.0252753  14.4691673
  12.0811673  25.3712753  13.8661673  11.8841673  23.5532753   4.9151673
  11.1391673  23.2302753   5.2331673  11.8861673  24.3792753   5.1951673
  11.7741673  23.6272753   5.0031673  14.7861673  25.8372753  16.4611673
  14.7341673  25.4962753  15.6601673  15.5231673  26.3042753  16.4391673
  14.8871673  25.8562753  16.3391673  14.3241673  29.5132753  12.6671673
  14.9521673  28.9642753  12.4111673  14.2631673  30.0782753  12.0051673
  14.4081673  29.5162753  12.5311673   3.4581673  30.7442753   9.9631673
   3.1601673  31.3362753  10.5301673   3.5131673  31.1862753   9.2141673
   3.4221673  30.8972753   9.9361673  10.7961673  19.8832753  12.3761673
  11.5401673  20.3352753  12.3131673  10.2301673  20.3532753  11.9071673
  10.8231673  20.0202753  12.2981673   5.9741673  27.1672753   9.4541673
   6.4501673  27.5412753  10.0821673   5.1511673  27.3012753   9.7131673
   5.9231673  27.2422753   9.5851673   2.6841673  22.7702753  12.1951673
   2.8451673  22.0262753  12.6221673   2.6391673  22.5212753  11.3601673
   2.7011673  22.6232753  12.1351673   5.2381673  34.5602753   4.6821673
   5.7841673  35.2392753   4.7361673   4.8881673  34.6422753   3.8871673
   5.2671673  34.6732753   4.5721673  12.0811673  17.8632753  10.0461673
  11.8011673  18.6882753  10.0021673  12.7971673  17.9162753  10.5421673
  12.1461673  17.9932753  10.1131673   4.4361673  18.5782753  12.0751673
   5.1411673  18.8982753  11.6731673   4.6771673  17.7712753  12.3021673
   4.5751673  18.5062753  12.0491673   3.4211673  32.7882753   8.0711673
   2.7971673  33.3702753   7.8891673   3.6691673  32.5022753   7.2851673
   3.3651673  32.8322753   7.9281673   7.7301673  29.4222753  15.0601673
   8.4871673  29.7082753  14.7341673   7.1831673  29.4742753  14.3821673
   7.7611673  29.4722753  14.9111673  11.6391673  31.9722753  13.5641673
  11.9851673  32.2422753  14.3181673  11.9331673  32.5542753  12.9841673
  11.7341673  32.0982753  13.5901673   8.9611673  22.7332753  13.7281673
   8.3131673  23.2032753  14.0761673   9.5261673  22.6442753  14.3871673
   8.9491673  22.7892753  13.8771673   8.6491673  24.2702753  10.0261673
   8.9511673  24.6902753  10.7291673   8.6851673  23.4302753  10.2581673
   8.6991673  24.2082753  10.1641673   6.0741673  34.4372753  13.9511673
   6.5521673  33.8372753  13.5351673   5.7231673  33.9942753  14.6161673
   6.0931673  34.2832753  13.9881673  11.1971673  23.7172753   2.2781673
  11.4041673  23.5162753   3.1021673  11.9531673  23.9852753   1.9361673
  11.3391673  23.7272753   2.3491673   4.4921673  18.6162753   8.1831673
   3.6661673  18.4672753   8.4201673   4.4521673  18.6512753   7.3121673
   4.3641673  18.5992753   8.0891673  12.2191673  19.8002753   3.7521673
  11.5051673  19.3292753   3.9231673  12.0571673  20.1412753   2.9661673
  12.0901673  19.7812753   3.6611673  12.6621673  27.7442753   2.1321673
  13.1381673  27.0152753   2.0841673  11.8411673  27.4582753   2.0561673
  12.6111673  27.5942753   2.1131673   6.1331673  29.6562753  12.9711673
   5.3381673  29.5922753  13.3221673   6.2041673  30.5032753  12.7761673
   6.0261673  29.7712753  12.9941673   8.8781673  28.9112753   4.4871673
   8.9541673  29.2522753   5.2861673   9.0471673  28.0642753   4.6081673
   8.9141673  28.8362753   4.6231673   6.4001673  28.1852753   4.0521673
   6.1021673  27.8702753   4.8091673   7.0951673  28.6582753   4.2871673
   6.4591673  28.2082753   4.1991673   6.6221673  32.3032753  12.0791673
   7.3091673  32.1892753  12.6041673   6.7561673  33.0942753  11.7351673
   6.7431673  32.4032753  12.1061673  14.7981673  24.9122753  13.8901673
  13.9431673  24.7902753  14.0161673  14.9511673  24.5172753  13.1271673
  14.6941673  24.8352753  13.7961673   9.3111673  25.5772753  12.4661673
   9.0561673  24.8582753  12.8881673  10.1321673  25.6932753  12.7361673
   9.3951673  25.4882753  12.5681673   7.2451673  26.7672753  15.6531673
   7.5681673  27.4532753  15.2211673   6.5411673  27.0902753  16.0551673
   7.1881673  26.9162753  15.6481673  10.3291673  35.1412753   6.5821673
   9.8781673  35.7842753   6.9611673  11.0371673  35.0622753   7.0871673
  10.3671673  35.2242753   6.7131673   7.0301673  30.2312753   9.5121673
   6.3361673  30.6332753   9.8551673   7.7071673  30.6642753   9.8511673
   7.0271673  30.3542753   9.6131673  12.4071673  32.8242753  16.0921673
  13.1831673  32.4342753  16.1751673  11.9381673  32.4882753  16.7471673
  12.4521673  32.7172753  16.2011673   7.3521673  31.8222753   2.6811673
   7.1471673  32.6552753   2.5221673   6.5771673  31.4402753   2.8031673
   7.2071673  31.8892753   2.6761673  12.5341673  25.0032753  10.9301673
  12.5321673  24.1402753  11.0541673  12.6011673  25.3272753  11.7371673
  12.5441673  24.9232753  11.0671673   8.4131673  19.8032753  14.7121673
   8.5051673  20.5152753  15.2061673   7.7761673  19.3582753  15.1091673
   8.3321673  19.8422753  14.8441673   7.4071673  19.9932753   5.5661673
   6.7071673  20.5112753   5.5101673   7.4451673  19.6132753   4.7821673
   7.3091673  20.0142753   5.4421673  11.0051673  20.5092753   8.3661673
  11.8601673  20.6082753   8.5111673  10.6361673  21.0622753   8.9311673
  11.0771673  20.6062753   8.4711673  11.3091673  25.7892753   6.8571673
  11.9751673  26.3302753   7.0171673  10.9641673  26.1002753   6.1181673
  11.3561673  25.9152753   6.7721673  11.6221673  33.8552753   2.6641673
  11.4481673  33.2012753   3.2141673  12.3351673  33.5842753   2.2411673
  11.7021673  33.7182753   2.6831673  14.4801673  18.3472753  11.5221673
  14.4281673  18.3032753  12.3921673  15.1671673  17.8442753  11.3321673
  14.5741673  18.2672753  11.6221673   6.5651673  20.4602753   8.5671673
   5.8281673  20.0062753   8.6801673   7.1361673  20.0582753   9.0901673
   6.5401673  20.3332753   8.6611673   9.2971673  31.3082753  10.3551673
   9.5031673  31.6092753  11.1471673   9.2361673  32.0302753   9.8701673
   9.3181673  31.4592753  10.4001673   8.8311673  35.5222753  14.6011673
   8.0781673  35.5042753  14.1601673   8.9991673  36.3742753  14.6851673
   8.7451673  35.6452753  14.5481673   4.0681673  24.7892753  13.7711673
   3.7461673  24.2132753  13.2011673   3.7091673  25.5442753  13.5251673
   3.9681673  24.8152753  13.6511673  14.1091673  29.9472753   9.8131673
  14.0771673  29.0852753   9.6781673  13.4161673  30.2492753   9.3791673
  14.0021673  29.8642753   9.7291673   2.5031673  35.1452753  14.0191673
   2.5441673  35.2712753  14.8821673   3.1541673  34.5852753  13.8631673
   2.6051673  35.0812753  14.1241673  12.2141673  33.2072753   8.6101673
  12.7411673  33.1242753   7.9191673  11.8231673  32.4292753   8.6641673
  12.2341673  33.0802753   8.5161673   8.7281673  18.6512753   7.8181673
   9.3981673  19.1952753   7.9451673   8.2251673  19.0752753   7.2451673
   8.7531673  18.7942753   7.7521673   8.0871673  24.4592753   5.3111673
   8.6381673  23.8522753   5.6111673   7.6621673  24.7222753   6.0261673
   8.1061673  24.4082753   5.4601673  10.0571673  26.2902753   1.8731673
  10.1251673  25.4402753   2.0541673   9.2341673  26.3762753   1.5951673
   9.9451673  26.1772753   1.8591673  13.3311673  27.6632753  15.0241673
  13.9651673  27.4932753  15.5981673  13.7481673  28.0662753  14.3721673
  13.4861673  27.6982753  15.0131673  13.9561673  22.2272753  15.7621673
  13.7601673  22.8712753  16.3171673  13.2341673  21.7372753  15.7541673
  13.8211673  22.2502753  15.8431673  13.8551673  23.1682753   8.7331673
  13.0221673  23.4182753   8.6611673  13.7991673  22.3282753   8.9621673
  13.7241673  23.0812753   8.7561673   3.1151673  20.1562753  13.9271673
   3.3491673  19.5802753  13.3141673   2.2731673  19.9752753  14.0681673
   3.0251673  20.0442753  13.8571673  10.7421673  27.7742753  16.3791673
  11.6131673  27.7382753  16.3431673  10.5231673  28.1942753  15.6471673
  10.8391673  27.8302753  16.2661673   7.3151673   6.7971673  83.9841313
   6.7911673   7.3931673  84.3471313   7.7121673   6.4291673  84.6681313
   7.2961673   6.8311673  84.1391313  13.4591673  14.2381673  76.9551313
  14.1601673  13.7191673  76.9511313  12.8721673  13.7931673  76.4861313
  13.4761673  14.0951673  76.8851313   9.9861673   7.8641673  80.6601313
  10.0661673   7.8681673  79.7911313   9.4021673   7.2321673  80.8091313
   9.9111673   7.7711673  80.5541313   3.0781673   3.8031673  85.2441313
   3.7561673   3.8211673  84.6951313   3.0331673   2.9671673  85.4891313
   3.1711673   3.6821673  85.1991313   3.6801673  14.3891673  88.0251313
   3.8181673  15.1491673  87.6181313   4.4711673  14.0241673  88.0521313
   3.8171673  14.4481673  87.9691313   4.7751673  12.2741673  82.5301313
   5.1231673  11.4751673  82.5601313   5.4401673  12.7781673  82.2751313
   4.9251673  12.2301673  82.4971313   4.8321673  11.7231673  78.7411313
   5.1631673  11.0791673  79.2271313   5.0721673  11.5121673  77.9301313
   4.9161673  11.5971673  78.6931313   8.8201673   3.4551673  73.7081313
   8.3701673   4.1361673  74.0151313   8.9341673   2.9511673  74.4111313
   8.7711673   3.4811673  73.8571313   2.7761673  13.5081673  78.2901313
   2.1971673  13.2331673  78.8821313   3.4001673  12.8991673  78.3151313
   2.7831673  13.3781673  78.3811313   8.9191673  15.7961673  75.8121313
   9.6461673  16.2681673  75.9141313   9.1481673  15.0021673  76.0921313
   9.0611673  15.7491673  75.8691313   7.0871673  16.1881673  77.8021313
   7.3011673  16.7151673  78.4641313   7.8541673  16.0141673  77.4231313
   7.2321673  16.2401673  77.8441313  14.2141673   3.4281673  80.0031313
  13.8681673   4.1061673  80.4291313  13.5781673   2.8301673  80.0191313
  14.0691673   3.4401673  80.0681313   9.5261673  16.1981673  86.1071313
  10.2701673  16.6541673  86.0971313   9.4051673  15.9841673  85.2701313
   9.6181673  16.2341673  85.9821313   2.5301673  15.6731673  81.5371313
   3.3741673  15.7771673  81.3421313   2.2331673  16.4911673  81.6051313
   2.6111673  15.8091673  81.5181313   6.3371673   5.0701673  79.6241313
   6.6241673   4.8381673  78.8341313   7.0691673   5.1491673  80.0931313
   6.4871673   5.0471673  79.5771313   7.0591673   5.4091673  74.7451313
   7.3401673   6.1971673  74.9941313   6.2831673   5.5741673  74.3821313
   6.9861673   5.5501673  74.7281313  11.1001673  17.3831673  76.2121313
  11.7651673  17.2351673  75.6671313  11.4601673  17.3001673  77.0021313
  11.2521673  17.3491673  76.2481313   5.9181673  13.5801673  74.5611313
   5.7371673  14.1251673  75.2181313   6.6841673  13.8701673  74.2601313
   6.0041673  13.7041673  74.6141313   6.6831673   3.8521673  76.9291313
   6.1751673   3.1901673  76.6751313   6.7351673   4.3561673  76.2191313
   6.6161673   3.8291673  76.7871313   7.2321673  16.5471673  87.3091313
   8.0001673  16.4671673  86.9031313   6.6491673  16.4261673  86.6711313
   7.2591673  16.5171673  87.1551313  13.5091673  17.1501673  80.2101313
  13.0541673  17.8671673  80.4111313  12.8951673  16.5791673  79.9681313
  13.3511673  17.1721673  80.2041313   5.2811673   3.1601673  81.3421313
   5.3551673   3.7281673  80.6841313   5.4021673   3.6521673  82.0521313
   5.3091673   3.3171673  81.3501313  10.5061673  12.9951673  79.7541313
  11.2071673  12.5131673  79.9431313   9.8461673  12.4261673  79.7991313
  10.5121673  12.8401673  79.7881313   2.8451673   9.4161673  83.7151313
   3.0171673   9.2061673  84.5441313   2.1901673   8.8821673  83.4991313
   2.7741673   9.3061673  83.8061313   9.0731673   3.3301673  87.2301313
   8.9781673   3.6491673  88.0361313   8.4801673   2.6911673  87.1921313
   8.9711673   3.2821673  87.3441313   3.5951673   9.3541673  86.3051313
   3.6481673  10.2011673  86.5071313   3.3101673   8.9841673  87.0421313
   3.5611673   9.4241673  86.4431313   9.7721673  10.0491673  85.4351313
   9.2581673   9.6371673  86.0061313   9.6461673  10.8931673  85.6161313
   9.6781673  10.1131673  85.5461313  13.0251673  10.4881673  75.5621313
  13.1441673  10.2011673  76.3771313  13.8321673  10.5091673  75.2321313
  13.1611673  10.4491673  75.6341313  10.9201673   7.0251673  75.1471313
  10.7001673   7.7561673  74.7251313  10.4721673   7.0761673  75.8941313
  10.8211673   7.1401673  75.1951313   2.5291673  10.2271673  79.1281313
   3.2421673  10.7221673  79.2181313   2.7511673   9.6601673  78.5021313
   2.6671673  10.2161673  79.0491313  15.4301673   6.2641673  87.1561313
  15.6451673   5.4641673  86.8801313  14.5801673   6.3241673  86.9671313
  15.3361673   6.1551673  87.0871313   7.0521673  13.9301673  81.4551313
   6.5291673  14.5641673  81.1621313   7.3621673  13.5661673  80.7261313
   7.0201673  13.9701673  81.3041313   9.5631673   3.7321673  81.9521313
   9.9071673   3.8841673  82.7391313   9.1101673   2.9941673  82.0651313
   9.5471673   3.6451673  82.0851313   4.0391673   2.9521673  76.4091313
   4.0371673   2.8351673  75.5441313   3.8581673   3.8001673  76.5011313
   4.0121673   3.0601673  76.2951313  13.0931673  15.3791673  87.9061313
  12.4221673  15.8931673  88.1241313  13.1561673  15.4791673  87.0421313
  13.0031673  15.4701673  87.8111313   1.7771673  12.9041673  81.0411313
   1.9031673  13.7471673  81.2281313   2.4451673  12.5051673  81.4371313
   1.8951673  12.9701673  81.1271313  10.8841673   5.0641673  84.5061313
  10.2221673   5.3921673  84.9691313  11.0711673   5.6981673  83.9371313
  10.8141673   5.2061673  84.4901313   5.0891673  16.1281673  85.5021313
   4.8121673  15.4871673  84.9791313   4.8811673  16.8541673  85.0641313
   5.0181673  16.1411673  85.3601313   9.0771673   3.0331673  78.0171313
   9.5671673   3.7501673  77.9401313   8.2871673   3.2941673  77.7541313
   9.0331673   3.1771673  77.9671313   5.6591673   4.5031673  83.7421313
   6.1391673   5.2021673  83.9501313   6.0321673   3.8561673  84.1931313
   5.7851673   4.5111673  83.8391313   7.8481673   7.6721673  76.0161313
   7.8401673   8.3941673  75.5261313   7.2091673   7.8071673  76.5931313
   7.7531673   7.7991673  76.0291313  12.8201673  11.5421673  79.9971313
  13.1761673  11.1921673  80.7121313  12.8121673  10.8811673  79.4271313
  12.8721673  11.3921673  80.0181313   8.8651673  14.6081673  83.8411313
   8.2621673  14.3121673  83.2841313   9.4101673  15.0601673  83.3321313
   8.8561673  14.6311673  83.6831313   8.8781673  11.4591673  83.2411313
   8.0811673  11.6831673  83.5151313   9.1361673  10.8651673  83.8261313
   8.7981673  11.4041673  83.3681313   2.7701673  16.2711673  77.6891313
   2.6231673  15.4951673  78.0601313   3.4591673  16.1241673  77.1741313
   2.8501673  16.1341673  77.6681313   5.0621673  15.7871673  76.0911313
   5.6841673  15.9501673  76.6811313   5.0981673  16.4781673  75.5591313
   5.1591673  15.9131673  76.1001313  12.1381673   9.4571673  88.0871313
  12.1931673   9.5821673  87.2251313  12.8911673   9.7771673  88.3891313
  12.2571673   9.5221673  88.0041313   7.8691673   9.2631673  87.6871313
   7.7141673   9.8731673  88.2911313   8.4031673   8.7051673  88.0931313
   7.9251673   9.2711673  87.8361313   6.2531673   7.6631673  78.3451313
   6.3121673   8.3131673  78.9241313   6.0641673   6.9671673  78.8361313
   6.2341673   7.6561673  78.5031313  11.4791673  11.9921673  84.2141313
  11.0001673  12.2901673  83.5481313  11.1231673  11.2161673  84.3921313
  11.3561673  11.9211673  84.1421313   5.4761673   9.7101673  82.7761313
   4.6291673   9.5161673  82.8571313   5.8001673   9.5451673  83.5691313
   5.3981673   9.6571673  82.9051313   2.2281673  16.4401673  73.6621313
   2.6671673  15.7431673  73.9501313   2.4351673  17.0641673  74.2351313
   2.3241673  16.4291673  73.7891313   2.5541673   4.5741673  81.8271313
   3.4001673   4.3841673  81.9251313   2.1841673   3.7971673  81.6891313
   2.6241673   4.4311673  81.8211313  15.1711673  16.1581673  76.1541313
  15.8651673  15.6911673  75.9061313  14.6321673  15.5601673  76.4911313
  15.1941673  16.0001673  76.1671313  12.4101673   8.9341673  85.3331313
  12.4031673   8.1581673  85.7311313  11.5691673   9.1681673  85.3261313
  12.2851673   8.8541673  85.3911313  13.6661673   9.0051673  82.7701313
  13.3801673   9.4061673  83.4901313  14.5261673   8.9431673  82.8971313
  13.7511673   9.0551673  82.8951313   3.3551673   5.8071673  76.6781313
   3.6271673   6.6331673  76.7451313   2.4921673   5.8821673  76.5821313
   3.2681673   5.9401673  76.6731313  14.7971673  14.6381673  83.2991313
  15.0871673  14.8951673  82.5181313  15.4921673  14.7341673  83.8181313
  14.9431673  14.6901673  83.2601313  11.4021673  13.2411673  75.2811313
  11.7361673  12.4351673  75.3161313  10.6471673  13.1691673  75.7111313
  11.3401673  13.1111673  75.3501313  11.8841673   5.0751673  80.9401313
  11.1391673   4.7521673  81.2581313  11.8861673   5.9011673  81.2201313
  11.7741673   5.1491673  81.0281313  14.3241673  11.0351673  88.6921313
  14.9521673  10.4861673  88.4361313  14.2631673  11.6001673  88.0301313
  14.4081673  11.0381673  88.5561313   8.7761673  11.1161673  74.6841313
   9.4601673  10.6021673  74.5151313   8.3591673  11.1621673  73.9191313
   8.8151673  11.0471673  74.5461313   3.4581673  12.2661673  85.9881313
   3.1601673  12.8581673  86.5551313   3.5131673  12.7081673  85.2391313
   3.4221673  12.4191673  85.9611313   5.9741673   8.6891673  85.4791313
   6.4501673   9.0631673  86.1071313   5.1511673   8.8231673  85.7381313
   5.9231673   8.7641673  85.6101313   2.6841673   4.2921673  88.2201313
   2.8451673   3.5481673  88.6471313   2.6391673   4.0431673  87.3851313
   2.7011673   4.1451673  88.1601313   5.2381673  16.0821673  80.7071313
   5.7841673  16.7611673  80.7611313   4.8881673  16.1641673  79.9121313
   5.2671673  16.1951673  80.5971313   3.4211673  14.3101673  84.0961313
   2.7971673  14.8921673  83.9141313   3.6691673  14.0241673  83.3101313
   3.3651673  14.3541673  83.9531313  13.5021673   5.6401673  74.9281313
  13.8801673   6.3171673  74.5281313  12.6601673   5.8641673  74.9591313
  13.4331673   5.7731673  74.8731313   5.0151673   9.0861673  74.0111313
   4.2101673   8.9091673  73.7261313   4.9821673   9.9371673  74.2031313
   4.8911673   9.1851673  73.9981313   8.6491673   5.7921673  86.0511313
   8.9511673   6.2121673  86.7541313   8.6851673   4.9521673  86.2831313
   8.6991673   5.7301673  86.1891313  11.1971673   5.2391673  78.3031313
  11.4041673   5.0381673  79.1271313  11.9531673   5.5071673  77.9611313
  11.3391673   5.2491673  78.3741313  12.6621673   9.2661673  78.1571313
  13.1381673   8.5371673  78.1091313  11.8411673   8.9801673  78.0811313
  12.6111673   9.1161673  78.1381313   8.8781673  10.4331673  80.5121313
   8.9541673  10.7741673  81.3111313   9.0471673   9.5861673  80.6331313
   8.9141673  10.3581673  80.6481313   6.4001673   9.7071673  80.0771313
   6.1021673   9.3921673  80.8341313   7.0951673  10.1801673  80.3121313
   6.4591673   9.7301673  80.2241313   6.6221673  13.8251673  88.1041313
   7.3091673  13.7111673  88.6291313   6.7561673  14.6161673  87.7601313
   6.7431673  13.9251673  88.1311313   9.3111673   7.0991673  88.4911313
   9.0561673   6.3801673  88.9131313  10.1321673   7.2151673  88.7611313
   9.3951673   7.0101673  88.5931313  10.3291673  16.6631673  82.6071313
   9.8781673  17.3061673  82.9861313  11.0371673  16.5841673  83.1121313
  10.3671673  16.7461673  82.7381313   7.0301673  11.7531673  85.5371313
   6.3361673  12.1551673  85.8801313   7.7071673  12.1861673  85.8761313
   7.0271673  11.8761673  85.6381313  13.4321673   6.3791673  77.5991313
  13.5351673   6.3211673  76.7351313  14.1731673   6.0471673  77.9171313
  13.5571673   6.3221673  77.5181313   7.3521673  13.3441673  78.7061313
   7.1471673  14.1771673  78.5471313   6.5771673  12.9621673  78.8281313
   7.2071673  13.4111673  78.7011313  12.5341673   6.5251673  86.9551313
  12.5321673   5.6621673  87.0791313  12.6011673   6.8491673  87.7621313
  12.5441673   6.4451673  87.0921313   2.7141673  13.6061673  75.1151313
   3.1551673  13.6861673  75.8631313   1.9091673  13.3901673  75.3731313
   2.6601673  13.5861673  75.2641313  11.0051673   2.0311673  84.3911313
  11.8601673   2.1301673  84.5361313  10.6361673   2.5841673  84.9561313
  11.0771673   2.1281673  84.4961313  11.3091673   7.3111673  82.8821313
  11.9751673   7.8521673  83.0421313  10.9641673   7.6221673  82.1431313
  11.3561673   7.4371673  82.7971313  11.6221673  15.3771673  78.6891313
  11.4481673  14.7231673  79.2391313  12.3351673  15.1061673  78.2661313
  11.7021673  15.2401673  78.7081313   2.8621673  10.9211673  74.4591313
   2.0441673  10.6531673  74.5991313   2.8341673  11.7731673  74.6441313
   2.7371673  11.0081673  74.5071313   9.2971673  12.8301673  86.3801313
   9.5031673  13.1311673  87.1721313   9.2361673  13.5521673  85.8951313
   9.3181673  12.9811673  86.4251313  14.1091673  11.4691673  85.8381313
  14.0771673  10.6071673  85.7031313  13.4161673  11.7711673  85.4041313
  14.0021673  11.3861673  85.7541313  12.2141673  14.7291673  84.6351313
  12.7411673  14.6461673  83.9441313  11.8231673  13.9511673  84.6891313
  12.2341673  14.6021673  84.5411313   8.0871673   5.9811673  81.3361313
   8.6381673   5.3741673  81.6361313   7.6621673   6.2441673  82.0511313
   8.1061673   5.9301673  81.4851313  10.0571673   7.8121673  77.8981313
  10.1251673   6.9621673  78.0791313   9.2341673   7.8981673  77.6201313
   9.9451673   7.6991673  77.8841313   3.9761673   8.7031673  76.8361313
   4.0761673   8.8421673  75.9811313   4.7941673   8.6431673  77.1321313
   4.1111673   8.7141673  76.7531313  13.1361673  16.7671673  74.3161313
  13.7731673  16.6331673  74.8971313  12.7951673  15.9731673  74.1991313
  13.1801673  16.6301673  74.3841313   9.2111673  13.0321673  76.6381313
   8.9601673  12.9041673  77.4641313   8.8941673  12.3371673  76.2171313
   9.1271673  12.9111673  76.6981313  13.8551673   4.6901673  84.7581313
  13.0221673   4.9401673  84.6861313  13.7991673   3.8501673  84.9871313
  13.7241673   4.6031673  84.7811313   6.0971673  11.2401673  76.0681313
   6.8141673  10.8931673  75.7121313   6.0631673  12.0401673  75.7201313
   6.1981673  11.3071673  75.9641313   7.3151673   6.7971673  64.9778903
   6.7911673   7.3931673  65.3408903   7.7121673   6.4291673  65.6618903
   7.2961673   6.8311673  65.1328903  13.4591673  14.2381673  57.9488903
  14.1601673  13.7191673  57.9448903  12.8721673  13.7931673  57.4798903
  13.4761673  14.0951673  57.8788903   9.9861673   7.8641673  61.6538903
  10.0661673   7.8681673  60.7848903   9.4021673   7.2321673  61.8028903
   9.9111673   7.7711673  61.5478903   3.6981673  11.1971673  71.7558903
   3.4621673  11.1941673  72.5958903   2.9501673  11.0491673  71.3318903
   3.5521673  11.1741673  71.8168903   3.0781673   3.8031673  66.2378903
   3.7561673   3.8211673  65.6888903   3.0331673   2.9671673  66.4828903
   3.1711673   3.6821673  66.1928903   3.6801673  14.3891673  69.0188903
   3.8181673  15.1491673  68.6118903   4.4711673  14.0241673  69.0458903
   3.8171673  14.4481673  68.9628903   4.7751673  12.2741673  63.5238903
   5.1231673  11.4751673  63.5538903   5.4401673  12.7781673  63.2688903
   4.9251673  12.2301673  63.4908903   4.8321673  11.7231673  59.7348903
   5.1631673  11.0791673  60.2208903   5.0721673  11.5121673  58.9238903
   4.9161673  11.5971673  59.6868903   6.8001673   5.8541673  71.0738903
   5.9521673   5.7551673  70.8958903   6.8291673   6.5991673  71.5278903
   6.6791673   5.9501673  71.1148903   8.8201673   3.4551673  54.7018903
   8.3701673   4.1361673  55.0088903   8.9341673   2.9511673  55.4048903
   8.7711673   3.4811673  54.8508903   2.7761673  13.5081673  59.2838903
   2.1971673  13.2331673  59.8758903   3.4001673  12.8991673  59.3088903
   2.7831673  13.3781673  59.3748903   8.9191673  15.7961673  56.8058903
   9.6461673  16.2681673  56.9078903   9.1481673  15.0021673  57.0858903
   9.0611673  15.7491673  56.8628903   7.0871673  16.1881673  58.7958903
   7.3011673  16.7151673  59.4578903   7.8541673  16.0141673  58.4168903
   7.2321673  16.2401673  58.8378903   3.3611673   2.9041673  73.6928903
   3.4781673   2.4501673  72.9568903   3.6491673   3.7021673  73.4898903
   3.4211673   2.9551673  73.5538903  14.2141673   3.4281673  60.9968903
  13.8681673   4.1061673  61.4228903  13.5781673   2.8301673  61.0128903
  14.0691673   3.4401673  61.0618903   9.5261673  16.1981673  67.1008903
  10.2701673  16.6541673  67.0908903   9.4051673  15.9841673  66.2638903
   9.6181673  16.2341673  66.9758903   2.5301673  15.6731673  62.5308903
   3.3741673  15.7771673  62.3358903   2.2331673  16.4911673  62.5988903
   2.6111673  15.8091673  62.5118903   6.3371673   5.0701673  60.6178903
   6.6241673   4.8381673  59.8278903   7.0691673   5.1491673  61.0868903
   6.4871673   5.0471673  60.5708903   7.0591673   5.4091673  55.7388903
   7.3401673   6.1971673  55.9878903   6.2831673   5.5741673  55.3758903
   6.9861673   5.5501673  55.7218903  11.1001673  17.3831673  57.2058903
  11.7651673  17.2351673  56.6608903  11.4601673  17.3001673  57.9958903
  11.2521673  17.3491673  57.2418903   8.7801673  13.3831673  70.8048903
   8.7461673  13.7651673  71.5888903   9.6341673  13.3411673  70.6338903
   8.9011673  13.4331673  70.8958903   5.9181673  13.5801673  55.5548903
   5.7371673  14.1251673  56.2118903   6.6841673  13.8701673  55.2538903
   6.0041673  13.7041673  55.6078903   6.6831673   3.8521673  57.9228903
   6.1751673   3.1901673  57.6688903   6.7351673   4.3561673  57.2128903
   6.6161673   3.8291673  57.7808903   7.2321673  16.5471673  68.3028903
   8.0001673  16.4671673  67.8968903   6.6491673  16.4261673  67.6648903
   7.2591673  16.5171673  68.1488903  13.5091673  17.1501673  61.2038903
  13.0541673  17.8671673  61.4048903  12.8951673  16.5791673  60.9618903
  13.3511673  17.1721673  61.1978903   5.2811673   3.1601673  62.3358903
   5.3551673   3.7281673  61.6778903   5.4021673   3.6521673  63.0458903
   5.3091673   3.3171673  62.3438903  10.5061673  12.9951673  60.7478903
  11.2071673  12.5131673  60.9368903   9.8461673  12.4261673  60.7928903
  10.5121673  12.8401673  60.7818903   2.8451673   9.4161673  64.7088903
   3.0171673   9.2061673  65.5378903   2.1901673   8.8821673  64.4928903
   2.7741673   9.3061673  64.7998903   9.0731673   3.3301673  68.2238903
   8.9781673   3.6491673  69.0298903   8.4801673   2.6911673  68.1858903
   8.9711673   3.2821673  68.3378903   3.5951673   9.3541673  67.2988903
   3.6481673  10.2011673  67.5008903   3.3101673   8.9841673  68.0358903
   3.5611673   9.4241673  67.4368903   9.7721673  10.0491673  66.4288903
   9.2581673   9.6371673  66.9998903   9.6461673  10.8931673  66.6098903
   9.6781673  10.1131673  66.5398903  12.7931673   3.5101673  69.3678903
  13.5651673   3.2851673  69.7048903  12.3181673   3.7271673  70.0678903
  12.8371673   3.5091673  69.5208903  13.0251673  10.4881673  56.5558903
  13.1441673  10.2011673  57.3708903  13.8321673  10.5091673  56.2258903
  13.1611673  10.4491673  56.6278903  15.2591673  14.9971673  70.8098903
  14.5771673  15.3071673  70.3628903  14.8901673  14.5391673  71.4548903
  15.1031673  14.9751673  70.8388903  10.9201673   7.0251673  56.1408903
  10.7001673   7.7561673  55.7188903  10.4721673   7.0761673  56.8878903
  10.8211673   7.1401673  56.1888903   2.5291673  10.2271673  60.1218903
   3.2421673  10.7221673  60.2118903   2.7511673   9.6601673  59.4958903
   2.6671673  10.2161673  60.0428903   4.3321673   5.5801673  73.5378903
   3.8481673   6.1571673  73.9798903   4.3041673   5.8751673  72.7168903
   4.2561673   5.7091673  73.4818903  15.4301673   6.2641673  68.1498903
  15.6451673   5.4641673  67.8738903  14.5801673   6.3241673  67.9608903
  15.3361673   6.1551673  68.0808903   7.0521673  13.9301673  62.4488903
   6.5291673  14.5641673  62.1558903   7.3621673  13.5661673  61.7198903
   7.0201673  13.9701673  62.2978903   9.5631673   3.7321673  62.9458903
   9.9071673   3.8841673  63.7328903   9.1101673   2.9941673  63.0588903
   9.5471673   3.6451673  63.0788903   4.0391673   2.9521673  57.4028903
   4.0371673   2.8351673  56.5378903   3.8581673   3.8001673  57.4948903
   4.0121673   3.0601673  57.2888903  13.0931673  15.3791673  68.8998903
  12.4221673  15.8931673  69.1178903  13.1561673  15.4791673  68.0358903
  13.0031673  15.4701673  68.8048903   1.7771673  12.9041673  62.0348903
   1.9031673  13.7471673  62.2218903   2.4451673  12.5051673  62.4308903
   1.8951673  12.9701673  62.1208903  10.8841673   5.0641673  65.4998903
  10.2221673   5.3921673  65.9628903  11.0711673   5.6981673  64.9308903
  10.8141673   5.2061673  65.4838903   5.0891673  16.1281673  66.4958903
   4.8121673  15.4871673  65.9728903   4.8811673  16.8541673  66.0578903
   5.0181673  16.1411673  66.3538903   9.0771673   3.0331673  59.0108903
   9.5671673   3.7501673  58.9338903   8.2871673   3.2941673  58.7478903
   9.0331673   3.1771673  58.9608903  10.3911673  10.9111673  70.9208903
  10.8751673  11.6291673  71.0188903  10.7851673  10.4841673  70.2698903
  10.5211673  10.9541673  70.8388903   4.6871673  13.7561673  72.0978903
   5.0411673  13.5781673  72.8748903   4.2511673  13.0271673  71.8988903
   4.6751673  13.6221673  72.1838903   5.6591673   4.5031673  64.7358903
   6.1391673   5.2021673  64.9438903   6.0321673   3.8561673  65.1868903
   5.7851673   4.5111673  64.8328903   7.8481673   7.6721673  57.0098903
   7.8401673   8.3941673  56.5198903   7.2091673   7.8071673  57.5868903
   7.7531673   7.7991673  57.0228903  12.8201673  11.5421673  60.9908903
  13.1761673  11.1921673  61.7058903  12.8121673  10.8811673  60.4208903
  12.8721673  11.3921673  61.0118903   8.8651673  14.6081673  64.8348903
   8.2621673  14.3121673  64.2778903   9.4101673  15.0601673  64.3258903
   8.8561673  14.6311673  64.6768903   8.8781673  11.4591673  64.2348903
   8.0811673  11.6831673  64.5088903   9.1361673  10.8651673  64.8198903
   8.7981673  11.4041673  64.3618903   2.7701673  16.2711673  58.6828903
   2.6231673  15.4951673  59.0538903   3.4591673  16.1241673  58.1678903
   2.8501673  16.1341673  58.6618903   5.0621673  15.7871673  57.0848903
   5.6841673  15.9501673  57.6748903   5.0981673  16.4781673  56.5528903
   5.1591673  15.9131673  57.0938903  12.1381673   9.4571673  69.0808903
  12.1931673   9.5821673  68.2188903  12.8911673   9.7771673  69.3828903
  12.2571673   9.5221673  68.9978903   8.3291673  14.8061673  73.3578903
   8.4931673  15.0891673  74.1668903   8.5921673  15.4671673  72.8528903
   8.3921673  14.9461673  73.4028903   7.8691673   9.2631673  68.6808903
   7.7141673   9.8731673  69.2848903   8.4031673   8.7051673  69.0868903
   7.9251673   9.2711673  68.8298903   6.2531673   7.6631673  59.3388903
   6.3121673   8.3131673  59.9178903   6.0641673   6.9671673  59.8298903
   6.2341673   7.6561673  59.4968903  11.4791673  11.9921673  65.2078903
  11.0001673  12.2901673  64.5418903  11.1231673  11.2161673  65.3858903
  11.3561673  11.9211673  65.1358903   5.4761673   9.7101673  63.7698903
   4.6291673   9.5161673  63.8508903   5.8001673   9.5451673  64.5628903
   5.3981673   9.6571673  63.8988903   2.2281673  16.4401673  54.6558903
   2.6671673  15.7431673  54.9438903   2.4351673  17.0641673  55.2288903
   2.3241673  16.4291673  54.7828903   2.5541673   4.5741673  62.8208903
   3.4001673   4.3841673  62.9188903   2.1841673   3.7971673  62.6828903
   2.6241673   4.4311673  62.8148903  15.1711673  16.1581673  57.1478903
  15.8651673  15.6911673  56.8998903  14.6321673  15.5601673  57.4848903
  15.1941673  16.0001673  57.1608903  12.4101673   8.9341673  66.3268903
  12.4031673   8.1581673  66.7248903  11.5691673   9.1681673  66.3198903
  12.2851673   8.8541673  66.3848903  13.6661673   9.0051673  63.7638903
  13.3801673   9.4061673  64.4838903  14.5261673   8.9431673  63.8908903
  13.7511673   9.0551673  63.8888903   3.3551673   5.8071673  57.6718903
   3.6271673   6.6331673  57.7388903   2.4921673   5.8821673  57.5758903
   3.2681673   5.9401673  57.6668903  11.3281673   2.9291673  72.3038903
  10.8031673   3.3881673  72.8278903  10.9671673   2.1341673  72.2978903
  11.1971673   2.8791673  72.3798903  14.7971673  14.6381673  64.2928903
  15.0871673  14.8951673  63.5118903  15.4921673  14.7341673  64.8118903
  14.9431673  14.6901673  64.2538903   9.8201673   6.4981673  72.3798903
   9.8931673   6.6021673  73.2428903   9.1861673   7.0561673  72.1588903
   9.7371673   6.5961673  72.4748903  12.0881673   6.8171673  70.7448903
  12.4071673   7.6031673  70.9478903  11.7181673   6.5471673  71.4878903
  12.0811673   6.8931673  70.8848903  11.4021673  13.2411673  56.2748903
  11.7361673  12.4351673  56.3098903  10.6471673  13.1691673  56.7048903
  11.3401673  13.1111673  56.3438903  11.8841673   5.0751673  61.9338903
  11.1391673   4.7521673  62.2518903  11.8861673   5.9011673  62.2138903
  11.7741673   5.1491673  62.0218903  14.7861673   7.3591673  73.4798903
  14.7341673   7.0181673  72.6788903  15.5231673   7.8261673  73.4578903
  14.8871673   7.3781673  73.3578903  14.3241673  11.0351673  69.6858903
  14.9521673  10.4861673  69.4298903  14.2631673  11.6001673  69.0238903
  14.4081673  11.0381673  69.5498903   8.7761673  11.1161673  55.6778903
   9.4601673  10.6021673  55.5088903   8.3591673  11.1621673  54.9128903
   8.8151673  11.0471673  55.5398903   3.4581673  12.2661673  66.9818903
   3.1601673  12.8581673  67.5488903   3.5131673  12.7081673  66.2328903
   3.4221673  12.4191673  66.9548903   5.9741673   8.6891673  66.4728903
   6.4501673   9.0631673  67.1008903   5.1511673   8.8231673  66.7318903
   5.9231673   8.7641673  66.6038903   2.6841673   4.2921673  69.2138903
   2.8451673   3.5481673  69.6408903   2.6391673   4.0431673  68.3788903
   2.7011673   4.1451673  69.1538903   5.2381673  16.0821673  61.7008903
   5.7841673  16.7611673  61.7548903   4.8881673  16.1641673  60.9058903
   5.2671673  16.1951673  61.5908903   3.4211673  14.3101673  65.0898903
   2.7971673  14.8921673  64.9078903   3.6691673  14.0241673  64.3038903
   3.3651673  14.3541673  64.9468903   7.7301673  10.9441673  72.0788903
   8.4871673  11.2301673  71.7528903   7.1831673  10.9961673  71.4008903
   7.7611673  10.9941673  71.9298903  11.6391673  13.4941673  70.5828903
  11.9851673  13.7641673  71.3368903  11.9331673  14.0761673  70.0028903
  11.7341673  13.6201673  70.6088903  13.5021673   5.6401673  55.9218903
  13.8801673   6.3171673  55.5218903  12.6601673   5.8641673  55.9528903
  13.4331673   5.7731673  55.8668903   5.0151673   9.0861673  55.0048903
   4.2101673   8.9091673  54.7198903   4.9821673   9.9371673  55.1968903
   4.8911673   9.1851673  54.9918903   8.9611673   4.2551673  70.7468903
   8.3131673   4.7251673  71.0948903   9.5261673   4.1661673  71.4058903
   8.9491673   4.3111673  70.8958903   8.6491673   5.7921673  67.0448903
   8.9511673   6.2121673  67.7478903   8.6851673   4.9521673  67.2768903
   8.6991673   5.7301673  67.1828903   6.0741673  15.9591673  70.9698903
   6.5521673  15.3591673  70.5538903   5.7231673  15.5161673  71.6348903
   6.0931673  15.8051673  71.0068903  11.1971673   5.2391673  59.2968903
  11.4041673   5.0381673  60.1208903  11.9531673   5.5071673  58.9548903
  11.3391673   5.2491673  59.3678903  12.6621673   9.2661673  59.1508903
  13.1381673   8.5371673  59.1028903  11.8411673   8.9801673  59.0748903
  12.6111673   9.1161673  59.1318903   6.1331673  11.1781673  69.9898903
   5.3381673  11.1141673  70.3408903   6.2041673  12.0251673  69.7948903
   6.0261673  11.2931673  70.0128903   8.8781673  10.4331673  61.5058903
   8.9541673  10.7741673  62.3048903   9.0471673   9.5861673  61.6268903
   8.9141673  10.3581673  61.6418903   6.4001673   9.7071673  61.0708903
   6.1021673   9.3921673  61.8278903   7.0951673  10.1801673  61.3058903
   6.4591673   9.7301673  61.2178903   6.6221673  13.8251673  69.0978903
   7.3091673  13.7111673  69.6228903   6.7561673  14.6161673  68.7538903
   6.7431673  13.9251673  69.1248903  14.7981673   6.4341673  70.9088903
  13.9431673   6.3121673  71.0348903  14.9511673   6.0391673  70.1458903
  14.6941673   6.3571673  70.8148903   9.3111673   7.0991673  69.4848903
   9.0561673   6.3801673  69.9068903  10.1321673   7.2151673  69.7548903
   9.3951673   7.0101673  69.5868903   7.2451673   8.2891673  72.6718903
   7.5681673   8.9751673  72.2398903   6.5411673   8.6121673  73.0738903
   7.1881673   8.4381673  72.6668903  10.3291673  16.6631673  63.6008903
   9.8781673  17.3061673  63.9798903  11.0371673  16.5841673  64.1058903
  10.3671673  16.7461673  63.7318903   7.0301673  11.7531673  66.5308903
   6.3361673  12.1551673  66.8738903   7.7071673  12.1861673  66.8698903
   7.0271673  11.8761673  66.6318903  12.4071673  14.3461673  73.1108903
  13.1831673  13.9561673  73.1938903  11.9381673  14.0101673  73.7658903
  12.4521673  14.2391673  73.2198903  13.4321673   6.3791673  58.5928903
  13.5351673   6.3211673  57.7288903  14.1731673   6.0471673  58.9108903
  13.5571673   6.3221673  58.5118903   7.3521673  13.3441673  59.6998903
   7.1471673  14.1771673  59.5408903   6.5771673  12.9621673  59.8218903
   7.2071673  13.4111673  59.6948903  12.5341673   6.5251673  67.9488903
  12.5321673   5.6621673  68.0728903  12.6011673   6.8491673  68.7558903
  12.5441673   6.4451673  68.0858903   2.7141673  13.6061673  56.1088903
   3.1551673  13.6861673  56.8568903   1.9091673  13.3901673  56.3668903
   2.6601673  13.5861673  56.2578903  11.0051673   2.0311673  65.3848903
  11.8601673   2.1301673  65.5298903  10.6361673   2.5841673  65.9498903
  11.0771673   2.1281673  65.4898903  11.3091673   7.3111673  63.8758903
  11.9751673   7.8521673  64.0358903  10.9641673   7.6221673  63.1368903
  11.3561673   7.4371673  63.7908903  11.6221673  15.3771673  59.6828903
  11.4481673  14.7231673  60.2328903  12.3351673  15.1061673  59.2598903
  11.7021673  15.2401673  59.7018903   2.8621673  10.9211673  55.4528903
   2.0441673  10.6531673  55.5928903   2.8341673  11.7731673  55.6378903
   2.7371673  11.0081673  55.5008903   9.2971673  12.8301673  67.3738903
   9.5031673  13.1311673  68.1658903   9.2361673  13.5521673  66.8888903
   9.3181673  12.9811673  67.4188903   8.8311673  17.0441673  71.6198903
   8.0781673  17.0261673  71.1788903   8.9991673  17.8961673  71.7038903
   8.7451673  17.1671673  71.5668903   4.0681673   6.3111673  70.7898903
   3.7461673   5.7351673  70.2198903   3.7091673   7.0661673  70.5438903
   3.9681673   6.3371673  70.6698903  14.1091673  11.4691673  66.8318903
  14.0771673  10.6071673  66.6968903  13.4161673  11.7711673  66.3978903
  14.0021673  11.3861673  66.7478903   2.5031673  16.6671673  71.0378903
   2.5441673  16.7931673  71.9008903   3.1541673  16.1071673  70.8818903
   2.6051673  16.6031673  71.1428903  12.2141673  14.7291673  65.6288903
  12.7411673  14.6461673  64.9378903  11.8231673  13.9511673  65.6828903
  12.2341673  14.6021673  65.5348903   8.0871673   5.9811673  62.3298903
   8.6381673   5.3741673  62.6298903   7.6621673   6.2441673  63.0448903
   8.1061673   5.9301673  62.4788903  10.0571673   7.8121673  58.8918903
  10.1251673   6.9621673  59.0728903   9.2341673   7.8981673  58.6138903
   9.9451673   7.6991673  58.8778903   3.9761673   8.7031673  57.8298903
   4.0761673   8.8421673  56.9748903   4.7941673   8.6431673  58.1258903
   4.1111673   8.7141673  57.7468903  13.1361673  16.7671673  55.3098903
  13.7731673  16.6331673  55.8908903  12.7951673  15.9731673  55.1928903
  13.1801673  16.6301673  55.3778903  13.3311673   9.1851673  72.0428903
  13.9651673   9.0151673  72.6168903  13.7481673   9.5881673  71.3908903
  13.4861673   9.2201673  72.0318903   9.2111673  13.0321673  57.6318903
   8.9601673  12.9041673  58.4578903   8.8941673  12.3371673  57.2108903
   9.1271673  12.9111673  57.6918903  13.9561673   3.7491673  72.7808903
  13.7601673   4.3931673  73.3358903  13.2341673   3.2591673  72.7728903
  13.8211673   3.7721673  72.8618903  13.8551673   4.6901673  65.7518903
  13.0221673   4.9401673  65.6798903  13.7991673   3.8501673  65.9808903
  13.7241673   4.6031673  65.7748903  10.7421673   9.2961673  73.3978903
  11.6131673   9.2601673  73.3618903  10.5231673   9.7161673  72.6658903
  10.8391673   9.3521673  73.2848903   6.0971673  11.2401673  57.0618903
   6.8141673  10.8931673  56.7058903   6.0631673  12.0401673  56.7138903
   6.1981673  11.3071673  56.9578903   7.3151673   6.7971673  45.9716493
   6.7911673   7.3931673  46.3346493   7.7121673   6.4291673  46.6556493
   7.2961673   6.8311673  46.1266493  13.4591673  14.2381673  38.9426493
  14.1601673  13.7191673  38.9386493  12.8721673  13.7931673  38.4736493
  13.4761673  14.0951673  38.8726493   9.9861673   7.8641673  42.6476493
  10.0661673   7.8681673  41.7786493   9.4021673   7.2321673  42.7966493
   9.9111673   7.7711673  42.5416493   3.6981673  11.1971673  52.7496493
   3.4621673  11.1941673  53.5896493   2.9501673  11.0491673  52.3256493
   3.5521673  11.1741673  52.8106493   3.0781673   3.8031673  47.2316493
   3.7561673   3.8211673  46.6826493   3.0331673   2.9671673  47.4766493
   3.1711673   3.6821673  47.1866493   3.6801673  14.3891673  50.0126493
   3.8181673  15.1491673  49.6056493   4.4711673  14.0241673  50.0396493
   3.8171673  14.4481673  49.9566493   4.7751673  12.2741673  44.5176493
   5.1231673  11.4751673  44.5476493   5.4401673  12.7781673  44.2626493
   4.9251673  12.2301673  44.4846493   4.8321673  11.7231673  40.7286493
   5.1631673  11.0791673  41.2146493   5.0721673  11.5121673  39.9176493
   4.9161673  11.5971673  40.6806493   6.8001673   5.8541673  52.0676493
   5.9521673   5.7551673  51.8896493   6.8291673   6.5991673  52.5216493
   6.6791673   5.9501673  52.1086493   8.8201673   3.4551673  35.6956493
   8.3701673   4.1361673  36.0026493   8.9341673   2.9511673  36.3986493
   8.7711673   3.4811673  35.8446493   2.7761673  13.5081673  40.2776493
   2.1971673  13.2331673  40.8696493   3.4001673  12.8991673  40.3026493
   2.7831673  13.3781673  40.3686493   8.9191673  15.7961673  37.7996493
   9.6461673  16.2681673  37.9016493   9.1481673  15.0021673  38.0796493
   9.0611673  15.7491673  37.8566493   7.0871673  16.1881673  39.7896493
   7.3011673  16.7151673  40.4516493   7.8541673  16.0141673  39.4106493
   7.2321673  16.2401673  39.8316493   3.3611673   2.9041673  54.6866493
   3.4781673   2.4501673  53.9506493   3.6491673   3.7021673  54.4836493
   3.4211673   2.9551673  54.5476493  14.2141673   3.4281673  41.9906493
  13.8681673   4.1061673  42.4166493  13.5781673   2.8301673  42.0066493
  14.0691673   3.4401673  42.0556493   9.5261673  16.1981673  48.0946493
  10.2701673  16.6541673  48.0846493   9.4051673  15.9841673  47.2576493
   9.6181673  16.2341673  47.9696493   2.5301673  15.6731673  43.5246493
   3.3741673  15.7771673  43.3296493   2.2331673  16.4911673  43.5926493
   2.6111673  15.8091673  43.5056493   6.3371673   5.0701673  41.6116493
   6.6241673   4.8381673  40.8216493   7.0691673   5.1491673  42.0806493
   6.4871673   5.0471673  41.5646493   7.0591673   5.4091673  36.7326493
   7.3401673   6.1971673  36.9816493   6.2831673   5.5741673  36.3696493
   6.9861673   5.5501673  36.7156493  11.1001673  17.3831673  38.1996493
  11.7651673  17.2351673  37.6546493  11.4601673  17.3001673  38.9896493
  11.2521673  17.3491673  38.2356493   8.7801673  13.3831673  51.7986493
   8.7461673  13.7651673  52.5826493   9.6341673  13.3411673  51.6276493
   8.9011673  13.4331673  51.8896493   5.9181673  13.5801673  36.5486493
   5.7371673  14.1251673  37.2056493   6.6841673  13.8701673  36.2476493
   6.0041673  13.7041673  36.6016493   6.6831673   3.8521673  38.9166493
   6.1751673   3.1901673  38.6626493   6.7351673   4.3561673  38.2066493
   6.6161673   3.8291673  38.7746493   7.2321673  16.5471673  49.2966493
   8.0001673  16.4671673  48.8906493   6.6491673  16.4261673  48.6586493
   7.2591673  16.5171673  49.1426493  13.5091673  17.1501673  42.1976493
  13.0541673  17.8671673  42.3986493  12.8951673  16.5791673  41.9556493
  13.3511673  17.1721673  42.1916493   5.2811673   3.1601673  43.3296493
   5.3551673   3.7281673  42.6716493   5.4021673   3.6521673  44.0396493
   5.3091673   3.3171673  43.3376493  10.5061673  12.9951673  41.7416493
  11.2071673  12.5131673  41.9306493   9.8461673  12.4261673  41.7866493
  10.5121673  12.8401673  41.7756493   2.8451673   9.4161673  45.7026493
   3.0171673   9.2061673  46.5316493   2.1901673   8.8821673  45.4866493
   2.7741673   9.3061673  45.7936493   9.0731673   3.3301673  49.2176493
   8.9781673   3.6491673  50.0236493   8.4801673   2.6911673  49.1796493
   8.9711673   3.2821673  49.3316493   3.5951673   9.3541673  48.2926493
   3.6481673  10.2011673  48.4946493   3.3101673   8.9841673  49.0296493
   3.5611673   9.4241673  48.4306493   9.7721673  10.0491673  47.4226493
   9.2581673   9.6371673  47.9936493   9.6461673  10.8931673  47.6036493
   9.6781673  10.1131673  47.5336493  12.7931673   3.5101673  50.3616493
  13.5651673   3.2851673  50.6986493  12.3181673   3.7271673  51.0616493
  12.8371673   3.5091673  50.5146493  13.0251673  10.4881673  37.5496493
  13.1441673  10.2011673  38.3646493  13.8321673  10.5091673  37.2196493
  13.1611673  10.4491673  37.6216493  15.2591673  14.9971673  51.8036493
  14.5771673  15.3071673  51.3566493  14.8901673  14.5391673  52.4486493
  15.1031673  14.9751673  51.8326493  10.9201673   7.0251673  37.1346493
  10.7001673   7.7561673  36.7126493  10.4721673   7.0761673  37.8816493
  10.8211673   7.1401673  37.1826493   2.5291673  10.2271673  41.1156493
   3.2421673  10.7221673  41.2056493   2.7511673   9.6601673  40.4896493
   2.6671673  10.2161673  41.0366493   4.3321673   5.5801673  54.5316493
   3.8481673   6.1571673  54.9736493   4.3041673   5.8751673  53.7106493
   4.2561673   5.7091673  54.4756493  15.4301673   6.2641673  49.1436493
  15.6451673   5.4641673  48.8676493  14.5801673   6.3241673  48.9546493
  15.3361673   6.1551673  49.0746493   7.0521673  13.9301673  43.4426493
   6.5291673  14.5641673  43.1496493   7.3621673  13.5661673  42.7136493
   7.0201673  13.9701673  43.2916493   9.5631673   3.7321673  43.9396493
   9.9071673   3.8841673  44.7266493   9.1101673   2.9941673  44.0526493
   9.5471673   3.6451673  44.0726493   4.0391673   2.9521673  38.3966493
   4.0371673   2.8351673  37.5316493   3.8581673   3.8001673  38.4886493
   4.0121673   3.0601673  38.2826493  13.0931673  15.3791673  49.8936493
  12.4221673  15.8931673  50.1116493  13.1561673  15.4791673  49.0296493
  13.0031673  15.4701673  49.7986493   1.7771673  12.9041673  43.0286493
   1.9031673  13.7471673  43.2156493   2.4451673  12.5051673  43.4246493
   1.8951673  12.9701673  43.1146493  10.8841673   5.0641673  46.4936493
  10.2221673   5.3921673  46.9566493  11.0711673   5.6981673  45.9246493
  10.8141673   5.2061673  46.4776493   5.0891673  16.1281673  47.4896493
   4.8121673  15.4871673  46.9666493   4.8811673  16.8541673  47.0516493
   5.0181673  16.1411673  47.3476493   9.0771673   3.0331673  40.0046493
   9.5671673   3.7501673  39.9276493   8.2871673   3.2941673  39.7416493
   9.0331673   3.1771673  39.9546493  10.3911673  10.9111673  51.9146493
  10.8751673  11.6291673  52.0126493  10.7851673  10.4841673  51.2636493
  10.5211673  10.9541673  51.8326493   4.6871673  13.7561673  53.0916493
   5.0411673  13.5781673  53.8686493   4.2511673  13.0271673  52.8926493
   4.6751673  13.6221673  53.1776493   5.6591673   4.5031673  45.7296493
   6.1391673   5.2021673  45.9376493   6.0321673   3.8561673  46.1806493
   5.7851673   4.5111673  45.8266493   7.8481673   7.6721673  38.0036493
   7.8401673   8.3941673  37.5136493   7.2091673   7.8071673  38.5806493
   7.7531673   7.7991673  38.0166493  12.8201673  11.5421673  41.9846493
  13.1761673  11.1921673  42.6996493  12.8121673  10.8811673  41.4146493
  12.8721673  11.3921673  42.0056493   8.8651673  14.6081673  45.8286493
   8.2621673  14.3121673  45.2716493   9.4101673  15.0601673  45.3196493
   8.8561673  14.6311673  45.6706493   8.8781673  11.4591673  45.2286493
   8.0811673  11.6831673  45.5026493   9.1361673  10.8651673  45.8136493
   8.7981673  11.4041673  45.3556493   2.7701673  16.2711673  39.6766493
   2.6231673  15.4951673  40.0476493   3.4591673  16.1241673  39.1616493
   2.8501673  16.1341673  39.6556493   5.0621673  15.7871673  38.0786493
   5.6841673  15.9501673  38.6686493   5.0981673  16.4781673  37.5466493
   5.1591673  15.9131673  38.0876493  12.1381673   9.4571673  50.0746493
  12.1931673   9.5821673  49.2126493  12.8911673   9.7771673  50.3766493
  12.2571673   9.5221673  49.9916493   8.3291673  14.8061673  54.3516493
   8.4931673  15.0891673  55.1606493   8.5921673  15.4671673  53.8466493
   8.3921673  14.9461673  54.3966493   7.8691673   9.2631673  49.6746493
   7.7141673   9.8731673  50.2786493   8.4031673   8.7051673  50.0806493
   7.9251673   9.2711673  49.8236493   6.2531673   7.6631673  40.3326493
   6.3121673   8.3131673  40.9116493   6.0641673   6.9671673  40.8236493
   6.2341673   7.6561673  40.4906493  11.4791673  11.9921673  46.2016493
  11.0001673  12.2901673  45.5356493  11.1231673  11.2161673  46.3796493
  11.3561673  11.9211673  46.1296493   5.4761673   9.7101673  44.7636493
   4.6291673   9.5161673  44.8446493   5.8001673   9.5451673  45.5566493
   5.3981673   9.6571673  44.8926493   2.2281673  16.4401673  35.6496493
   2.6671673  15.7431673  35.9376493   2.4351673  17.0641673  36.2226493
   2.3241673  16.4291673  35.7766493   2.5541673   4.5741673  43.8146493
   3.4001673   4.3841673  43.9126493   2.1841673   3.7971673  43.6766493
   2.6241673   4.4311673  43.8086493  15.1711673  16.1581673  38.1416493
  15.8651673  15.6911673  37.8936493  14.6321673  15.5601673  38.4786493
  15.1941673  16.0001673  38.1546493  12.4101673   8.9341673  47.3206493
  12.4031673   8.1581673  47.7186493  11.5691673   9.1681673  47.3136493
  12.2851673   8.8541673  47.3786493  13.6661673   9.0051673  44.7576493
  13.3801673   9.4061673  45.4776493  14.5261673   8.9431673  44.8846493
  13.7511673   9.0551673  44.8826493   3.3551673   5.8071673  38.6656493
   3.6271673   6.6331673  38.7326493   2.4921673   5.8821673  38.5696493
   3.2681673   5.9401673  38.6606493  11.3281673   2.9291673  53.2976493
  10.8031673   3.3881673  53.8216493  10.9671673   2.1341673  53.2916493
  11.1971673   2.8791673  53.3736493  14.7971673  14.6381673  45.2866493
  15.0871673  14.8951673  44.5056493  15.4921673  14.7341673  45.8056493
  14.9431673  14.6901673  45.2476493   9.8201673   6.4981673  53.3736493
   9.8931673   6.6021673  54.2366493   9.1861673   7.0561673  53.1526493
   9.7371673   6.5961673  53.4686493  12.0881673   6.8171673  51.7386493
  12.4071673   7.6031673  51.9416493  11.7181673   6.5471673  52.4816493
  12.0811673   6.8931673  51.8786493  11.4021673  13.2411673  37.2686493
  11.7361673  12.4351673  37.3036493  10.6471673  13.1691673  37.6986493
  11.3401673  13.1111673  37.3376493  11.8841673   5.0751673  42.9276493
  11.1391673   4.7521673  43.2456493  11.8861673   5.9011673  43.2076493
  11.7741673   5.1491673  43.0156493  14.7861673   7.3591673  54.4736493
  14.7341673   7.0181673  53.6726493  15.5231673   7.8261673  54.4516493
  14.8871673   7.3781673  54.3516493  14.3241673  11.0351673  50.6796493
  14.9521673  10.4861673  50.4236493  14.2631673  11.6001673  50.0176493
  14.4081673  11.0381673  50.5436493   8.7761673  11.1161673  36.6716493
   9.4601673  10.6021673  36.5026493   8.3591673  11.1621673  35.9066493
   8.8151673  11.0471673  36.5336493   3.4581673  12.2661673  47.9756493
   3.1601673  12.8581673  48.5426493   3.5131673  12.7081673  47.2266493
   3.4221673  12.4191673  47.9486493   5.9741673   8.6891673  47.4666493
   6.4501673   9.0631673  48.0946493   5.1511673   8.8231673  47.7256493
   5.9231673   8.7641673  47.5976493   2.6841673   4.2921673  50.2076493
   2.8451673   3.5481673  50.6346493   2.6391673   4.0431673  49.3726493
   2.7011673   4.1451673  50.1476493   5.2381673  16.0821673  42.6946493
   5.7841673  16.7611673  42.7486493   4.8881673  16.1641673  41.8996493
   5.2671673  16.1951673  42.5846493   3.4211673  14.3101673  46.0836493
   2.7971673  14.8921673  45.9016493   3.6691673  14.0241673  45.2976493
   3.3651673  14.3541673  45.9406493   7.7301673  10.9441673  53.0726493
   8.4871673  11.2301673  52.7466493   7.1831673  10.9961673  52.3946493
   7.7611673  10.9941673  52.9236493  11.6391673  13.4941673  51.5766493
  11.9851673  13.7641673  52.3306493  11.9331673  14.0761673  50.9966493
  11.7341673  13.6201673  51.6026493  13.5021673   5.6401673  36.9156493
  13.8801673   6.3171673  36.5156493  12.6601673   5.8641673  36.9466493
  13.4331673   5.7731673  36.8606493   5.0151673   9.0861673  35.9986493
   4.2101673   8.9091673  35.7136493   4.9821673   9.9371673  36.1906493
   4.8911673   9.1851673  35.9856493   8.9611673   4.2551673  51.7406493
   8.3131673   4.7251673  52.0886493   9.5261673   4.1661673  52.3996493
   8.9491673   4.3111673  51.8896493   8.6491673   5.7921673  48.0386493
   8.9511673   6.2121673  48.7416493   8.6851673   4.9521673  48.2706493
   8.6991673   5.7301673  48.1766493   6.0741673  15.9591673  51.9636493
   6.5521673  15.3591673  51.5476493   5.7231673  15.5161673  52.6286493
   6.0931673  15.8051673  52.0006493  11.1971673   5.2391673  40.2906493
  11.4041673   5.0381673  41.1146493  11.9531673   5.5071673  39.9486493
  11.3391673   5.2491673  40.3616493  12.6621673   9.2661673  40.1446493
  13.1381673   8.5371673  40.0966493  11.8411673   8.9801673  40.0686493
  12.6111673   9.1161673  40.1256493   6.1331673  11.1781673  50.9836493
   5.3381673  11.1141673  51.3346493   6.2041673  12.0251673  50.7886493
   6.0261673  11.2931673  51.0066493   8.8781673  10.4331673  42.4996493
   8.9541673  10.7741673  43.2986493   9.0471673   9.5861673  42.6206493
   8.9141673  10.3581673  42.6356493   6.4001673   9.7071673  42.0646493
   6.1021673   9.3921673  42.8216493   7.0951673  10.1801673  42.2996493
   6.4591673   9.7301673  42.2116493   6.6221673  13.8251673  50.0916493
   7.3091673  13.7111673  50.6166493   6.7561673  14.6161673  49.7476493
   6.7431673  13.9251673  50.1186493  14.7981673   6.4341673  51.9026493
  13.9431673   6.3121673  52.0286493  14.9511673   6.0391673  51.1396493
  14.6941673   6.3571673  51.8086493   9.3111673   7.0991673  50.4786493
   9.0561673   6.3801673  50.9006493  10.1321673   7.2151673  50.7486493
   9.3951673   7.0101673  50.5806493   7.2451673   8.2891673  53.6656493
   7.5681673   8.9751673  53.2336493   6.5411673   8.6121673  54.0676493
   7.1881673   8.4381673  53.6606493  10.3291673  16.6631673  44.5946493
   9.8781673  17.3061673  44.9736493  11.0371673  16.5841673  45.0996493
  10.3671673  16.7461673  44.7256493   7.0301673  11.7531673  47.5246493
   6.3361673  12.1551673  47.8676493   7.7071673  12.1861673  47.8636493
   7.0271673  11.8761673  47.6256493  12.4071673  14.3461673  54.1046493
  13.1831673  13.9561673  54.1876493  11.9381673  14.0101673  54.7596493
  12.4521673  14.2391673  54.2136493  13.4321673   6.3791673  39.5866493
  13.5351673   6.3211673  38.7226493  14.1731673   6.0471673  39.9046493
  13.5571673   6.3221673  39.5056493   7.3521673  13.3441673  40.6936493
   7.1471673  14.1771673  40.5346493   6.5771673  12.9621673  40.8156493
   7.2071673  13.4111673  40.6886493  12.5341673   6.5251673  48.9426493
  12.5321673   5.6621673  49.0666493  12.6011673   6.8491673  49.7496493
  12.5441673   6.4451673  49.0796493   2.7141673  13.6061673  37.1026493
   3.1551673  13.6861673  37.8506493   1.9091673  13.3901673  37.3606493
   2.6601673  13.5861673  37.2516493  11.0051673   2.0311673  46.3786493
  11.8601673   2.1301673  46.5236493  10.6361673   2.5841673  46.9436493
  11.0771673   2.1281673  46.4836493  11.3091673   7.3111673  44.8696493
  11.9751673   7.8521673  45.0296493  10.9641673   7.6221673  44.1306493
  11.3561673   7.4371673  44.7846493  11.6221673  15.3771673  40.6766493
  11.4481673  14.7231673  41.2266493  12.3351673  15.1061673  40.2536493
  11.7021673  15.2401673  40.6956493   2.8621673  10.9211673  36.4466493
   2.0441673  10.6531673  36.5866493   2.8341673  11.7731673  36.6316493
   2.7371673  11.0081673  36.4946493   9.2971673  12.8301673  48.3676493
   9.5031673  13.1311673  49.1596493   9.2361673  13.5521673  47.8826493
   9.3181673  12.9811673  48.4126493   8.8311673  17.0441673  52.6136493
   8.0781673  17.0261673  52.1726493   8.9991673  17.8961673  52.6976493
   8.7451673  17.1671673  52.5606493   4.0681673   6.3111673  51.7836493
   3.7461673   5.7351673  51.2136493   3.7091673   7.0661673  51.5376493
   3.9681673   6.3371673  51.6636493  14.1091673  11.4691673  47.8256493
  14.0771673  10.6071673  47.6906493  13.4161673  11.7711673  47.3916493
  14.0021673  11.3861673  47.7416493   2.5031673  16.6671673  52.0316493
   2.5441673  16.7931673  52.8946493   3.1541673  16.1071673  51.8756493
   2.6051673  16.6031673  52.1366493  12.2141673  14.7291673  46.6226493
  12.7411673  14.6461673  45.9316493  11.8231673  13.9511673  46.6766493
  12.2341673  14.6021673  46.5286493   8.0871673   5.9811673  43.3236493
   8.6381673   5.3741673  43.6236493   7.6621673   6.2441673  44.0386493
   8.1061673   5.9301673  43.4726493  10.0571673   7.8121673  39.8856493
  10.1251673   6.9621673  40.0666493   9.2341673   7.8981673  39.6076493
   9.9451673   7.6991673  39.8716493   3.9761673   8.7031673  38.8236493
   4.0761673   8.8421673  37.9686493   4.7941673   8.6431673  39.1196493
   4.1111673   8.7141673  38.7406493  13.1361673  16.7671673  36.3036493
  13.7731673  16.6331673  36.8846493  12.7951673  15.9731673  36.1866493
  13.1801673  16.6301673  36.3716493  13.3311673   9.1851673  53.0366493
  13.9651673   9.0151673  53.6106493  13.7481673   9.5881673  52.3846493
  13.4861673   9.2201673  53.0256493   9.2111673  13.0321673  38.6256493
   8.9601673  12.9041673  39.4516493   8.8941673  12.3371673  38.2046493
   9.1271673  12.9111673  38.6856493  13.9561673   3.7491673  53.7746493
  13.7601673   4.3931673  54.3296493  13.2341673   3.2591673  53.7666493
  13.8211673   3.7721673  53.8556493  13.8551673   4.6901673  46.7456493
  13.0221673   4.9401673  46.6736493  13.7991673   3.8501673  46.9746493
  13.7241673   4.6031673  46.7686493  10.7421673   9.2961673  54.3916493
  11.6131673   9.2601673  54.3556493  10.5231673   9.7161673  53.6596493
  10.8391673   9.3521673  54.2786493   6.0971673  11.2401673  38.0556493
   6.8141673  10.8931673  37.6996493   6.0631673  12.0401673  37.7076493
   6.1981673  11.3071673  37.9516493   7.3151673   6.7971673  26.9654083
   6.7911673   7.3931673  27.3284083   7.7121673   6.4291673  27.6494083
   7.2961673   6.8311673  27.1204083  13.4591673  14.2381673  19.9364083
  14.1601673  13.7191673  19.9324083  12.8721673  13.7931673  19.4674083
  13.4761673  14.0951673  19.8664083   9.9861673   7.8641673  23.6414083
  10.0661673   7.8681673  22.7724083   9.4021673   7.2321673  23.7904083
   9.9111673   7.7711673  23.5354083   3.6981673  11.1971673  33.7434083
   3.4621673  11.1941673  34.5834083   2.9501673  11.0491673  33.3194083
   3.5521673  11.1741673  33.8044083   3.0781673   3.8031673  28.2254083
   3.7561673   3.8211673  27.6764083   3.0331673   2.9671673  28.4704083
   3.1711673   3.6821673  28.1804083   3.6801673  14.3891673  31.0064083
   3.8181673  15.1491673  30.5994083   4.4711673  14.0241673  31.0334083
   3.8171673  14.4481673  30.9504083   4.7751673  12.2741673  25.5114083
   5.1231673  11.4751673  25.5414083   5.4401673  12.7781673  25.2564083
   4.9251673  12.2301673  25.4784083   4.8321673  11.7231673  21.7224083
   5.1631673  11.0791673  22.2084083   5.0721673  11.5121673  20.9114083
   4.9161673  11.5971673  21.6744083   6.8001673   5.8541673  33.0614083
   5.9521673   5.7551673  32.8834083   6.8291673   6.5991673  33.5154083
   6.6791673   5.9501673  33.1024083   8.8201673   3.4551673  16.6894083
   8.3701673   4.1361673  16.9964083   8.9341673   2.9511673  17.3924083
   8.7711673   3.4811673  16.8384083   2.7761673  13.5081673  21.2714083
   2.1971673  13.2331673  21.8634083   3.4001673  12.8991673  21.2964083
   2.7831673  13.3781673  21.3624083   8.9191673  15.7961673  18.7934083
   9.6461673  16.2681673  18.8954083   9.1481673  15.0021673  19.0734083
   9.0611673  15.7491673  18.8504083   7.0871673  16.1881673  20.7834083
   7.3011673  16.7151673  21.4454083   7.8541673  16.0141673  20.4044083
   7.2321673  16.2401673  20.8254083   3.3611673   2.9041673  35.6804083
   3.4781673   2.4501673  34.9444083   3.6491673   3.7021673  35.4774083
   3.4211673   2.9551673  35.5414083  14.2141673   3.4281673  22.9844083
  13.8681673   4.1061673  23.4104083  13.5781673   2.8301673  23.0004083
  14.0691673   3.4401673  23.0494083   9.5261673  16.1981673  29.0884083
  10.2701673  16.6541673  29.0784083   9.4051673  15.9841673  28.2514083
   9.6181673  16.2341673  28.9634083   2.5301673  15.6731673  24.5184083
   3.3741673  15.7771673  24.3234083   2.2331673  16.4911673  24.5864083
   2.6111673  15.8091673  24.4994083   6.3371673   5.0701673  22.6054083
   6.6241673   4.8381673  21.8154083   7.0691673   5.1491673  23.0744083
   6.4871673   5.0471673  22.5584083   7.0591673   5.4091673  17.7264083
   7.3401673   6.1971673  17.9754083   6.2831673   5.5741673  17.3634083
   6.9861673   5.5501673  17.7094083  11.1001673  17.3831673  19.1934083
  11.7651673  17.2351673  18.6484083  11.4601673  17.3001673  19.9834083
  11.2521673  17.3491673  19.2294083   8.7801673  13.3831673  32.7924083
   8.7461673  13.7651673  33.5764083   9.6341673  13.3411673  32.6214083
   8.9011673  13.4331673  32.8834083   5.9181673  13.5801673  17.5424083
   5.7371673  14.1251673  18.1994083   6.6841673  13.8701673  17.2414083
   6.0041673  13.7041673  17.5954083   6.6831673   3.8521673  19.9104083
   6.1751673   3.1901673  19.6564083   6.7351673   4.3561673  19.2004083
   6.6161673   3.8291673  19.7684083   7.2321673  16.5471673  30.2904083
   8.0001673  16.4671673  29.8844083   6.6491673  16.4261673  29.6524083
   7.2591673  16.5171673  30.1364083  13.5091673  17.1501673  23.1914083
  13.0541673  17.8671673  23.3924083  12.8951673  16.5791673  22.9494083
  13.3511673  17.1721673  23.1854083   5.2811673   3.1601673  24.3234083
   5.3551673   3.7281673  23.6654083   5.4021673   3.6521673  25.0334083
   5.3091673   3.3171673  24.3314083  10.5061673  12.9951673  22.7354083
  11.2071673  12.5131673  22.9244083   9.8461673  12.4261673  22.7804083
  10.5121673  12.8401673  22.7694083   2.8451673   9.4161673  26.6964083
   3.0171673   9.2061673  27.5254083   2.1901673   8.8821673  26.4804083
   2.7741673   9.3061673  26.7874083   9.0731673   3.3301673  30.2114083
   8.9781673   3.6491673  31.0174083   8.4801673   2.6911673  30.1734083
   8.9711673   3.2821673  30.3254083   3.5951673   9.3541673  29.2864083
   3.6481673  10.2011673  29.4884083   3.3101673   8.9841673  30.0234083
   3.5611673   9.4241673  29.4244083   9.7721673  10.0491673  28.4164083
   9.2581673   9.6371673  28.9874083   9.6461673  10.8931673  28.5974083
   9.6781673  10.1131673  28.5274083  12.7931673   3.5101673  31.3554083
  13.5651673   3.2851673  31.6924083  12.3181673   3.7271673  32.0554083
  12.8371673   3.5091673  31.5084083  13.0251673  10.4881673  18.5434083
  13.1441673  10.2011673  19.3584083  13.8321673  10.5091673  18.2134083
  13.1611673  10.4491673  18.6154083  15.2591673  14.9971673  32.7974083
  14.5771673  15.3071673  32.3504083  14.8901673  14.5391673  33.4424083
  15.1031673  14.9751673  32.8264083  10.9201673   7.0251673  18.1284083
  10.7001673   7.7561673  17.7064083  10.4721673   7.0761673  18.8754083
  10.8211673   7.1401673  18.1764083   2.5291673  10.2271673  22.1094083
   3.2421673  10.7221673  22.1994083   2.7511673   9.6601673  21.4834083
   2.6671673  10.2161673  22.0304083   4.3321673   5.5801673  35.5254083
   3.8481673   6.1571673  35.9674083   4.3041673   5.8751673  34.7044083
   4.2561673   5.7091673  35.4694083  15.4301673   6.2641673  30.1374083
  15.6451673   5.4641673  29.8614083  14.5801673   6.3241673  29.9484083
  15.3361673   6.1551673  30.0684083   7.0521673  13.9301673  24.4364083
   6.5291673  14.5641673  24.1434083   7.3621673  13.5661673  23.7074083
   7.0201673  13.9701673  24.2854083   9.5631673   3.7321673  24.9334083
   9.9071673   3.8841673  25.7204083   9.1101673   2.9941673  25.0464083
   9.5471673   3.6451673  25.0664083   4.0391673   2.9521673  19.3904083
   4.0371673   2.8351673  18.5254083   3.8581673   3.8001673  19.4824083
   4.0121673   3.0601673  19.2764083  13.0931673  15.3791673  30.8874083
  12.4221673  15.8931673  31.1054083  13.1561673  15.4791673  30.0234083
  13.0031673  15.4701673  30.7924083   1.7771673  12.9041673  24.0224083
   1.9031673  13.7471673  24.2094083   2.4451673  12.5051673  24.4184083
   1.8951673  12.9701673  24.1084083  10.8841673   5.0641673  27.4874083
  10.2221673   5.3921673  27.9504083  11.0711673   5.6981673  26.9184083
  10.8141673   5.2061673  27.4714083   5.0891673  16.1281673  28.4834083
   4.8121673  15.4871673  27.9604083   4.8811673  16.8541673  28.0454083
   5.0181673  16.1411673  28.3414083   9.0771673   3.0331673  20.9984083
   9.5671673   3.7501673  20.9214083   8.2871673   3.2941673  20.7354083
   9.0331673   3.1771673  20.9484083  10.3911673  10.9111673  32.9084083
  10.8751673  11.6291673  33.0064083  10.7851673  10.4841673  32.2574083
  10.5211673  10.9541673  32.8264083   4.6871673  13.7561673  34.0854083
   5.0411673  13.5781673  34.8624083   4.2511673  13.0271673  33.8864083
   4.6751673  13.6221673  34.1714083   5.6591673   4.5031673  26.7234083
   6.1391673   5.2021673  26.9314083   6.0321673   3.8561673  27.1744083
   5.7851673   4.5111673  26.8204083   7.8481673   7.6721673  18.9974083
   7.8401673   8.3941673  18.5074083   7.2091673   7.8071673  19.5744083
   7.7531673   7.7991673  19.0104083  12.8201673  11.5421673  22.9784083
  13.1761673  11.1921673  23.6934083  12.8121673  10.8811673  22.4084083
  12.8721673  11.3921673  22.9994083   8.8651673  14.6081673  26.8224083
   8.2621673  14.3121673  26.2654083   9.4101673  15.0601673  26.3134083
   8.8561673  14.6311673  26.6644083   8.8781673  11.4591673  26.2224083
   8.0811673  11.6831673  26.4964083   9.1361673  10.8651673  26.8074083
   8.7981673  11.4041673  26.3494083   2.7701673  16.2711673  20.6704083
   2.6231673  15.4951673  21.0414083   3.4591673  16.1241673  20.1554083
   2.8501673  16.1341673  20.6494083   5.0621673  15.7871673  19.0724083
   5.6841673  15.9501673  19.6624083   5.0981673  16.4781673  18.5404083
   5.1591673  15.9131673  19.0814083  12.1381673   9.4571673  31.0684083
  12.1931673   9.5821673  30.2064083  12.8911673   9.7771673  31.3704083
  12.2571673   9.5221673  30.9854083   8.3291673  14.8061673  35.3454083
   8.4931673  15.0891673  36.1544083   8.5921673  15.4671673  34.8404083
   8.3921673  14.9461673  35.3904083   7.8691673   9.2631673  30.6684083
   7.7141673   9.8731673  31.2724083   8.4031673   8.7051673  31.0744083
   7.9251673   9.2711673  30.8174083   6.2531673   7.6631673  21.3264083
   6.3121673   8.3131673  21.9054083   6.0641673   6.9671673  21.8174083
   6.2341673   7.6561673  21.4844083  11.4791673  11.9921673  27.1954083
  11.0001673  12.2901673  26.5294083  11.1231673  11.2161673  27.3734083
  11.3561673  11.9211673  27.1234083   5.4761673   9.7101673  25.7574083
   4.6291673   9.5161673  25.8384083   5.8001673   9.5451673  26.5504083
   5.3981673   9.6571673  25.8864083   2.2281673  16.4401673  16.6434083
   2.6671673  15.7431673  16.9314083   2.4351673  17.0641673  17.2164083
   2.3241673  16.4291673  16.7704083   2.5541673   4.5741673  24.8084083
   3.4001673   4.3841673  24.9064083   2.1841673   3.7971673  24.6704083
   2.6241673   4.4311673  24.8024083  15.1711673  16.1581673  19.1354083
  15.8651673  15.6911673  18.8874083  14.6321673  15.5601673  19.4724083
  15.1941673  16.0001673  19.1484083  12.4101673   8.9341673  28.3144083
  12.4031673   8.1581673  28.7124083  11.5691673   9.1681673  28.3074083
  12.2851673   8.8541673  28.3724083  13.6661673   9.0051673  25.7514083
  13.3801673   9.4061673  26.4714083  14.5261673   8.9431673  25.8784083
  13.7511673   9.0551673  25.8764083   3.3551673   5.8071673  19.6594083
   3.6271673   6.6331673  19.7264083   2.4921673   5.8821673  19.5634083
   3.2681673   5.9401673  19.6544083  11.3281673   2.9291673  34.2914083
  10.8031673   3.3881673  34.8154083  10.9671673   2.1341673  34.2854083
  11.1971673   2.8791673  34.3674083  14.7971673  14.6381673  26.2804083
  15.0871673  14.8951673  25.4994083  15.4921673  14.7341673  26.7994083
  14.9431673  14.6901673  26.2414083   9.8201673   6.4981673  34.3674083
   9.8931673   6.6021673  35.2304083   9.1861673   7.0561673  34.1464083
   9.7371673   6.5961673  34.4624083  12.0881673   6.8171673  32.7324083
  12.4071673   7.6031673  32.9354083  11.7181673   6.5471673  33.4754083
  12.0811673   6.8931673  32.8724083  11.4021673  13.2411673  18.2624083
  11.7361673  12.4351673  18.2974083  10.6471673  13.1691673  18.6924083
  11.3401673  13.1111673  18.3314083  11.8841673   5.0751673  23.9214083
  11.1391673   4.7521673  24.2394083  11.8861673   5.9011673  24.2014083
  11.7741673   5.1491673  24.0094083  14.7861673   7.3591673  35.4674083
  14.7341673   7.0181673  34.6664083  15.5231673   7.8261673  35.4454083
  14.8871673   7.3781673  35.3454083  14.3241673  11.0351673  31.6734083
  14.9521673  10.4861673  31.4174083  14.2631673  11.6001673  31.0114083
  14.4081673  11.0381673  31.5374083   8.7761673  11.1161673  17.6654083
   9.4601673  10.6021673  17.4964083   8.3591673  11.1621673  16.9004083
   8.8151673  11.0471673  17.5274083   3.4581673  12.2661673  28.9694083
   3.1601673  12.8581673  29.5364083   3.5131673  12.7081673  28.2204083
   3.4221673  12.4191673  28.9424083   5.9741673   8.6891673  28.4604083
   6.4501673   9.0631673  29.0884083   5.1511673   8.8231673  28.7194083
   5.9231673   8.7641673  28.5914083   2.6841673   4.2921673  31.2014083
   2.8451673   3.5481673  31.6284083   2.6391673   4.0431673  30.3664083
   2.7011673   4.1451673  31.1414083   5.2381673  16.0821673  23.6884083
   5.7841673  16.7611673  23.7424083   4.8881673  16.1641673  22.8934083
   5.2671673  16.1951673  23.5784083   3.4211673  14.3101673  27.0774083
   2.7971673  14.8921673  26.8954083   3.6691673  14.0241673  26.2914083
   3.3651673  14.3541673  26.9344083   7.7301673  10.9441673  34.0664083
   8.4871673  11.2301673  33.7404083   7.1831673  10.9961673  33.3884083
   7.7611673  10.9941673  33.9174083  11.6391673  13.4941673  32.5704083
  11.9851673  13.7641673  33.3244083  11.9331673  14.0761673  31.9904083
  11.7341673  13.6201673  32.5964083  13.5021673   5.6401673  17.9094083
  13.8801673   6.3171673  17.5094083  12.6601673   5.8641673  17.9404083
  13.4331673   5.7731673  17.8544083   5.0151673   9.0861673  16.9924083
   4.2101673   8.9091673  16.7074083   4.9821673   9.9371673  17.1844083
   4.8911673   9.1851673  16.9794083   8.9611673   4.2551673  32.7344083
   8.3131673   4.7251673  33.0824083   9.5261673   4.1661673  33.3934083
   8.9491673   4.3111673  32.8834083   8.6491673   5.7921673  29.0324083
   8.9511673   6.2121673  29.7354083   8.6851673   4.9521673  29.2644083
   8.6991673   5.7301673  29.1704083   6.0741673  15.9591673  32.9574083
   6.5521673  15.3591673  32.5414083   5.7231673  15.5161673  33.6224083
   6.0931673  15.8051673  32.9944083  11.1971673   5.2391673  21.2844083
  11.4041673   5.0381673  22.1084083  11.9531673   5.5071673  20.9424083
  11.3391673   5.2491673  21.3554083  12.6621673   9.2661673  21.1384083
  13.1381673   8.5371673  21.0904083  11.8411673   8.9801673  21.0624083
  12.6111673   9.1161673  21.1194083   6.1331673  11.1781673  31.9774083
   5.3381673  11.1141673  32.3284083   6.2041673  12.0251673  31.7824083
   6.0261673  11.2931673  32.0004083   8.8781673  10.4331673  23.4934083
   8.9541673  10.7741673  24.2924083   9.0471673   9.5861673  23.6144083
   8.9141673  10.3581673  23.6294083   6.4001673   9.7071673  23.0584083
   6.1021673   9.3921673  23.8154083   7.0951673  10.1801673  23.2934083
   6.4591673   9.7301673  23.2054083   6.6221673  13.8251673  31.0854083
   7.3091673  13.7111673  31.6104083   6.7561673  14.6161673  30.7414083
   6.7431673  13.9251673  31.1124083  14.7981673   6.4341673  32.8964083
  13.9431673   6.3121673  33.0224083  14.9511673   6.0391673  32.1334083
  14.6941673   6.3571673  32.8024083   9.3111673   7.0991673  31.4724083
   9.0561673   6.3801673  31.8944083  10.1321673   7.2151673  31.7424083
   9.3951673   7.0101673  31.5744083   7.2451673   8.2891673  34.6594083
   7.5681673   8.9751673  34.2274083   6.5411673   8.6121673  35.0614083
   7.1881673   8.4381673  34.6544083  10.3291673  16.6631673  25.5884083
   9.8781673  17.3061673  25.9674083  11.0371673  16.5841673  26.0934083
  10.3671673  16.7461673  25.7194083   7.0301673  11.7531673  28.5184083
   6.3361673  12.1551673  28.8614083   7.7071673  12.1861673  28.8574083
   7.0271673  11.8761673  28.6194083  12.4071673  14.3461673  35.0984083
  13.1831673  13.9561673  35.1814083  11.9381673  14.0101673  35.7534083
  12.4521673  14.2391673  35.2074083  13.4321673   6.3791673  20.5804083
  13.5351673   6.3211673  19.7164083  14.1731673   6.0471673  20.8984083
  13.5571673   6.3221673  20.4994083   7.3521673  13.3441673  21.6874083
   7.1471673  14.1771673  21.5284083   6.5771673  12.9621673  21.8094083
   7.2071673  13.4111673  21.6824083  12.5341673   6.5251673  29.9364083
  12.5321673   5.6621673  30.0604083  12.6011673   6.8491673  30.7434083
  12.5441673   6.4451673  30.0734083   2.7141673  13.6061673  18.0964083
   3.1551673  13.6861673  18.8444083   1.9091673  13.3901673  18.3544083
   2.6601673  13.5861673  18.2454083  11.0051673   2.0311673  27.3724083
  11.8601673   2.1301673  27.5174083  10.6361673   2.5841673  27.9374083
  11.0771673   2.1281673  27.4774083  11.3091673   7.3111673  25.8634083
  11.9751673   7.8521673  26.0234083  10.9641673   7.6221673  25.1244083
  11.3561673   7.4371673  25.7784083  11.6221673  15.3771673  21.6704083
  11.4481673  14.7231673  22.2204083  12.3351673  15.1061673  21.2474083
  11.7021673  15.2401673  21.6894083   2.8621673  10.9211673  17.4404083
   2.0441673  10.6531673  17.5804083   2.8341673  11.7731673  17.6254083
   2.7371673  11.0081673  17.4884083   9.2971673  12.8301673  29.3614083
   9.5031673  13.1311673  30.1534083   9.2361673  13.5521673  28.8764083
   9.3181673  12.9811673  29.4064083   8.8311673  17.0441673  33.6074083
   8.0781673  17.0261673  33.1664083   8.9991673  17.8961673  33.6914083
   8.7451673  17.1671673  33.5544083   4.0681673   6.3111673  32.7774083
   3.7461673   5.7351673  32.2074083   3.7091673   7.0661673  32.5314083
   3.9681673   6.3371673  32.6574083  14.1091673  11.4691673  28.8194083
  14.0771673  10.6071673  28.6844083  13.4161673  11.7711673  28.3854083
  14.0021673  11.3861673  28.7354083   2.5031673  16.6671673  33.0254083
   2.5441673  16.7931673  33.8884083   3.1541673  16.1071673  32.8694083
   2.6051673  16.6031673  33.1304083  12.2141673  14.7291673  27.6164083
  12.7411673  14.6461673  26.9254083  11.8231673  13.9511673  27.6704083
  12.2341673  14.6021673  27.5224083   8.0871673   5.9811673  24.3174083
   8.6381673   5.3741673  24.6174083   7.6621673   6.2441673  25.0324083
   8.1061673   5.9301673  24.4664083  10.0571673   7.8121673  20.8794083
  10.1251673   6.9621673  21.0604083   9.2341673   7.8981673  20.6014083
   9.9451673   7.6991673  20.8654083   3.9761673   8.7031673  19.8174083
   4.0761673   8.8421673  18.9624083   4.7941673   8.6431673  20.1134083
   4.1111673   8.7141673  19.7344083  13.1361673  16.7671673  17.2974083
  13.7731673  16.6331673  17.8784083  12.7951673  15.9731673  17.1804083
  13.1801673  16.6301673  17.3654083  13.3311673   9.1851673  34.0304083
  13.9651673   9.0151673  34.6044083  13.7481673   9.5881673  33.3784083
  13.4861673   9.2201673  34.0194083   9.2111673  13.0321673  19.6194083
   8.9601673  12.9041673  20.4454083   8.8941673  12.3371673  19.1984083
   9.1271673  12.9111673  19.6794083  13.9561673   3.7491673  34.7684083
  13.7601673   4.3931673  35.3234083  13.2341673   3.2591673  34.7604083
  13.8211673   3.7721673  34.8494083  13.8551673   4.6901673  27.7394083
  13.0221673   4.9401673  27.6674083  13.7991673   3.8501673  27.9684083
  13.7241673   4.6031673  27.7624083  10.7421673   9.2961673  35.3854083
  11.6131673   9.2601673  35.3494083  10.5231673   9.7161673  34.6534083
  10.8391673   9.3521673  35.2724083   6.0971673  11.2401673  19.0494083
   6.8141673  10.8931673  18.6934083   6.0631673  12.0401673  18.7014083
   6.1981673  11.3071673  18.9454083   7.3151673   6.7971673   7.9591673
   6.7911673   7.3931673   8.3221673   7.7121673   6.4291673   8.6431673
   7.2961673   6.8311673   8.1141673   9.9861673   7.8641673   4.6351673
  10.0661673   7.8681673   3.7661673   9.4021673   7.2321673   4.7841673
   9.9111673   7.7711673   4.5291673   3.6981673  11.1971673  14.7371673
   3.4621673  11.1941673  15.5771673   2.9501673  11.0491673  14.3131673
   3.5521673  11.1741673  14.7981673   3.0781673   3.8031673   9.2191673
   3.7561673   3.8211673   8.6701673   3.0331673   2.9671673   9.4641673
   3.1711673   3.6821673   9.1741673   3.6801673  14.3891673  12.0001673
   3.8181673  15.1491673  11.5931673   4.4711673  14.0241673  12.0271673
   3.8171673  14.4481673  11.9441673   4.7751673  12.2741673   6.5051673
   5.1231673  11.4751673   6.5351673   5.4401673  12.7781673   6.2501673
   4.9251673  12.2301673   6.4721673   4.8321673  11.7231673   2.7161673
   5.1631673  11.0791673   3.2021673   5.0721673  11.5121673   1.9051673
   4.9161673  11.5971673   2.6681673   6.8001673   5.8541673  14.0551673
   5.9521673   5.7551673  13.8771673   6.8291673   6.5991673  14.5091673
   6.6791673   5.9501673  14.0961673   2.7761673  13.5081673   2.2651673
   2.1971673  13.2331673   2.8571673   3.4001673  12.8991673   2.2901673
   2.7831673  13.3781673   2.3561673   7.0871673  16.1881673   1.7771673
   7.3011673  16.7151673   2.4391673   7.8541673  16.0141673   1.3981673
   7.2321673  16.2401673   1.8191673   3.3611673   2.9041673  16.6741673
   3.4781673   2.4501673  15.9381673   3.6491673   3.7021673  16.4711673
   3.4211673   2.9551673  16.5351673  14.2141673   3.4281673   3.9781673
  13.8681673   4.1061673   4.4041673  13.5781673   2.8301673   3.9941673
  14.0691673   3.4401673   4.0431673   9.5261673  16.1981673  10.0821673
  10.2701673  16.6541673  10.0721673   9.4051673  15.9841673   9.2451673
   9.6181673  16.2341673   9.9571673   2.5301673  15.6731673   5.5121673
   3.3741673  15.7771673   5.3171673   2.2331673  16.4911673   5.5801673
   2.6111673  15.8091673   5.4931673   6.3371673   5.0701673   3.5991673
   6.6241673   4.8381673   2.8091673   7.0691673   5.1491673   4.0681673
   6.4871673   5.0471673   3.5521673   8.7801673  13.3831673  13.7861673
   8.7461673  13.7651673  14.5701673   9.6341673  13.3411673  13.6151673
   8.9011673  13.4331673  13.8771673   7.2321673  16.5471673  11.2841673
   8.0001673  16.4671673  10.8781673   6.6491673  16.4261673  10.6461673
   7.2591673  16.5171673  11.1301673  13.5091673  17.1501673   4.1851673
  13.0541673  17.8671673   4.3861673  12.8951673  16.5791673   3.9431673
  13.3511673  17.1721673   4.1791673   5.2811673   3.1601673   5.3171673
   5.3551673   3.7281673   4.6591673   5.4021673   3.6521673   6.0271673
   5.3091673   3.3171673   5.3251673  10.5061673  12.9951673   3.7291673
  11.2071673  12.5131673   3.9181673   9.8461673  12.4261673   3.7741673
  10.5121673  12.8401673   3.7631673   2.8451673   9.4161673   7.6901673
   3.0171673   9.2061673   8.5191673   2.1901673   8.8821673   7.4741673
   2.7741673   9.3061673   7.7811673   9.0731673   3.3301673  11.2051673
   8.9781673   3.6491673  12.0111673   8.4801673   2.6911673  11.1671673
   8.9711673   3.2821673  11.3191673   3.5951673   9.3541673  10.2801673
   3.6481673  10.2011673  10.4821673   3.3101673   8.9841673  11.0171673
   3.5611673   9.4241673  10.4181673   9.7721673  10.0491673   9.4101673
   9.2581673   9.6371673   9.9811673   9.6461673  10.8931673   9.5911673
   9.6781673  10.1131673   9.5211673  12.7931673   3.5101673  12.3491673
  13.5651673   3.2851673  12.6861673  12.3181673   3.7271673  13.0491673
  12.8371673   3.5091673  12.5021673  15.2591673  14.9971673  13.7911673
  14.5771673  15.3071673  13.3441673  14.8901673  14.5391673  14.4361673
  15.1031673  14.9751673  13.8201673   2.5291673  10.2271673   3.1031673
   3.2421673  10.7221673   3.1931673   2.7511673   9.6601673   2.4771673
   2.6671673  10.2161673   3.0241673   4.3321673   5.5801673  16.5191673
   3.8481673   6.1571673  16.9611673   4.3041673   5.8751673  15.6981673
   4.2561673   5.7091673  16.4631673  15.4301673   6.2641673  11.1311673
  15.6451673   5.4641673  10.8551673  14.5801673   6.3241673  10.9421673
  15.3361673   6.1551673  11.0621673   7.0521673  13.9301673   5.4301673
   6.5291673  14.5641673   5.1371673   7.3621673  13.5661673   4.7011673
   7.0201673  13.9701673   5.2791673   9.5631673   3.7321673   5.9271673
   9.9071673   3.8841673   6.7141673   9.1101673   2.9941673   6.0401673
   9.5471673   3.6451673   6.0601673  13.0931673  15.3791673  11.8811673
  12.4221673  15.8931673  12.0991673  13.1561673  15.4791673  11.0171673
  13.0031673  15.4701673  11.7861673   1.7771673  12.9041673   5.0161673
   1.9031673  13.7471673   5.2031673   2.4451673  12.5051673   5.4121673
   1.8951673  12.9701673   5.1021673  10.8841673   5.0641673   8.4811673
  10.2221673   5.3921673   8.9441673  11.0711673   5.6981673   7.9121673
  10.8141673   5.2061673   8.4651673   5.0891673  16.1281673   9.4771673
   4.8121673  15.4871673   8.9541673   4.8811673  16.8541673   9.0391673
   5.0181673  16.1411673   9.3351673   9.0771673   3.0331673   1.9921673
   9.5671673   3.7501673   1.9151673   8.2871673   3.2941673   1.7291673
   9.0331673   3.1771673   1.9421673  10.3911673  10.9111673  13.9021673
  10.8751673  11.6291673  14.0001673  10.7851673  10.4841673  13.2511673
  10.5211673  10.9541673  13.8201673   4.6871673  13.7561673  15.0791673
   5.0411673  13.5781673  15.8561673   4.2511673  13.0271673  14.8801673
   4.6751673  13.6221673  15.1651673   5.6591673   4.5031673   7.7171673
   6.1391673   5.2021673   7.9251673   6.0321673   3.8561673   8.1681673
   5.7851673   4.5111673   7.8141673  12.8201673  11.5421673   3.9721673
  13.1761673  11.1921673   4.6871673  12.8121673  10.8811673   3.4021673
  12.8721673  11.3921673   3.9931673   8.8651673  14.6081673   7.8161673
   8.2621673  14.3121673   7.2591673   9.4101673  15.0601673   7.3071673
   8.8561673  14.6311673   7.6581673   8.8781673  11.4591673   7.2161673
   8.0811673  11.6831673   7.4901673   9.1361673  10.8651673   7.8011673
   8.7981673  11.4041673   7.3431673  12.1381673   9.4571673  12.0621673
  12.1931673   9.5821673  11.2001673  12.8911673   9.7771673  12.3641673
  12.2571673   9.5221673  11.9791673   8.3291673  14.8061673  16.3391673
   8.4931673  15.0891673  17.1481673   8.5921673  15.4671673  15.8341673
   8.3921673  14.9461673  16.3841673   7.8691673   9.2631673  11.6621673
   7.7141673   9.8731673  12.2661673   8.4031673   8.7051673  12.0681673
   7.9251673   9.2711673  11.8111673   6.2531673   7.6631673   2.3201673
   6.3121673   8.3131673   2.8991673   6.0641673   6.9671673   2.8111673
   6.2341673   7.6561673   2.4781673  11.4791673  11.9921673   8.1891673
  11.0001673  12.2901673   7.5231673  11.1231673  11.2161673   8.3671673
  11.3561673  11.9211673   8.1171673   5.4761673   9.7101673   6.7511673
   4.6291673   9.5161673   6.8321673   5.8001673   9.5451673   7.5441673
   5.3981673   9.6571673   6.8801673   2.5541673   4.5741673   5.8021673
   3.4001673   4.3841673   5.9001673   2.1841673   3.7971673   5.6641673
   2.6241673   4.4311673   5.7961673  12.4101673   8.9341673   9.3081673
  12.4031673   8.1581673   9.7061673  11.5691673   9.1681673   9.3011673
  12.2851673   8.8541673   9.3661673  13.6661673   9.0051673   6.7451673
  13.3801673   9.4061673   7.4651673  14.5261673   8.9431673   6.8721673
  13.7511673   9.0551673   6.8701673  11.3281673   2.9291673  15.2851673
  10.8031673   3.3881673  15.8091673  10.9671673   2.1341673  15.2791673
  11.1971673   2.8791673  15.3611673  14.7971673  14.6381673   7.2741673
  15.0871673  14.8951673   6.4931673  15.4921673  14.7341673   7.7931673
  14.9431673  14.6901673   7.2351673   9.8201673   6.4981673  15.3611673
   9.8931673   6.6021673  16.2241673   9.1861673   7.0561673  15.1401673
   9.7371673   6.5961673  15.4561673  12.0881673   6.8171673  13.7261673
  12.4071673   7.6031673  13.9291673  11.7181673   6.5471673  14.4691673
  12.0811673   6.8931673  13.8661673  11.8841673   5.0751673   4.9151673
  11.1391673   4.7521673   5.2331673  11.8861673   5.9011673   5.1951673
  11.7741673   5.1491673   5.0031673  14.7861673   7.3591673  16.4611673
  14.7341673   7.0181673  15.6601673  15.5231673   7.8261673  16.4391673
  14.8871673   7.3781673  16.3391673  14.3241673  11.0351673  12.6671673
  14.9521673  10.4861673  12.4111673  14.2631673  11.6001673  12.0051673
  14.4081673  11.0381673  12.5311673   3.4581673  12.2661673   9.9631673
   3.1601673  12.8581673  10.5301673   3.5131673  12.7081673   9.2141673
   3.4221673  12.4191673   9.9361673   5.9741673   8.6891673   9.4541673
   6.4501673   9.0631673  10.0821673   5.1511673   8.8231673   9.7131673
   5.9231673   8.7641673   9.5851673   2.6841673   4.2921673  12.1951673
   2.8451673   3.5481673  12.6221673   2.6391673   4.0431673  11.3601673
   2.7011673   4.1451673  12.1351673   5.2381673  16.0821673   4.6821673
   5.7841673  16.7611673   4.7361673   4.8881673  16.1641673   3.8871673
   5.2671673  16.1951673   4.5721673   3.4211673  14.3101673   8.0711673
   2.7971673  14.8921673   7.8891673   3.6691673  14.0241673   7.2851673
   3.3651673  14.3541673   7.9281673   7.7301673  10.9441673  15.0601673
   8.4871673  11.2301673  14.7341673   7.1831673  10.9961673  14.3821673
   7.7611673  10.9941673  14.9111673  11.6391673  13.4941673  13.5641673
  11.9851673  13.7641673  14.3181673  11.9331673  14.0761673  12.9841673
  11.7341673  13.6201673  13.5901673   8.9611673   4.2551673  13.7281673
   8.3131673   4.7251673  14.0761673   9.5261673   4.1661673  14.3871673
   8.9491673   4.3111673  13.8771673   8.6491673   5.7921673  10.0261673
   8.9511673   6.2121673  10.7291673   8.6851673   4.9521673  10.2581673
   8.6991673   5.7301673  10.1641673   6.0741673  15.9591673  13.9511673
   6.5521673  15.3591673  13.5351673   5.7231673  15.5161673  14.6161673
   6.0931673  15.8051673  13.9881673  11.1971673   5.2391673   2.2781673
  11.4041673   5.0381673   3.1021673  11.9531673   5.5071673   1.9361673
  11.3391673   5.2491673   2.3491673  12.6621673   9.2661673   2.1321673
  13.1381673   8.5371673   2.0841673  11.8411673   8.9801673   2.0561673
  12.6111673   9.1161673   2.1131673   6.1331673  11.1781673  12.9711673
   5.3381673  11.1141673  13.3221673   6.2041673  12.0251673  12.7761673
   6.0261673  11.2931673  12.9941673   8.8781673  10.4331673   4.4871673
   8.9541673  10.7741673   5.2861673   9.0471673   9.5861673   4.6081673
   8.9141673  10.3581673   4.6231673   6.4001673   9.7071673   4.0521673
   6.1021673   9.3921673   4.8091673   7.0951673  10.1801673   4.2871673
   6.4591673   9.7301673   4.1991673   6.6221673  13.8251673  12.0791673
   7.3091673  13.7111673  12.6041673   6.7561673  14.6161673  11.7351673
   6.7431673  13.9251673  12.1061673  14.7981673   6.4341673  13.8901673
  13.9431673   6.3121673  14.0161673  14.9511673   6.0391673  13.1271673
  14.6941673   6.3571673  13.7961673   9.3111673   7.0991673  12.4661673
   9.0561673   6.3801673  12.8881673  10.1321673   7.2151673  12.7361673
   9.3951673   7.0101673  12.5681673   7.2451673   8.2891673  15.6531673
   7.5681673   8.9751673  15.2211673   6.5411673   8.6121673  16.0551673
   7.1881673   8.4381673  15.6481673  10.3291673  16.6631673   6.5821673
   9.8781673  17.3061673   6.9611673  11.0371673  16.5841673   7.0871673
  10.3671673  16.7461673   6.7131673   7.0301673  11.7531673   9.5121673
   6.3361673  12.1551673   9.8551673   7.7071673  12.1861673   9.8511673
   7.0271673  11.8761673   9.6131673  12.4071673  14.3461673  16.0921673
  13.1831673  13.9561673  16.1751673  11.9381673  14.0101673  16.7471673
  12.4521673  14.2391673  16.2011673   7.3521673  13.3441673   2.6811673
   7.1471673  14.1771673   2.5221673   6.5771673  12.9621673   2.8031673
   7.2071673  13.4111673   2.6761673  12.5341673   6.5251673  10.9301673
  12.5321673   5.6621673  11.0541673  12.6011673   6.8491673  11.7371673
  12.5441673   6.4451673  11.0671673  11.0051673   2.0311673   8.3661673
  11.8601673   2.1301673   8.5111673  10.6361673   2.5841673   8.9311673
  11.0771673   2.1281673   8.4711673  11.3091673   7.3111673   6.8571673
  11.9751673   7.8521673   7.0171673  10.9641673   7.6221673   6.1181673
  11.3561673   7.4371673   6.7721673  11.6221673  15.3771673   2.6641673
  11.4481673  14.7231673   3.2141673  12.3351673  15.1061673   2.2411673
  11.7021673  15.2401673   2.6831673   9.2971673  12.8301673  10.3551673
   9.5031673  13.1311673  11.1471673   9.2361673  13.5521673   9.8701673
   9.3181673  12.9811673  10.4001673   8.8311673  17.0441673  14.6011673
   8.0781673  17.0261673  14.1601673   8.9991673  17.8961673  14.6851673
   8.7451673  17.1671673  14.5481673   4.0681673   6.3111673  13.7711673
   3.7461673   5.7351673  13.2011673   3.7091673   7.0661673  13.5251673
   3.9681673   6.3371673  13.6511673  14.1091673  11.4691673   9.8131673
  14.0771673  10.6071673   9.6781673  13.4161673  11.7711673   9.3791673
  14.0021673  11.3861673   9.7291673   2.5031673  16.6671673  14.0191673
   2.5441673  16.7931673  14.8821673   3.1541673  16.1071673  13.8631673
   2.6051673  16.6031673  14.1241673  12.2141673  14.7291673   8.6101673
  12.7411673  14.6461673   7.9191673  11.8231673  13.9511673   8.6641673
  12.2341673  14.6021673   8.5161673   8.0871673   5.9811673   5.3111673
   8.6381673   5.3741673   5.6111673   7.6621673   6.2441673   6.0261673
   8.1061673   5.9301673   5.4601673  10.0571673   7.8121673   1.8731673
  10.1251673   6.9621673   2.0541673   9.2341673   7.8981673   1.5951673
   9.9451673   7.6991673   1.8591673  13.3311673   9.1851673  15.0241673
  13.9651673   9.0151673  15.5981673  13.7481673   9.5881673  14.3721673
  13.4861673   9.2201673  15.0131673  13.9561673   3.7491673  15.7621673
  13.7601673   4.3931673  16.3171673  13.2341673   3.2591673  15.7541673
  13.8211673   3.7721673  15.8431673  13.8551673   4.6901673   8.7331673
  13.0221673   4.9401673   8.6611673  13.7991673   3.8501673   8.9621673
  13.7241673   4.6031673   8.7561673  10.7421673   9.2961673  16.3791673
  11.6131673   9.2601673  16.3431673  10.5231673   9.7161673  15.6471673
  10.8391673   9.3521673  16.2661673
  67.6688665  72.2656585  90.5452985  90.0000000  90.0000000  90.0000000
